

     ************************************************************************
     *************** Dalton - An Electronic Structure Program ***************
     ************************************************************************

    This is output from DALTON (Release Dalton2013 patch 0)
   ----------------------------------------------------------------------------
    NOTE:
     
    Dalton is an experimental code for the evaluation of molecular
    properties using (MC)SCF, DFT, CI, and CC wave functions.
    The authors accept no responsibility for the performance of
    the code or for the correctness of the results.
     
    The code (in whole or part) is provided under a licence and
    is not to be reproduced for further distribution without
    the written permission of the authors or their representatives.
     
    See the home page "http://daltonprogram.org" for further information.
     
    If results obtained with this code are published,
    the appropriate citations would be both of:
     
       K. Aidas, C. Angeli, K. L. Bak, V. Bakken, R. Bast,
       L. Boman, O. Christiansen, R. Cimiraglia, S. Coriani,
       P. Dahle, E. K. Dalskov, U. Ekstroem, T. Enevoldsen,
       J. J. Eriksen, P. Ettenhuber, B. Fernandez, L. Ferrighi,
       H. Fliegl, L. Frediani, K. Hald, A. Halkier, C. Haettig,
       H. Heiberg, T. Helgaker, A. C. Hennum, H. Hettema,
       E. Hjertenaes, S. Hoest, I.-M. Hoeyvik, M. F. Iozzi,
       B. Jansik, H. J. Aa. Jensen, D. Jonsson, P. Joergensen,
       J. Kauczor, S. Kirpekar, T. Kjaergaard, W. Klopper,
       S. Knecht, R. Kobayashi, H. Koch, J. Kongsted, A. Krapp,
       K. Kristensen, A. Ligabue, O. B. Lutnaes, J. I. Melo,
       K. V. Mikkelsen, R. H. Myhre, C. Neiss, C. B. Nielsen,
       P. Norman, J. Olsen, J. M. H. Olsen, A. Osted,
       M. J. Packer, F. Pawlowski, T. B. Pedersen, P. F. Provasi,
       S. Reine, Z. Rinkevicius, T. A. Ruden, K. Ruud, V. Rybkin,
       P. Salek, C. C. M. Samson, A. Sanchez de Meras, T. Saue,
       S. P. A. Sauer, B. Schimmelpfennig, K. Sneskov,
       A. H. Steindal, K. O. Sylvester-Hvid, P. R. Taylor,
       A. M. Teale, E. I. Tellgren, D. P. Tew, A. J. Thorvaldsen,
       L. Thoegersen, O. Vahtras, M. A. Watson, D. J. D. Wilson,
       M. Ziolkowski and H. Agren.
       The Dalton quantum chemistry program system.
       WIREs Comput. Mol. Sci. 2013. doi: 10.1002/wcms.1172
    
    and
    
       Dalton, a Molecular Electronic Structure Program,
       Release DALTON2013.0 (2013), see http://daltonprogram.org
   ----------------------------------------------------------------------------

    Authors in alphabetical order (major contribution(s) in parenthesis):

  Kestutis Aidas,           Vilnius University,           Lithuania   (QM/MM)
  Celestino Angeli,         University of Ferrara,        Italy       (NEVPT2)
  Keld L. Bak,              UNI-C,                        Denmark     (AOSOPPA, non-adiabatic coupling, magnetic properties)
  Vebjoern Bakken,          University of Oslo,           Norway      (DALTON; geometry optimizer, symmetry detection)
  Radovan Bast,             KTH Stockholm                 Sweden      (DALTON installation and execution frameworks)
  Linus Boman,              NTNU,                         Norway      (Cholesky decomposition and subsystems)
  Ove Christiansen,         Aarhus University,            Denmark     (CC module)
  Renzo Cimiraglia,         University of Ferrara,        Italy       (NEVPT2)
  Sonia Coriani,            University of Trieste,        Italy       (CC module, MCD in RESPONS)
  Paal Dahle,               University of Oslo,           Norway      (Parallelization)
  Erik K. Dalskov,          UNI-C,                        Denmark     (SOPPA)
  Thomas Enevoldsen,        Univ. of Southern Denmark,    Denmark     (SOPPA)
  Janus J. Eriksen,         Aarhus University,            Denmark     (PE-MP2/SOPPA, TDA)
  Berta Fernandez,          U. of Santiago de Compostela, Spain       (doublet spin, ESR in RESPONS)
  Lara Ferrighi,            Aarhus University,            Denmark     (PCM Cubic response)
  Heike Fliegl,             University of Oslo,           Norway      (CCSD(R12))
  Luca Frediani,            UiT The Arctic U. of Norway,  Norway      (PCM)
  Bin Gao,                  UiT The Arctic U. of Norway,  Norway      (Gen1Int library)
  Christof Haettig,         Ruhr-University Bochum,       Germany     (CC module)
  Kasper Hald,              Aarhus University,            Denmark     (CC module)
  Asger Halkier,            Aarhus University,            Denmark     (CC module)
  Hanne Heiberg,            University of Oslo,           Norway      (geometry analysis, selected one-electron integrals)
  Trygve Helgaker,          University of Oslo,           Norway      (DALTON; ABACUS, ERI, DFT modules, London, and much more)
  Alf Christian Hennum,     University of Oslo,           Norway      (Parity violation)
  Hinne Hettema,            University of Auckland,       New Zealand (quadratic response in RESPONS; SIRIUS supersymmetry)
  Eirik Hjertenaes,         NTNU,                         Norway      (Cholesky decomposition)
  Maria Francesca Iozzi,    University of Oslo,           Norway      (RPA)
  Brano Jansik              Technical Univ. of Ostrava    Czech Rep.  (DFT cubic response)
  Hans Joergen Aa. Jensen,  Univ. of Southern Denmark,    Denmark     (DALTON; SIRIUS, RESPONS, ABACUS modules, London, and much more)
  Dan Jonsson,              UiT The Arctic U. of Norway,  Norway      (cubic response in RESPONS module)
  Poul Joergensen,          Aarhus University,            Denmark     (RESPONS, ABACUS, and CC modules)
  Joanna Kauczor,           Linkoeping University,        Sweden      (Complex polarization propagator (CPP) module)
  Sheela Kirpekar,          Univ. of Southern Denmark,    Denmark     (Mass-velocity & Darwin integrals)
  Wim Klopper,              KIT Karlsruhe,                Germany     (R12 code in CC, SIRIUS, and ABACUS modules)
  Stefan Knecht,            ETH Zurich,                   Switzerland (Parallel CI and MCSCF)
  Rika Kobayashi,           Australian National Univ.,    Australia   (DIIS in CC, London in MCSCF)
  Henrik Koch,              NTNU,                         Norway      (CC module, Cholesky decomposition)
  Jacob Kongsted,           Univ. of Southern Denmark,    Denmark     (Polarizable embedding, QM/MM)
  Andrea Ligabue,           University of Modena,         Italy       (CTOCD, AOSOPPA)
  Ola B. Lutnaes,           University of Oslo,           Norway      (DFT Hessian)
  Juan I. Melo,             University of Buenos Aires,   Argentina   (LRESC, Relativistic Effects on NMR Shieldings)
  Kurt V. Mikkelsen,        University of Copenhagen,     Denmark     (MC-SCRF and QM/MM)
  Rolf H. Myhre,            NTNU,                         Norway      (Cholesky, subsystems and ECC2)
  Christian Neiss,          Univ. Erlangen-Nuernberg,     Germany     (CCSD(R12))
  Christian B. Nielsen,     University of Copenhagen,     Denmark     (QM/MM)
  Patrick Norman,           Linkoeping University,        Sweden      (Cubic response and complex response in RESPONS)
  Jeppe Olsen,              Aarhus University,            Denmark     (SIRIUS CI/density modules)
  Jogvan Magnus H. Olsen,   Univ. of Southern Denmark,    Denmark     (Polarizable embedding, PE library, QM/MM)
  Anders Osted,             Copenhagen University,        Denmark     (QM/MM)
  Martin J. Packer,         University of Sheffield,      UK          (SOPPA)
  Filip Pawlowski,          Kazimierz Wielki University   Poland      (CC3)
  Thomas B. Pedersen,       University of Oslo,           Norway      (Cholesky decomposition)
  Patricio F. Provasi,      University of Northeastern,   Argentina   (Analysis of coupling constants in localized orbitals)
  Zilvinas Rinkevicius,     KTH Stockholm,                Sweden      (open-shell DFT, ESR)
  Elias Rudberg,            KTH Stockholm,                Sweden      (DFT grid and basis info)
  Torgeir A. Ruden,         University of Oslo,           Norway      (Numerical derivatives in ABACUS)
  Kenneth Ruud,             UiT The Arctic U. of Norway,  Norway      (DALTON; ABACUS magnetic properties and  much more)
  Pawel Salek,              KTH Stockholm,                Sweden      (DALTON; DFT code)
  Claire C. M. Samson       University of Karlsruhe       Germany     (Boys localization, r12 integrals in ERI)
  Alfredo Sanchez de Meras, University of Valencia,       Spain       (CC module, Cholesky decomposition)
  Trond Saue,               Paul Sabatier University,     France      (direct Fock matrix construction)
  Stephan P. A. Sauer,      University of Copenhagen,     Denmark     (SOPPA(CCSD), SOPPA prop., AOSOPPA, vibrational g-factors)
  Bernd Schimmelpfennig,    Forschungszentrum Karlsruhe,  Germany     (AMFI module)
  Kristian Sneskov,         Aarhus University,            Denmark     (QM/MM, PE-CC)
  Arnfinn H. Steindal,      UiT The Arctic U. of Norway,  Norway      (parallel QM/MM)
  K. O. Sylvester-Hvid,     University of Copenhagen,     Denmark     (MC-SCRF)
  Peter R. Taylor,          VLSCI/Univ. of Melbourne,     Australia   (Symmetry handling ABACUS, integral transformation)
  Andrew M. Teale,          University of Nottingham,     England     (DFT-AC, DFT-D)
  David P. Tew,             University of Bristol,        England     (CCSD(R12))
  Olav Vahtras,             KTH Stockholm,                Sweden      (triplet response, spin-orbit, ESR, TDDFT, open-shell DFT)
  David J. Wilson,          La Trobe University,          Australia   (DFT Hessian and DFT magnetizabilities)
  Hans Agren,               KTH Stockholm,                Sweden      (SIRIUS module, RESPONS, MC-SCRF solvation model)
 --------------------------------------------------------------------------------

     Date and time (Linux)  : Sun Sep  8 21:16:21 2013
     Host name              : lpqlx131.ups-tlse.fr                    

 * Work memory size             :    64000000 =  488.28 megabytes.

 * Directories for basis set searches:
   1) /home/bast/DALTON-2013.0-Source/build/test_dpt_hbr_finp
   2) /home/bast/DALTON-2013.0-Source/build/basis


Compilation information
-----------------------

 Who compiled             | bast
 Host                     | lpqlx131.ups-tlse.fr
 System                   | Linux-3.8.5-201.fc18.x86_64
 CMake generator          | Unix Makefiles
 Processor                | x86_64
 64-bit integers          | OFF
 MPI                      | OFF
 Fortran compiler         | /usr/bin/gfortran
 Fortran compiler version | GNU Fortran (GCC) 4.7.2 20121109 (Red Hat 4.7.2-8)
 C compiler               | /usr/bin/gcc
 C compiler version       | gcc (GCC) 4.7.2 20121109 (Red Hat 4.7.2-8)
 C++ compiler             | /usr/bin/g++
 C++ compiler version     | g++ (GCC) 4.7.2 20121109 (Red Hat 4.7.2-8)
 Static linking           | OFF
 Last Git revision        | f34203295a86316e27f9e7b44f9b6769c4a046c0
 Configuration time       | 2013-09-08 20:31:27.952056


   Content of the .dal input file
 ----------------------------------

**DALTON INPUT                                    
.RUN WAVE FUNCTIONS                               
**INTEGRAL                                        
.FINDPT                                           
 0.005                                            
**WAVE FUNCTION                                   
.CC                                               
*SCF INP                                          
.THRESH                                           
 1.0D-10                                          
*CC INP                                           
.CCSD                                             
.CC(T)                                            
.PRINT                                            
 4                                                
.THRENR                                           
1.0D-10                                           
.FROIMP                                           
 5 2 2 0                                          
 0 0 0 0                                          
**END OF DALTON INPUT                             


   Content of the .mol file
 ----------------------------

BASIS                                                                          
Ahlrichs-VDZ                                                                   
First-order relativistic corrections (frozen core)                             
                                                                               
    2    2  X  Y      1.00D-15                                                 
       35.0   1                                                                
Br      0.00000000000000    0.00000000000000    0.00000000000000       *       
        1.0   1                                                                
H       0.00000000000000    0.00000000000000    2.67207254785060       *       


       *******************************************************************
       *********** Output from DALTON general input processing ***********
       *******************************************************************

 --------------------------------------------------------------------------------
   Overall default print level:    0
   Print level for DALTON.STAT:    1

    HERMIT 1- and 2-electron integral sections will be executed
    "Old" integral transformation used (limited to max 255 basis functions)
    Wave function sections will be executed (SIRIUS module)
 --------------------------------------------------------------------------------


   ****************************************************************************
   *************** Output of molecule and basis set information ***************
   ****************************************************************************


    The two title cards from your ".mol" input:
    ------------------------------------------------------------------------
 1: First-order relativistic corrections (frozen core)                      
 2:                                                                         
    ------------------------------------------------------------------------

  Atomic type no.    1
  --------------------
  Nuclear charge:  35.00000
  Number of symmetry independent centers:    1
  Number of basis sets to read;    2
  Basis set file used for this atomic type with Z =  35 :
     "/home/bast/DALTON-2013.0-Source/build/basis/Ahlrichs-VDZ"

  Atomic type no.    2
  --------------------
  Nuclear charge:   1.00000
  Number of symmetry independent centers:    1
  Number of basis sets to read;    2
  Basis set file used for this atomic type with Z =   1 :
     "/home/bast/DALTON-2013.0-Source/build/basis/Ahlrichs-VDZ"


                         SYMGRP: Point group information
                         -------------------------------

Point group: C2v

   * The point group was generated by:

      Reflection in the yz-plane
      Reflection in the xz-plane

   * Group multiplication table

        |  E   C2z  Oxz  Oyz
   -----+--------------------
     E  |  E   C2z  Oxz  Oyz
    C2z | C2z   E   Oyz  Oxz
    Oxz | Oxz  Oyz   E   C2z
    Oyz | Oyz  Oxz  C2z   E 

   * Character table

        |  E   C2z  Oxz  Oyz
   -----+--------------------
    A1  |   1    1    1    1
    B1  |   1   -1    1   -1
    B2  |   1   -1   -1    1
    A2  |   1    1   -1   -1

   * Direct product table

        | A1   B1   B2   A2 
   -----+--------------------
    A1  | A1   B1   B2   A2 
    B1  | B1   A1   A2   B2 
    B2  | B2   A2   A1   B1 
    A2  | A2   B2   B1   A1 


                                 Isotopic Masses
                                 ---------------

                           Br         78.918336
                           H           1.007825

                       Total mass:    79.926161 amu
                       Natural abundance:  50.682 %

 Center-of-mass coordinates (a.u.):    0.000000    0.000000    0.033693


  Atoms and basis sets
  --------------------

  Number of atom types :    2
  Total number of atoms:    2

  Basis set used is "Ahlrichs-VDZ" from the basis set library.

  label    atoms   charge   prim   cont     basis
  ----------------------------------------------------------------------
  Br          1   35.0000    69    27      [14s10p5d|5s4p2d]                                  
  H           1    1.0000     4     2      [4s|2s]                                            
  ----------------------------------------------------------------------
  total:      2   36.0000    73    29
  ----------------------------------------------------------------------
  Spherical harmonic basis used.

  Threshold for neglecting AO integrals:  1.00D-15


  Cartesian Coordinates (a.u.)
  ----------------------------

  Total number of coordinates:    6
  Br      :     1  x   0.0000000000    2  y   0.0000000000    3  z   0.0000000000
  H       :     4  x   0.0000000000    5  y   0.0000000000    6  z   2.6720725479


  Symmetry Coordinates
  --------------------

  Number of coordinates in each symmetry:     2    2    2    0

  Symmetry  A1  ( 1)

    1   Br    z    3
    2   H     z    6

  Symmetry  B1  ( 2)

    3   Br    x    1
    4   H     x    4

  Symmetry  B2  ( 3)

    5   Br    y    2
    6   H     y    5


   Interatomic separations (in Angstrom):
   --------------------------------------

            Br          H     
            ------      ------
 Br    :    0.000000
 H     :    1.414000    0.000000


  Max    interatomic separation is    1.4140 Angstrom (    2.6721 Bohr)
  between atoms    2 and    1, "H     " and "Br    ".

  Min HX interatomic separation is    1.4140 Angstrom (    2.6721 Bohr)


  Bond distances (Angstrom):
  --------------------------

                  atom 1     atom 2       distance
                  ------     ------       --------
  bond distance:  H          Br           1.414000




 Principal moments of inertia (u*A**2) and principal axes
 --------------------------------------------------------

   IA       0.000000          0.000000    0.000000    1.000000
   IB       1.989632          0.000000    1.000000    0.000000
   IC       1.989632          1.000000    0.000000    0.000000


 Rotational constants
 --------------------

 The molecule is linear.

               B =       254006.22 MHz     (    8.472735 cm-1)


@  Nuclear repulsion energy :   13.098446757426 Hartree


  Symmetry Orbitals
  -----------------

  Number of orbitals in each symmetry:          15    6    6    2


  Symmetry  A1 ( 1)

    1     Br       1s         1
    2     Br       1s         2
    3     Br       1s         3
    4     Br       1s         4
    5     Br       1s         5
    6     Br       2pz        8
    7     Br       2pz       11
    8     Br       2pz       14
    9     Br       2pz       17
   10     Br       3d0       20
   11     Br       3d2+      22
   12     Br       3d0       25
   13     Br       3d2+      27
   14     H        1s        28
   15     H        1s        29


  Symmetry  B1 ( 2)

   16     Br       2px        6
   17     Br       2px        9
   18     Br       2px       12
   19     Br       2px       15
   20     Br       3d1+      21
   21     Br       3d1+      26


  Symmetry  B2 ( 3)

   22     Br       2py        7
   23     Br       2py       10
   24     Br       2py       13
   25     Br       2py       16
   26     Br       3d1-      19
   27     Br       3d1-      24


  Symmetry  A2 ( 4)

   28     Br       3d2-      18
   29     Br       3d2-      23

  Symmetries of electric field:  B1 (2)  B2 (3)  A1 (1)

  Symmetries of magnetic field:  B2 (3)  B1 (2)  A2 (4)


                     .---------------------------------------.
                     | Starting in Integral Section (HERMIT) |
                     `---------------------------------------'



    *************************************************************************
    ****************** Output from HERMIT input processing ******************
    *************************************************************************


 Default print level:        1

 * Nuclear model: Point charge

 Calculation of one- and two-electron Hamiltonian integrals.

 A direct relativistic perturbation is added to
 Hamiltonian and metric with perturbation parameter:  0.00500000000000
 (perturbation parameter * c^{-2} =   0.00000026625677)


 The following one-electron property integrals are calculated as requested:
          - overlap integrals
          - small component potential energy for DPT

 Center of mass  (bohr):      0.000000000000      0.000000000000      0.033693367501
 Operator center (bohr):      0.000000000000      0.000000000000      0.000000000000
 Gauge origin    (bohr):      0.000000000000      0.000000000000      0.000000000000
 Dipole origin   (bohr):      0.000000000000      0.000000000000      0.000000000000


     ************************************************************************
     ************************** Output from HERINT **************************
     ************************************************************************


 Metric is changed by direct perturbation theory (DPT) 

 One-electron Hamiltionian is changed by direct perturbation theory (DPT) 

 Threshold for neglecting two-electron integrals:  1.00D-15
 Number of two-electron integrals written:       15100 ( 15.9% )
 Megabytes written:                              0.179

 >>>  Time used in TWOINT     is   0.11 seconds
 >>>> Total CPU  time used in HERMIT:   0.14 seconds
 >>>> Total wall time used in HERMIT:   0.15 seconds


                        .----------------------------------.
                        | End of Integral Section (HERMIT) |
                        `----------------------------------'



                   .--------------------------------------------.
                   | Starting in Wave Function Section (SIRIUS) |
                   `--------------------------------------------'


 *** Output from Huckel module :

     Using EWMO model:          T
     Using EHT  model:          F
     Number of Huckel orbitals each symmetry:   10    4    4    1

 EWMO - Energy Weighted Maximum Overlap - is a Huckel type method,
        which normally is better than Extended Huckel Theory.
 Reference: Linderberg and Ohrn, Propagators in Quantum Chemistry (Wiley, 1973)

 Huckel EWMO eigenvalues for symmetry :  1
         -490.059615     -65.200224     -58.554108      -9.875059      -7.479315
           -3.220762      -3.220200      -1.134881      -0.623989      -0.185647

 Huckel EWMO eigenvalues for symmetry :  2
          -58.554100      -7.478200      -3.220200      -0.457100

 Huckel EWMO eigenvalues for symmetry :  3
          -58.554100      -7.478200      -3.220200      -0.457100

 Huckel EWMO eigenvalues for symmetry :  4
           -3.220200

 **********************************************************************
 *SIRIUS* a direct, restricted step, second order MCSCF program       *
 **********************************************************************

 
     Date and time (Linux)  : Sun Sep  8 21:16:21 2013
     Host name              : lpqlx131.ups-tlse.fr                    

 Title lines from ".mol" input file:
     First-order relativistic corrections (frozen core)                      
                                                                             

 Print level on unit LUPRI =   2 is   0
 Print level on unit LUW4  =   2 is   5

@    (Integral direct) CC calculation.

@    This is a combination run starting with
@              a restricted, closed shell Hartree-Fock calculation


 Initial molecular orbitals are obtained according to
 ".MOSTART EWMO  " input option

     Wave function specification
     ============================

     For the specification of the Coupled Cluster: see later.

@    For the wave function of type :      >>> CC <<<
@    Number of closed shell electrons          36
@    Number of electrons in active shells       0
@    Total charge of the molecule               0

@    Spin multiplicity and 2 M_S                1         0
     Total number of symmetries                 4
@    Reference state symmetry                   1

     Orbital specifications
     ======================
     Abelian symmetry species          All |    1    2    3    4
                                       --- |  ---  ---  ---  ---
     Total number of orbitals           29 |   15    6    6    2
     Number of basis functions          29 |   15    6    6    2

      ** Automatic occupation of RHF orbitals **

      -- Initial occupation of symmetries is determined from extended Huckel guess.           
      -- Initial occupation of symmetries is :
@    Occupied SCF orbitals              18 |    9    4    4    1

     Maximum number of Fock   iterations      0
     Maximum number of DIIS   iterations     60
     Maximum number of QC-SCF iterations     60
     Threshold for SCF convergence     1.00D-10


 Changes of defaults for CC:
 ---------------------------


 -Implicit frozen core calculation
  


 >>>>> DIIS optimization of Hartree-Fock <<<<<

 C1-DIIS algorithm; max error vectors =   10

 Automatic occupation of symmetries with  36 electrons.

 Iter     Total energy    Error norm  Delta(E)    SCF occupation
 -----------------------------------------------------------------------------
     (Precalculated two-electron integrals are transformed to P-supermatrix elements.
      Threshold for discarding integrals :  1.00D-15 )
@  1  -2572.77982288       6.25D-01  -2.57D+03     9   4   4   1
      Virial theorem: -V/T =      2.000384
@      MULPOP Br     -0.01; H       0.01; 
 -----------------------------------------------------------------------------
@  2  -2572.81297388       1.55D-01  -3.32D-02     9   4   4   1
      Virial theorem: -V/T =      1.999894
@      MULPOP Br     -0.09; H       0.09; 
 -----------------------------------------------------------------------------
@  3  -2572.81470546       6.00D-02  -1.73D-03     9   4   4   1
      Virial theorem: -V/T =      2.000166
@      MULPOP Br     -0.12; H       0.12; 
 -----------------------------------------------------------------------------
@  4  -2572.81491137       1.19D-02  -2.06D-04     9   4   4   1
      Virial theorem: -V/T =      2.000079
@      MULPOP Br     -0.13; H       0.13; 
 -----------------------------------------------------------------------------
@  5  -2572.81493109       1.26D-03  -1.97D-05     9   4   4   1
      Virial theorem: -V/T =      2.000089
@      MULPOP Br     -0.14; H       0.14; 
 -----------------------------------------------------------------------------
@  6  -2572.81493130       9.23D-05  -2.13D-07     9   4   4   1
      Virial theorem: -V/T =      2.000089
@      MULPOP Br     -0.14; H       0.14; 
 -----------------------------------------------------------------------------
@  7  -2572.81493130       1.11D-05  -9.17D-10     9   4   4   1
      Virial theorem: -V/T =      2.000089
@      MULPOP Br     -0.14; H       0.14; 
 -----------------------------------------------------------------------------
@  8  -2572.81493130       1.15D-06  -1.36D-11     9   4   4   1
      Virial theorem: -V/T =      2.000089
@      MULPOP Br     -0.14; H       0.14; 
 -----------------------------------------------------------------------------
@  9  -2572.81493130       1.35D-07  -4.55D-13     9   4   4   1
      Virial theorem: -V/T =      2.000089
@      MULPOP Br     -0.14; H       0.14; 
 -----------------------------------------------------------------------------
@ 10  -2572.81493130       1.57D-08   9.09D-13     9   4   4   1
      Virial theorem: -V/T =      2.000089
@      MULPOP Br     -0.14; H       0.14; 
 -----------------------------------------------------------------------------
@ 11  -2572.81493130       8.33D-10  -9.09D-13     9   4   4   1
      Virial theorem: -V/T =      2.000089
@      MULPOP Br     -0.14; H       0.14; 
 -----------------------------------------------------------------------------
@ 12  -2572.81493130       6.18D-11   0.00D+00     9   4   4   1

@ *** DIIS converged in  12 iterations !
@     Converged SCF energy, gradient:  -2572.814931299231    6.18D-11
    - total time used in SIRFCK :              0.00 seconds


 *** SCF orbital energy analysis ***

 Only the five lowest virtual orbital energies printed in each symmetry.

 Number of electrons :   36
 Orbital occupations :    9    4    4    1

 Sym       Hartree-Fock orbital energies

  1   -490.02577204   -65.15816959   -58.52356518    -9.84056447    -7.45715808
        -3.19883610    -3.18362890    -1.03499184    -0.57625380     0.12693732
         0.50195331     0.56321897     0.90880984     2.96296633

  2    -58.52178941    -7.44690563    -3.19430657    -0.43201814     0.81881890
         2.94816507

  3    -58.52178941    -7.44690563    -3.19430657    -0.43201814     0.81881890
         2.94816507

  4     -3.18362890     2.96296633

    E(LUMO) :     0.12693732 au (symmetry 1)
  - E(HOMO) :    -0.43201814 au (symmetry 3)
  ------------------------------------------
    gap     :     0.55895546 au

 >>> Writing SIRIFC interface file <<<

 >>>> CPU and wall time for SCF :       0.007       0.008


                       .-----------------------------------.
                       | >>> Final results from SIRIUS <<< |
                       `-----------------------------------'


@    Spin multiplicity:           1
@    Spatial symmetry:            1
@    Total charge of molecule:    0

@    Final HF energy:           -2572.814931299231                 
@    Nuclear repulsion:            13.098446757426
@    Electronic energy:         -2585.913378056657

@    Final gradient norm:           0.000000000062

 
     Date and time (Linux)  : Sun Sep  8 21:16:21 2013
     Host name              : lpqlx131.ups-tlse.fr                    

 (Only coefficients >0.0100 are printed.)

 Molecular orbitals for symmetry species  1
 ------------------------------------------

    Orbital         5        6        7        8        9       10       11
   1 Br  :1s    -0.0012   0.0004   0.0000   0.0439   0.0144   0.0124   0.0313
   2 Br  :1s     0.0045  -0.0013  -0.0000  -0.1225  -0.0392  -0.0328  -0.0756
   3 Br  :1s    -0.0103   0.0045   0.0000   0.5888   0.1964   0.1730   0.4691
   4 Br  :1s     0.0022  -0.0093  -0.0000  -0.7858  -0.2597  -0.2183  -1.8133
   5 Br  :1s    -0.0016   0.0123   0.0000  -0.3107  -0.2355  -0.7798   1.9485
   6 Br  :2pz   -0.4418  -0.0025  -0.0000  -0.0171   0.0910  -0.0632   0.0207
   7 Br  :2pz    1.0788   0.0067   0.0000   0.0520  -0.2802   0.1953  -0.0640
   8 Br  :2pz    0.0148  -0.0042  -0.0000  -0.0754   0.4220  -0.2570   0.0516
   9 Br  :2pz   -0.0016   0.0099   0.0000  -0.0376   0.3280  -0.9998   0.4770
  10 Br  :3d0    0.0039  -0.8473  -0.0000   0.0164  -0.0346  -0.0406   0.0627
  11 Br  :3d2+   0.0000  -0.0000   0.8489   0.0000   0.0000   0.0000  -0.0000
  12 Br  :3d0    0.0016  -0.2723  -0.0000  -0.0062   0.0183   0.0142  -0.0440
  13 Br  :3d2+   0.0000  -0.0000   0.2709  -0.0000  -0.0000  -0.0000  -0.0000
  14 H   :1s     0.0003  -0.0155  -0.0000  -0.1877   0.4004   0.2574  -0.7528
  15 H   :1s     0.0008  -0.0042  -0.0000  -0.0024   0.1570   1.4773   0.0105

 Molecular orbitals for symmetry species  2
 ------------------------------------------

    Orbital         1        2        3        4        5        6
   1 Br  :2px   -0.9905   0.4421   0.0019   0.1138  -0.1483   0.0013
   2 Br  :2px   -0.0243  -1.0799  -0.0051  -0.3516   0.4821  -0.0045
   3 Br  :2px    0.0052  -0.0126   0.0021   0.5312  -1.3771   0.0119
   4 Br  :2px   -0.0019   0.0004  -0.0005   0.6238   1.1869  -0.0053
   5 Br  :3d1+  -0.0001  -0.0030   0.8481  -0.0043   0.0059   0.7291
   6 Br  :3d1+   0.0000  -0.0015   0.2720   0.0046  -0.0071  -1.0849

 Molecular orbitals for symmetry species  3
 ------------------------------------------

    Orbital         1        2        3        4        5        6
   1 Br  :2py   -0.9905   0.4421   0.0019   0.1138  -0.1483   0.0013
   2 Br  :2py   -0.0243  -1.0799  -0.0051  -0.3516   0.4821  -0.0045
   3 Br  :2py    0.0052  -0.0126   0.0021   0.5312  -1.3771   0.0119
   4 Br  :2py   -0.0019   0.0004  -0.0005   0.6238   1.1869  -0.0053
   5 Br  :3d1-  -0.0001  -0.0030   0.8481  -0.0043   0.0059   0.7291
   6 Br  :3d1-   0.0000  -0.0015   0.2720   0.0046  -0.0071  -1.0849

 Molecular orbitals for symmetry species  4
 ------------------------------------------

    Orbital         1        2
   1 Br  :3d2-   0.8489  -0.7282
   2 Br  :3d2-   0.2709   1.0852



 >>>> Total CPU  time used in SIRIUS :      0.01 seconds
 >>>> Total wall time used in SIRIUS :      0.01 seconds

 
     Date and time (Linux)  : Sun Sep  8 21:16:21 2013
     Host name              : lpqlx131.ups-tlse.fr                    


                     .---------------------------------------.
                     | End of Wave Function Section (SIRIUS) |
                     `---------------------------------------'



                    .------------------------------------------.
                    | Starting in Coupled Cluster Section (CC) |
                    `------------------------------------------'

  

 *******************************************************************************
 *******************************************************************************
 *                                                                             *
 *                                                                             *
 *                    START OF COUPLED CLUSTER CALCULATION                     *
 *                                                                             *
 *                                                                             *
 *******************************************************************************
 *******************************************************************************



 CCR12 ANSATZ =   0

 CCR12 APPROX =   0

   

 *******************************************************************
 *                                                                 *
 *<<<<<<<<<<                                             >>>>>>>>>>*
 *<<<<<<<<<< OUTPUT FROM COUPLED CLUSTER ENERGY PROGRAM  >>>>>>>>>>*
 *<<<<<<<<<<                                             >>>>>>>>>>*
 *                                                                 *
 *******************************************************************


             The Direct Coupled Cluster Energy Program
             -----------------------------------------


          Number of t1 amplitudes                 :        33
          Number of t2 amplitudes                 :      1332
          Total number of amplitudes in ccsd      :      1365

 Iter.  1: Coupled cluster MP2   energy :   -2572.9773025741883430
     Conventional correlation energy:    -0.1623712749569677

       Iteration no.:  1
       -----------------

       Time used in   RHS - TOTAL  :       0.02 seconds
       Norm^2 of omega1 after ccvec:        0.2931886554D-02
       Norm^2 of omega2 after ccvec:        0.5762005749D-02
 Iter.  1: Coupled cluster CCSD  energy :   -2572.9772273415410382
     Conventional correlation energy:    -0.1622960423096629

       Iteration no.:  2
       -----------------

       Time used in   RHS - TOTAL  :       0.02 seconds
       Norm^2 of omega1 after ccvec:        0.5698992870D-04
       Norm^2 of omega2 after ccvec:        0.4388317302D-03
 Iter.  2: Coupled cluster CCSD  energy :   -2572.9821418286069274
     Conventional correlation energy:    -0.1672105293755521

       Iteration no.:  3
       -----------------

       Time used in   RHS - TOTAL  :       0.02 seconds
       Norm^2 of omega1 after ccvec:        0.1702896757D-04
       Norm^2 of omega2 after ccvec:        0.3263425761D-04
 Iter.  3: Coupled cluster CCSD  energy :   -2572.9818134742822622
     Conventional correlation energy:    -0.1668821750508869

       Iteration no.:  4
       -----------------

       Time used in   RHS - TOTAL  :       0.02 seconds
       Norm^2 of omega1 after ccvec:        0.1951097580D-06
       Norm^2 of omega2 after ccvec:        0.8104479366D-06
 Iter.  4: Coupled cluster CCSD  energy :   -2572.9818002194738256
     Conventional correlation energy:    -0.1668689202424503

       Iteration no.:  5
       -----------------

       Time used in   RHS - TOTAL  :       0.02 seconds
       Norm^2 of omega1 after ccvec:        0.3394826371D-08
       Norm^2 of omega2 after ccvec:        0.1937619385D-07
 Iter.  5: Coupled cluster CCSD  energy :   -2572.9818049666955631
     Conventional correlation energy:    -0.1668736674641877

       Iteration no.:  6
       -----------------

       Time used in   RHS - TOTAL  :       0.02 seconds
       Norm^2 of omega1 after ccvec:        0.1788267232D-09
       Norm^2 of omega2 after ccvec:        0.7481781043D-09
 Iter.  6: Coupled cluster CCSD  energy :   -2572.9818038985990825
     Conventional correlation energy:    -0.1668725993677072

       Iteration no.:  7
       -----------------

       Time used in   RHS - TOTAL  :       0.02 seconds
       Norm^2 of omega1 after ccvec:        0.8479990323D-11
       Norm^2 of omega2 after ccvec:        0.2572418145D-10
 Iter.  7: Coupled cluster CCSD  energy :   -2572.9818039589322325
     Conventional correlation energy:    -0.1668726597008572

       Iteration no.:  8
       -----------------

       Time used in   RHS - TOTAL  :       0.02 seconds
       Norm^2 of omega1 after ccvec:        0.3197290182D-12
       Norm^2 of omega2 after ccvec:        0.1046181969D-11
 Iter.  8: Coupled cluster CCSD  energy :   -2572.9818039566662264
     Conventional correlation energy:    -0.1668726574348511

       Iteration no.:  9
       -----------------

       Time used in   RHS - TOTAL  :       0.02 seconds
       Norm^2 of omega1 after ccvec:        0.1304057286D-13
       Norm^2 of omega2 after ccvec:        0.5778432724D-13
 Iter.  9: Coupled cluster CCSD  energy :   -2572.9818039528272493
     Conventional correlation energy:    -0.1668726535958740

       Iteration no.: 10
       -----------------

       Time used in   RHS - TOTAL  :       0.02 seconds
       Norm^2 of omega1 after ccvec:        0.1604643292D-14
       Norm^2 of omega2 after ccvec:        0.5410953508D-14
 Iter. 10: Coupled cluster CCSD  energy :   -2572.9818039502970350
     Conventional correlation energy:    -0.1668726510656597

       Iteration no.: 11
       -----------------

       Time used in   RHS - TOTAL  :       0.02 seconds
       Norm^2 of omega1 after ccvec:        0.1188080463D-15
       Norm^2 of omega2 after ccvec:        0.3772108495D-15
 Iter. 11: Coupled cluster CCSD  energy :   -2572.9818039496381061
     Conventional correlation energy:    -0.1668726504067308

       Iteration no.: 12
       -----------------

       Time used in   RHS - TOTAL  :       0.02 seconds
       Norm^2 of omega1 after ccvec:        0.2813103695D-17
       Norm^2 of omega2 after ccvec:        0.1489023100D-16
 Iter. 12: Coupled cluster CCSD  energy :   -2572.9818039496644815
     Conventional correlation energy:    -0.1668726504331062

 CCSD  energy converged to within   0.10D-09 is        -2572.981803949664
 Final 2-norm of the CC vector function:  4.20753309D-09


                    +------------------------------------------+
                    ! Largest amplitudes in converged solution !
                    +------------------------------------------+



          CC_PRAM:Overall Contribution of the Different Components
          --------------------------------------------------------



          Single Excitation Contribution :               0.7748 %

          Double Excitation Contribution :              99.2252 %

          ||T1||/||T2||                  :               0.0884

          Tau1 diagnostic                :               0.0033

          Norm of Total Amplitude Vector :               0.1574


 +=============================================================================+
 | symmetry|  orbital index  |   Excitation Numbers             |   Amplitude  |
 |  Index  |   a   b   i   j |      NAI      NBJ |     NAIBJ    |              |
 +=============================================================================+
 | 1   1   |   6       1     |        6          |              |   -0.003350  |
 | 1   1   |   5       2     |       11          |              |   -0.003471  |
 | 1   1   |   1       3     |       13          |              |    0.005372  |
 | 1   1   |   4       3     |       16          |              |   -0.002517  |
 | 1   1   |   1       4     |       19          |              |    0.005590  |
 | 1   1   |   2       4     |       20          |              |   -0.005879  |
 | 1   1   |   3       4     |       21          |              |    0.003780  |
 | 2   2   |   2       1     |       26          |              |   -0.003494  |
 | 3   3   |   2       1     |       30          |              |   -0.003494  |
 | 4   4   |   1       1     |       33          |              |    0.003471  |
 +-----------------------------------------------------------------------------+
 | 1 1 1 1 |   1   1   4   4 |       19       19 |          190 |   -0.079523  |
 | 1 1 1 1 |   2   1   4   4 |       20       19 |          209 |    0.028096  |
 | 1 1 1 1 |   3   1   4   4 |       21       19 |          229 |   -0.028917  |
 | 1 1 1 1 |   4   1   4   4 |       22       19 |          250 |    0.025694  |
 | 1 1 1 1 |   3   3   4   4 |       21       21 |          231 |   -0.033379  |
 | 2 2 2 2 |   1   1   2   2 |       27       27 |          378 |   -0.033927  |
 | 3 3 3 3 |   1   1   2   2 |       31       31 |          496 |   -0.033927  |
 +=============================================================================+


          Norm of Printed Amplitude Vector :             0.1105

          Printed all single excitations greater than 0.002201

          Printed all double excitations greater than 0.024903





             +-------------------------------------------------------+
             ! Final results from the Coupled Cluster energy program !
             +-------------------------------------------------------+



            Total SCF   energy:                 -2572.8149312992

            Total MP2   energy:                 -2572.9773025742

            Total CCSD  energy:                 -2572.9818039497

 *******************************************************************

 Ground state energy is target 

 Ecorr =                  -2572.98180394966448147898

 *******************************************************************


 CCR12 ANSATZ =   0

 CCR12 APPROX =   0

   

 *******************************************************************
 *                                                                 *
 *<<<<<<<<<<                                             >>>>>>>>>>*
 *<<<<<<<<<< OUTPUT FROM COUPLED CLUSTER ENERGY PROGRAM  >>>>>>>>>>*
 *<<<<<<<<<<                                             >>>>>>>>>>*
 *                                                                 *
 *******************************************************************


             The Direct Coupled Cluster Energy Program
             -----------------------------------------


          Number of t1 amplitudes                 :        33
          Number of t2 amplitudes                 :      1332
          Total number of amplitudes in ccsd      :      1365

 Iter.  1: Coupled cluster RSTAR energy :   -2572.9818039496644815
     Conventional correlation energy:    -0.1668726504331062

       Iteration no.:  1
       -----------------

       Time used in   RHS - TOTAL  :       0.02 seconds
       Norm^2 of omega1 after ccvec:        0.4465492082D-19
       Norm^2 of omega2 after ccvec:        0.1939058200D-18
 Iter.  1: Coupled cluster CCSD  energy :   -2572.9818039496844904
     Conventional correlation energy:    -0.1668726504531151

 CCSD  energy converged to within   0.10D-09 is        -2572.981803949684
 Final 2-norm of the CC vector function:  4.88426802D-10


                    +------------------------------------------+
                    ! Largest amplitudes in converged solution !
                    +------------------------------------------+



          CC_PRAM:Overall Contribution of the Different Components
          --------------------------------------------------------



          Single Excitation Contribution :               0.7748 %

          Double Excitation Contribution :              99.2252 %

          ||T1||/||T2||                  :               0.0884

          Tau1 diagnostic                :               0.0033

          Norm of Total Amplitude Vector :               0.1574


 +=============================================================================+
 | symmetry|  orbital index  |   Excitation Numbers             |   Amplitude  |
 |  Index  |   a   b   i   j |      NAI      NBJ |     NAIBJ    |              |
 +=============================================================================+
 | 1   1   |   6       1     |        6          |              |   -0.003350  |
 | 1   1   |   5       2     |       11          |              |   -0.003471  |
 | 1   1   |   1       3     |       13          |              |    0.005372  |
 | 1   1   |   4       3     |       16          |              |   -0.002517  |
 | 1   1   |   1       4     |       19          |              |    0.005590  |
 | 1   1   |   2       4     |       20          |              |   -0.005879  |
 | 1   1   |   3       4     |       21          |              |    0.003780  |
 | 2   2   |   2       1     |       26          |              |   -0.003494  |
 | 3   3   |   2       1     |       30          |              |   -0.003494  |
 | 4   4   |   1       1     |       33          |              |    0.003471  |
 +-----------------------------------------------------------------------------+
 | 1 1 1 1 |   1   1   4   4 |       19       19 |          190 |   -0.079523  |
 | 1 1 1 1 |   2   1   4   4 |       20       19 |          209 |    0.028096  |
 | 1 1 1 1 |   3   1   4   4 |       21       19 |          229 |   -0.028917  |
 | 1 1 1 1 |   4   1   4   4 |       22       19 |          250 |    0.025694  |
 | 1 1 1 1 |   3   3   4   4 |       21       21 |          231 |   -0.033379  |
 | 2 2 2 2 |   1   1   2   2 |       27       27 |          378 |   -0.033927  |
 | 3 3 3 3 |   1   1   2   2 |       31       31 |          496 |   -0.033927  |
 +=============================================================================+


          Norm of Printed Amplitude Vector :             0.1105

          Printed all single excitations greater than 0.002201

          Printed all double excitations greater than 0.024903
       Time used in   RHS - TOTAL  :       0.04 seconds





             +-------------------------------------------------------+
             ! Final results from the Coupled Cluster energy program !
             +-------------------------------------------------------+



            Total SCF   energy:                 -2572.8149312992

            Total RSTAR energy:                 -2572.9818039497

            Total CCSD  energy:                 -2572.9818039497


                     Perturbative triples corrections
                     --------------------------------

            The E4 doubles and triples:            -0.0023071376
            The E5 singles and triples:             0.0001447092

            Total energy CCSD(T):               -2572.9839663780

 *******************************************************************

 Ground state energy is target 

 Ecorr =                  -2572.98396637803443809389

 *******************************************************************
  

 *******************************************************************************
 *******************************************************************************
 *                                                                             *
 *                                                                             *
 *                   SUMMARY OF COUPLED CLUSTER CALCULATION                    *
 *                                                                             *
 *                                                                             *
 *******************************************************************************
 *******************************************************************************

                                                                                
                                                                                
            Total SCF   energy:                 -2572.8149312992                
            Total MP2   energy:                 -2572.9773025742                
            Total CCSD  energy:                 -2572.9818039497                
                                                                                
                                                                                
            Total SCF   energy:                 -2572.8149312992                
            Total RSTAR energy:                 -2572.9818039497                
            Total CCSD  energy:                 -2572.9818039497                
                                                                                
                                                                                
                     Perturbative triples corrections                           
                     --------------------------------                           
                                                                                
            The E4 doubles and triples:            -0.0023071376                
            The E5 singles and triples:             0.0001447092                
                                                                                
            Total energy CCSD(T):               -2572.9839663780                
  

 *******************************************************************************
 *******************************************************************************
 *                                                                             *
 *                                                                             *
 *                      END OF COUPLED CLUSTER CALCULATION                     *
 *                                                                             *
 *                                                                             *
 *******************************************************************************
 *******************************************************************************


 >>>> CPU and wall time for CC :       0.281       0.287

 
     Date and time (Linux)  : Sun Sep  8 21:16:21 2013
     Host name              : lpqlx131.ups-tlse.fr                    


                      .-------------------------------------.
                      | End of Coupled Cluster Section (CC) |
                      `-------------------------------------'

 >>>> Total CPU  time used in DALTON:   0.44 seconds
 >>>> Total wall time used in DALTON:   0.45 seconds

 
     Date and time (Linux)  : Sun Sep  8 21:16:21 2013
     Host name              : lpqlx131.ups-tlse.fr                    
