

     ************************************************************************
     *************** Dalton - An Electronic Structure Program ***************
     ************************************************************************

    This is output from DALTON release Dalton2017.alpha (2017)
         ( Web site: http://daltonprogram.org )

   ----------------------------------------------------------------------------

    NOTE:
     
    Dalton is an experimental code for the evaluation of molecular
    properties using (MC)SCF, DFT, CI, and CC wave functions.
    The authors accept no responsibility for the performance of
    the code or for the correctness of the results.
     
    The code (in whole or part) is provided under a licence and
    is not to be reproduced for further distribution without
    the written permission of the authors or their representatives.
     
    See the home page "http://daltonprogram.org" for further information.
     
    If results obtained with this code are published,
    the appropriate citations would be both of:
     
       K. Aidas, C. Angeli, K. L. Bak, V. Bakken, R. Bast,
       L. Boman, O. Christiansen, R. Cimiraglia, S. Coriani,
       P. Dahle, E. K. Dalskov, U. Ekstroem,
       T. Enevoldsen, J. J. Eriksen, P. Ettenhuber, B. Fernandez,
       L. Ferrighi, H. Fliegl, L. Frediani, K. Hald, A. Halkier,
       C. Haettig, H. Heiberg, T. Helgaker, A. C. Hennum,
       H. Hettema, E. Hjertenaes, S. Hoest, I.-M. Hoeyvik,
       M. F. Iozzi, B. Jansik, H. J. Aa. Jensen, D. Jonsson,
       P. Joergensen, J. Kauczor, S. Kirpekar,
       T. Kjaergaard, W. Klopper, S. Knecht, R. Kobayashi, H. Koch,
       J. Kongsted, A. Krapp, K. Kristensen, A. Ligabue,
       O. B. Lutnaes, J. I. Melo, K. V. Mikkelsen, R. H. Myhre,
       C. Neiss, C. B. Nielsen, P. Norman, J. Olsen,
       J. M. H. Olsen, A. Osted, M. J. Packer, F. Pawlowski,
       T. B. Pedersen, P. F. Provasi, S. Reine, Z. Rinkevicius,
       T. A. Ruden, K. Ruud, V. Rybkin, P. Salek, C. C. M. Samson,
       A. Sanchez de Meras, T. Saue, S. P. A. Sauer,
       B. Schimmelpfennig, K. Sneskov, A. H. Steindal,
       K. O. Sylvester-Hvid, P. R. Taylor, A. M. Teale,
       E. I. Tellgren, D. P. Tew, A. J. Thorvaldsen, L. Thoegersen,
       O. Vahtras, M. A. Watson, D. J. D. Wilson, M. Ziolkowski
       and H. Agren,
       "The Dalton quantum chemistry program system",
       WIREs Comput. Mol. Sci. 2014, 4:269–284 (doi: 10.1002/wcms.1172)
     
    and
     
       Dalton, a Molecular Electronic Structure Program,
       Release Dalton2017.alpha (2017), see http://daltonprogram.org
   ----------------------------------------------------------------------------

    Authors in alphabetical order (major contribution(s) in parenthesis):

  Kestutis Aidas,           Vilnius University,           Lithuania   (QM/MM)
  Celestino Angeli,         University of Ferrara,        Italy       (NEVPT2)
  Keld L. Bak,              UNI-C,                        Denmark     (AOSOPPA, non-adiabatic coupling, magnetic properties)
  Vebjoern Bakken,          University of Oslo,           Norway      (DALTON; geometry optimizer, symmetry detection)
  Radovan Bast,             UiT The Arctic U. of Norway,  Norway      (DALTON installation and execution frameworks)
  Pablo Baudin,             University of Valencia,       Spain       (Cholesky excitation energies)
  Linus Boman,              NTNU,                         Norway      (Cholesky decomposition and subsystems)
  Ove Christiansen,         Aarhus University,            Denmark     (CC module)
  Renzo Cimiraglia,         University of Ferrara,        Italy       (NEVPT2)
  Sonia Coriani,            University of Trieste,        Italy       (CC module, MCD in RESPONS)
  Janusz Cukras,            University of Trieste,        Italy       (MChD in RESPONS)
  Paal Dahle,               University of Oslo,           Norway      (Parallelization)
  Erik K. Dalskov,          UNI-C,                        Denmark     (SOPPA)
  Thomas Enevoldsen,        Univ. of Southern Denmark,    Denmark     (SOPPA)
  Janus J. Eriksen,         Aarhus University,            Denmark     (Polarizable embedding model, TDA)
  Rasmus Faber,             University of Copenhagen,     Denmark     (Vib.avg. NMR with SOPPA, parallel AO-SOPPA)
  Berta Fernandez,          U. of Santiago de Compostela, Spain       (doublet spin, ESR in RESPONS)
  Lara Ferrighi,            Aarhus University,            Denmark     (PCM Cubic response)
  Heike Fliegl,             University of Oslo,           Norway      (CCSD(R12))
  Luca Frediani,            UiT The Arctic U. of Norway,  Norway      (PCM)
  Bin Gao,                  UiT The Arctic U. of Norway,  Norway      (Gen1Int library)
  Christof Haettig,         Ruhr-University Bochum,       Germany     (CC module)
  Kasper Hald,              Aarhus University,            Denmark     (CC module)
  Asger Halkier,            Aarhus University,            Denmark     (CC module)
  Frederik Beyer Hansen,    University of Copenhagen,     Denmark     (Parallel AO-SOPPA)
  Erik D. Hedegaard,        Univ. of Southern Denmark,    Denmark     (Polarizable embedding model, QM/MM)
  Hanne Heiberg,            University of Oslo,           Norway      (geometry analysis, selected one-electron integrals)
  Trygve Helgaker,          University of Oslo,           Norway      (DALTON; ABACUS, ERI, DFT modules, London, and much more)
  Alf Christian Hennum,     University of Oslo,           Norway      (Parity violation)
  Hinne Hettema,            University of Auckland,       New Zealand (quadratic response in RESPONS; SIRIUS supersymmetry)
  Eirik Hjertenaes,         NTNU,                         Norway      (Cholesky decomposition)
  Pi A. B. Haase,           University of Copenhagen,     Denmark     (Triplet AO-SOPPA)
  Maria Francesca Iozzi,    University of Oslo,           Norway      (RPA)
  Brano Jansik              Technical Univ. of Ostrava    Czech Rep.  (DFT cubic response)
  Hans Joergen Aa. Jensen,  Univ. of Southern Denmark,    Denmark     (DALTON; SIRIUS, RESPONS, ABACUS modules, London, and much more)
  Dan Jonsson,              UiT The Arctic U. of Norway,  Norway      (cubic response in RESPONS module)
  Poul Joergensen,          Aarhus University,            Denmark     (RESPONS, ABACUS, and CC modules)
  Maciej Kaminski,          University of Warsaw,         Poland      (CPPh in RESPONS)
  Joanna Kauczor,           Linkoeping University,        Sweden      (Complex polarization propagator (CPP) module)
  Sheela Kirpekar,          Univ. of Southern Denmark,    Denmark     (Mass-velocity & Darwin integrals)
  Wim Klopper,              KIT Karlsruhe,                Germany     (R12 code in CC, SIRIUS, and ABACUS modules)
  Stefan Knecht,            ETH Zurich,                   Switzerland (Parallel CI and MCSCF)
  Rika Kobayashi,           Australian National Univ.,    Australia   (DIIS in CC, London in MCSCF)
  Henrik Koch,              NTNU,                         Norway      (CC module, Cholesky decomposition)
  Jacob Kongsted,           Univ. of Southern Denmark,    Denmark     (Polarizable embedding model, QM/MM)
  Andrea Ligabue,           University of Modena,         Italy       (CTOCD, AOSOPPA)
  Nanna H. List             Univ. of Southern Denmark,    Denmark     (Polarizable embedding model)
  Ola B. Lutnaes,           University of Oslo,           Norway      (DFT Hessian)
  Juan I. Melo,             University of Buenos Aires,   Argentina   (LRESC, Relativistic Effects on NMR Shieldings)
  Kurt V. Mikkelsen,        University of Copenhagen,     Denmark     (MC-SCRF and QM/MM)
  Rolf H. Myhre,            NTNU,                         Norway      (Cholesky, subsystems and ECC2)
  Christian Neiss,          Univ. Erlangen-Nuernberg,     Germany     (CCSD(R12))
  Christian B. Nielsen,     University of Copenhagen,     Denmark     (QM/MM)
  Patrick Norman,           Linkoeping University,        Sweden      (Cubic response and complex frequency response in RESPONS)
  Jeppe Olsen,              Aarhus University,            Denmark     (SIRIUS CI/density modules)
  Jogvan Magnus H. Olsen,   Univ. of Southern Denmark,    Denmark     (Polarizable embedding model, QM/MM)
  Anders Osted,             Copenhagen University,        Denmark     (QM/MM)
  Martin J. Packer,         University of Sheffield,      UK          (SOPPA)
  Filip Pawlowski,          Kazimierz Wielki University,  Poland      (CC3)
  Morten N. Pedersen,       Univ. of Southern Denmark,    Denmark     (Polarizable embedding model)
  Thomas B. Pedersen,       University of Oslo,           Norway      (Cholesky decomposition)
  Patricio F. Provasi,      University of Northeastern,   Argentina   (Analysis of coupling constants in localized orbitals)
  Zilvinas Rinkevicius,     KTH Stockholm,                Sweden      (open-shell DFT, ESR)
  Elias Rudberg,            KTH Stockholm,                Sweden      (DFT grid and basis info)
  Torgeir A. Ruden,         University of Oslo,           Norway      (Numerical derivatives in ABACUS)
  Kenneth Ruud,             UiT The Arctic U. of Norway,  Norway      (DALTON; ABACUS magnetic properties and much more)
  Pawel Salek,              KTH Stockholm,                Sweden      (DALTON; DFT code)
  Claire C. M. Samson       University of Karlsruhe       Germany     (Boys localization, r12 integrals in ERI)
  Alfredo Sanchez de Meras, University of Valencia,       Spain       (CC module, Cholesky decomposition)
  Trond Saue,               Paul Sabatier University,     France      (direct Fock matrix construction)
  Stephan P. A. Sauer,      University of Copenhagen,     Denmark     (SOPPA(CCSD), SOPPA prop., AOSOPPA, vibrational g-factors)
  Bernd Schimmelpfennig,    Forschungszentrum Karlsruhe,  Germany     (AMFI module)
  Kristian Sneskov,         Aarhus University,            Denmark     (Polarizable embedding model, QM/MM)
  Arnfinn H. Steindal,      UiT The Arctic U. of Norway,  Norway      (parallel QM/MM, Polarizable embedding model)
  Casper Steinmann,         Univ. of Southern Denmark,    Denmark     (QFIT, Polarizable embedding model)
  K. O. Sylvester-Hvid,     University of Copenhagen,     Denmark     (MC-SCRF)
  Peter R. Taylor,          VLSCI/Univ. of Melbourne,     Australia   (Symmetry handling ABACUS, integral transformation)
  Andrew M. Teale,          University of Nottingham,     England     (DFT-AC, DFT-D)
  David P. Tew,             University of Bristol,        England     (CCSD(R12))
  Olav Vahtras,             KTH Stockholm,                Sweden      (triplet response, spin-orbit, ESR, TDDFT, open-shell DFT)
  David J. Wilson,          La Trobe University,          Australia   (DFT Hessian and DFT magnetizabilities)
  Hans Agren,               KTH Stockholm,                Sweden      (SIRIUS module, RESPONS, MC-SCRF solvation model)
 --------------------------------------------------------------------------------

     Date and time (Linux)  : Fri Mar 23 14:08:44 2018
     Host name              : foeroyar                                

 * Work memory size             :    64000000 =  488.28 megabytes.

 * Directories for basis set searches:
   1) /home/magnus/Projects/dalton_devel/dalton-foeroyingur/build_test/test/pehf_solvat
   2) /home/magnus/Projects/dalton_devel/dalton-foeroyingur/build_test/basis


Compilation information
-----------------------

 Who compiled             | magnus
 Host                     | foeroyar
 System                   | Linux-4.15.9-300.fc27.x86_64
 CMake generator          | Unix Makefiles
 Processor                | x86_64
 64-bit integers          | OFF
 MPI                      | OFF
 Fortran compiler         | /usr/bin/gfortran
 Fortran compiler version | GNU Fortran (GCC) 7.3.1 20180303 (Red Hat 7.3.1-5)
 C compiler               | /usr/bin/gcc
 C compiler version       | gcc (GCC) 7.3.1 20180303 (Red Hat 7.3.1-5)
 C++ compiler             | /usr/bin/g++
 C++ compiler version     | g++ (GCC) 7.3.1 20180303 (Red Hat 7.3.1-5)
 BLAS                     | /home/magnus/Programs/intel/compilers_and_librarie
                          | s_2018.1.163/linux/mkl/lib/intel64/libmkl_gf_lp64.
                          | so;/home/magnus/Programs/intel/compilers_and_libra
                          | ries_2018.1.163/linux/mkl/lib/intel64/libmkl_seque
                          | ntial.so;/home/magnus/Programs/intel/compilers_and
                          | _libraries_2018.1.163/linux/mkl/lib/intel64/libmkl
                          | _core.so;/usr/lib64/libpthread.so;/usr/lib64/libm.
                          | so
 LAPACK                   | /home/magnus/Programs/intel/compilers_and_librarie
                          | s_2018.1.163/linux/mkl/lib/intel64/libmkl_lapack95
                          | _lp64.a;/home/magnus/Programs/intel/compilers_and_
                          | libraries_2018.1.163/linux/mkl/lib/intel64/libmkl_
                          | gf_lp64.so
 Static linking           | OFF
 Last Git revision        | 2a8051d4a52c96991fedc786e623936e2e7b814d
 Git branch               | pe/develop
 Configuration time       | 2018-03-23 14:06:50.704475


   Content of the .dal input file
 ----------------------------------

**DALTON
.RUN WAVE FUNCTION
.PEQM
*PEQM
.VERBOSE
.SOLVAT
.FIXSOL
.DIIS
**WAVE FUNCTIONS
.HF
**END OF


   Content of the .mol file
 ----------------------------

BASIS
STO-3G
Formaldehyde
------------------------
AtomTypes=3 NoSymmetry Angstrom
Charge=6.0 Atoms=1
C           -1.588367    -.770650     .029109
Charge=8.0 Atoms=1
O           -1.657083     .436069    -.009750
Charge=1.0 Atoms=2
H           -.620668   -1.294822      .054251
H           -2.508043   -1.382001     .040282


       *******************************************************************
       *********** Output from DALTON general input processing ***********
       *******************************************************************

 --------------------------------------------------------------------------------
   Overall default print level:    0
   Print level for DALTON.STAT:    1

    HERMIT 1- and 2-electron integral sections will be executed
    "Old" integral transformation used (limited to max 255 basis functions)
    Wave function sections will be executed (SIRIUS module)
    Environment is modeled using polarizable embedding scheme (PE library)
 --------------------------------------------------------------------------------


   ****************************************************************************
   *************** Output of molecule and basis set information ***************
   ****************************************************************************


    The two title cards from your ".mol" input:
    ------------------------------------------------------------------------
 1: Formaldehyde                                                            
 2: ------------------------                                                
    ------------------------------------------------------------------------

  Coordinates are entered in Angstrom and converted to atomic units.
          - Conversion factor : 1 bohr = 0.52917721 A

  Atomic type no.    1
  --------------------
  Nuclear charge:   6.00000
  Number of symmetry independent centers:    1
  Number of basis sets to read;    2
  Basis set file used for this atomic type with Z =   6 :
     "/home/magnus/Projects/dalton_devel/dalton-foeroyingur/build_test/basis/STO-3G"

  Atomic type no.    2
  --------------------
  Nuclear charge:   8.00000
  Number of symmetry independent centers:    1
  Number of basis sets to read;    2
  Basis set file used for this atomic type with Z =   8 :
     "/home/magnus/Projects/dalton_devel/dalton-foeroyingur/build_test/basis/STO-3G"

  Atomic type no.    3
  --------------------
  Nuclear charge:   1.00000
  Number of symmetry independent centers:    2
  Number of basis sets to read;    2
  Basis set file used for this atomic type with Z =   1 :
     "/home/magnus/Projects/dalton_devel/dalton-foeroyingur/build_test/basis/STO-3G"


                         SYMGRP: Point group information
                         -------------------------------

@    Point group: C1 


                                 Isotopic Masses
                                 ---------------

                           C          12.000000
                           O          15.994915
                           H           1.007825
                           H           1.007825

                       Total mass:    30.010565 amu
                       Natural abundance:  98.633 %

 Center-of-mass coordinates (a.u.):   -3.067740   -0.312997    0.018175


  Atoms and basis sets
  --------------------

  Number of atom types :    3
  Total number of atoms:    4

  Basis set used is "STO-3G" from the basis set library.

  label    atoms   charge   prim   cont     basis
  ----------------------------------------------------------------------
  C           1    6.0000    15     5      [6s3p|2s1p]                                        
  O           1    8.0000    15     5      [6s3p|2s1p]                                        
  H           2    1.0000     3     1      [3s|1s]                                            
  ----------------------------------------------------------------------
  total:      4   16.0000    36    12
  ----------------------------------------------------------------------

  Threshold for neglecting AO integrals:  1.00D-12


  Cartesian Coordinates (a.u.)
  ----------------------------

  Total number of coordinates:   12
  C       :     1  x  -3.0015786160    2  y  -1.4563174382    3  z   0.0550080378
  O       :     4  x  -3.1314330364    5  y   0.8240509816    6  z  -0.0184248297
  H       :     7  x  -1.1728925345    8  y  -2.4468589606    9  z   0.1025195320
  H       :    10  x  -4.7395143797   11  y  -2.6116033945   12  z   0.0761219478


   Interatomic separations (in Angstrom):
   --------------------------------------

            C           O           H           H     
            ------      ------      ------      ------
 C     :    0.000000
 O     :    1.209298    0.000000
 H     :    1.100831    2.018474    0.000000
 H     :    1.104391    2.007988    1.889439    0.000000


  Max    interatomic separation is    2.0185 Angstrom (    3.8144 Bohr)
  between atoms    3 and    2, "H     " and "O     ".

  Min HX interatomic separation is    1.1008 Angstrom (    2.0803 Bohr)

  Min YX interatomic separation is    1.2093 Angstrom (    2.2852 Bohr)


  Bond distances (Angstrom):
  --------------------------

                  atom 1     atom 2       distance
                  ------     ------       --------
  bond distance:  O          C            1.209298
  bond distance:  H          C            1.100831
  bond distance:  H          C            1.104391


  Bond angles (degrees):
  ----------------------

                  atom 1     atom 2     atom 3         angle
                  ------     ------     ------         -----
  bond angle:     O          C          H            121.724
  bond angle:     O          C          H            120.357
  bond angle:     H          C          H            117.919




 Principal moments of inertia (u*A**2) and principal axes
 --------------------------------------------------------

   IA       1.798871         -0.056827    0.997867   -0.032124
   IB      13.009178          0.998345    0.057081    0.007042
   IC      14.808049         -0.008861    0.031671    0.999459


 Rotational constants
 --------------------

@    The molecule is planar.

               A                   B                   C

         280942.3015          38847.8806          34128.6681 MHz
            9.371226            1.295826            1.138410 cm-1


@  Nuclear repulsion energy :   31.249215315972 Hartree

  Reading potential input file for polarizable embedding calculation

    .------------------------------------------------.
    | Information from polarizable embedding library |
    `------------------------------------------------´

      Number of classical sites:      6

      Multipole moments upto 2nd order.

      Dipole-dipole polarizabilities.

      Iterative DIIS solver for induced moments will be used
      with convergence threshold: 1.0E-08

      Continuum solvation in H2O solvent.

      Number of surface points:     272

      Surface area (in Aa**2):     126.455
      Total charge of classical region:   -0.0000
 


                     .---------------------------------------.
                     | Starting in Integral Section (HERMIT) |
                     `---------------------------------------'



 ***************************************************************************************
 ****************** Output from **INTEGRALS input processing (HERMIT) ******************
 ***************************************************************************************


 - Using defaults, no **INTEGRALS input found

 Default print level:        1

 * Nuclear model: Point charge

 Calculation of one- and two-electron Hamiltonian integrals.

 Center of mass  (bohr):     -3.067740315293     -0.312997395263      0.018174673399
 Operator center (bohr):      0.000000000000      0.000000000000      0.000000000000
 Gauge origin    (bohr):      0.000000000000      0.000000000000      0.000000000000
 Dipole origin   (bohr):      0.000000000000      0.000000000000      0.000000000000


     ************************************************************************
     ************************** Output from HERINT **************************
     ************************************************************************



                      Nuclear contribution to dipole moments
                      --------------------------------------

                 au               Debye          C m (/(10**-30)

      x    -48.97334290      -124.47781350      -415.21329231
      y     -7.20395913       -18.31063652       -61.07770905
      z      0.36129107         0.91831024         3.06315324



 Threshold for neglecting two-electron integrals:  1.00D-12
 HERMIT - Number of two-electron integrals written:        2907 ( 94.4% )
 HERMIT - Megabytes written:                              0.034

  Total CPU  time used in HERMIT:   0.03 seconds
  Total wall time used in HERMIT:   0.03 seconds


                        .----------------------------------.
                        | End of Integral Section (HERMIT) |
                        `----------------------------------'



                   .--------------------------------------------.
                   | Starting in Wave Function Section (SIRIUS) |
                   `--------------------------------------------'


 *** Output from Huckel module :

     Using EWMO model:          T
     Using EHT  model:          F
     Number of Huckel orbitals each symmetry:   12

 EWMO - Energy Weighted Maximum Overlap - is a Huckel type method,
        which normally is better than Extended Huckel Theory.
 Reference: Linderberg and Ohrn, Propagators in Quantum Chemistry (Wiley, 1973)

 Huckel EWMO eigenvalues for symmetry :  1
          -20.684762     -11.351957      -1.632119      -1.046130      -0.813248
           -0.702067      -0.605910      -0.491826      -0.321033      -0.161573
           -0.131670      -0.108806

 **********************************************************************
 *SIRIUS* a direct, restricted step, second order MCSCF program       *
 **********************************************************************

 
     Date and time (Linux)  : Fri Mar 23 14:08:44 2018
     Host name              : foeroyar                                

 Title lines from ".mol" input file:
     Formaldehyde                                                            
     ------------------------                                                

 Print level on unit LUPRI =   2 is   0
 Print level on unit LUW4  =   2 is   5

@    Restricted, closed shell Hartree-Fock calculation.

 Initial molecular orbitals are obtained according to
 ".MOSTART EWMO  " input option

@    QM part is embedded in an environment :

@         Model: PE

     Wave function specification
     ============================

     Wave function environment is modeled using the
     polarizable embedding model (PE library).

@    Wave function type        --- PE-HF ---
@    Number of closed shell electrons          16
@    Number of electrons in active shells       0
@    Total charge of the molecule               0

@    Spin multiplicity and 2 M_S                1         0
@    Total number of symmetries                 1 (point group: C1 )
@    Reference state symmetry                   1 (irrep name : A  )

     Orbital specifications
     ======================
@    Abelian symmetry species          All |    1
@                                          |  A  
                                       --- |  ---
@    Occupied SCF orbitals               8 |    8
@    Secondary orbitals                  4 |    4
@    Total number of orbitals           12 |   12
@    Number of basis functions          12 |   12

     Optimization information
     ========================
@    Number of configurations                 1
@    Number of orbital rotations             32
     ------------------------------------------
@    Total number of variables               33

     Maximum number of Fock   iterations      0
     Maximum number of DIIS   iterations     60
     Maximum number of QC-SCF iterations     60
     Threshold for SCF convergence     1.00D-05


 ***********************************************
 ***** DIIS acceleration of SCF iterations *****
 ***********************************************

 C1-DIIS algorithm; max error vectors =    8

 Iter      Total energy     Embedding energy      Error norm     Delta(E)
 -----------------------------------------------------------------------------

Calculating AOSUPINT
     (Precalculated AO two-electron integrals are transformed to P-supermatrix elements.
      Threshold for discarding integrals :  1.00D-12 )
      Induced dipole moments converged in  8 iterations.
      Induced dipole moments converged in  7 iterations.
      Induced dipole moments converged in  8 iterations.
      Induced dipole moments converged in  8 iterations.
      Induced dipole moments converged in  8 iterations.
      Induced dipole moments converged in  8 iterations.
      Induced dipole moments converged in  8 iterations.
      Induced dipole moments converged in  8 iterations.
      Induced dipole moments converged in  8 iterations.
      Induced dipole moments converged in  8 iterations.
      Induced dipole moments converged in  8 iterations.
      Induced dipole moments converged in  8 iterations.
      Induced dipole moments converged in  8 iterations.
      Induced dipole moments converged in  8 iterations.
      Induced dipole moments converged in  8 iterations.
      Induced dipole moments converged in  8 iterations.
      Induced dipole moments converged in  8 iterations.
      Induced dipole moments converged in  8 iterations.
      Induced dipole moments converged in  8 iterations.
      Induced dipole moments converged in  8 iterations.
      Induced dipole moments converged in  8 iterations.
    Induced surface charges converged in 21 iterations.

      Info from polarizable embedding library:
     ------------------------------------------

       Input density no.:   1

                        Total induced dipole moment
                       X              Y              Z
                 -0.29046564     0.47778405     0.23280281

    Sum of induced charges:     -0.00159578

@  1  -112.196606133     -6.818042098077E-02    1.54208D+00   -1.12D+02
      Virial theorem: -V/T =      2.002967
@    MULPOP   C       1.10; O      -0.82; H      -0.14; H      -0.14; 
   1  Level shift: doubly occupied orbital energies shifted by -2.00D-01
 -----------------------------------------------------------------------------
      Induced dipole moments converged in  7 iterations.
      Induced dipole moments converged in  8 iterations.
      Induced dipole moments converged in  8 iterations.
      Induced dipole moments converged in  7 iterations.
      Induced dipole moments converged in  7 iterations.
      Induced dipole moments converged in  7 iterations.
      Induced dipole moments converged in  7 iterations.
      Induced dipole moments converged in  6 iterations.
      Induced dipole moments converged in  4 iterations.
      Induced dipole moments converged in  5 iterations.
      Induced dipole moments converged in  4 iterations.
      Induced dipole moments converged in  5 iterations.
      Induced dipole moments converged in  5 iterations.
      Induced dipole moments converged in  4 iterations.
      Induced dipole moments converged in  4 iterations.
      Induced dipole moments converged in  3 iterations.
      Induced dipole moments converged in  3 iterations.
      Induced dipole moments converged in  3 iterations.
      Induced dipole moments converged in  3 iterations.
      Induced dipole moments converged in  3 iterations.
    Induced surface charges converged in 20 iterations.

      Info from polarizable embedding library:
     ------------------------------------------

       Input density no.:   1

                        Total induced dipole moment
                       X              Y              Z
                 -0.17272159     0.49544440     0.23054992

    Sum of induced charges:     -0.00138306

@  2  -112.385034846     -4.057432386031E-02    4.43016D-01   -1.88D-01
      Virial theorem: -V/T =      2.009993
@    MULPOP   C      -0.13; O      -0.06; H       0.10; H       0.08; 
   2  Level shift: doubly occupied orbital energies shifted by -1.00D-01
 -----------------------------------------------------------------------------
      Induced dipole moments converged in  7 iterations.
      Induced dipole moments converged in  7 iterations.
      Induced dipole moments converged in  7 iterations.
      Induced dipole moments converged in  7 iterations.
      Induced dipole moments converged in  5 iterations.
      Induced dipole moments converged in  6 iterations.
      Induced dipole moments converged in  6 iterations.
      Induced dipole moments converged in  5 iterations.
      Induced dipole moments converged in  4 iterations.
      Induced dipole moments converged in  5 iterations.
      Induced dipole moments converged in  4 iterations.
      Induced dipole moments converged in  4 iterations.
      Induced dipole moments converged in  4 iterations.
      Induced dipole moments converged in  4 iterations.
      Induced dipole moments converged in  3 iterations.
      Induced dipole moments converged in  3 iterations.
      Induced dipole moments converged in  3 iterations.
    Induced surface charges converged in 17 iterations.

      Info from polarizable embedding library:
     ------------------------------------------

       Input density no.:   1

                        Total induced dipole moment
                       X              Y              Z
                 -0.19241089     0.49205881     0.23107265

    Sum of induced charges:     -0.00134123

@  3  -112.396656623     -4.473644768205E-02    6.41756D-02   -1.16D-02
      Virial theorem: -V/T =      2.008501
@    MULPOP   C       0.07; O      -0.23; H       0.09; H       0.07; 
   3  Level shift: doubly occupied orbital energies shifted by -2.50D-02
 -----------------------------------------------------------------------------
      Induced dipole moments converged in  6 iterations.
      Induced dipole moments converged in  6 iterations.
      Induced dipole moments converged in  6 iterations.
      Induced dipole moments converged in  6 iterations.
      Induced dipole moments converged in  6 iterations.
      Induced dipole moments converged in  5 iterations.
      Induced dipole moments converged in  5 iterations.
      Induced dipole moments converged in  4 iterations.
      Induced dipole moments converged in  4 iterations.
      Induced dipole moments converged in  4 iterations.
      Induced dipole moments converged in  4 iterations.
      Induced dipole moments converged in  4 iterations.
      Induced dipole moments converged in  3 iterations.
      Induced dipole moments converged in  3 iterations.
    Induced surface charges converged in 14 iterations.

      Info from polarizable embedding library:
     ------------------------------------------

       Input density no.:   1

                        Total induced dipole moment
                       X              Y              Z
                 -0.19236336     0.49197440     0.23108999

    Sum of induced charges:     -0.00133633

@  4  -112.396977681     -4.482833311650E-02    1.23403D-02   -3.21D-04
      Virial theorem: -V/T =      2.008262
@    MULPOP   C       0.08; O      -0.25; H       0.09; H       0.07; 
 -----------------------------------------------------------------------------
      Induced dipole moments converged in  6 iterations.
      Induced dipole moments converged in  6 iterations.
      Induced dipole moments converged in  6 iterations.
      Induced dipole moments converged in  6 iterations.
      Induced dipole moments converged in  6 iterations.
      Induced dipole moments converged in  5 iterations.
      Induced dipole moments converged in  4 iterations.
      Induced dipole moments converged in  4 iterations.
      Induced dipole moments converged in  4 iterations.
      Induced dipole moments converged in  4 iterations.
      Induced dipole moments converged in  4 iterations.
      Induced dipole moments converged in  3 iterations.
      Induced dipole moments converged in  3 iterations.
      Induced dipole moments converged in  3 iterations.
    Induced surface charges converged in 14 iterations.

      Info from polarizable embedding library:
     ------------------------------------------

       Input density no.:   1

                        Total induced dipole moment
                       X              Y              Z
                 -0.19229672     0.49199904     0.23108171

    Sum of induced charges:     -0.00133882

@  5  -112.396996447     -4.479424145493E-02    3.80991D-03   -1.88D-05
      Virial theorem: -V/T =      2.008256
@    MULPOP   C       0.08; O      -0.25; H       0.09; H       0.07; 
 -----------------------------------------------------------------------------
      Induced dipole moments converged in  6 iterations.
      Induced dipole moments converged in  6 iterations.
      Induced dipole moments converged in  6 iterations.
      Induced dipole moments converged in  6 iterations.
      Induced dipole moments converged in  6 iterations.
      Induced dipole moments converged in  5 iterations.
      Induced dipole moments converged in  4 iterations.
      Induced dipole moments converged in  5 iterations.
      Induced dipole moments converged in  4 iterations.
      Induced dipole moments converged in  4 iterations.
      Induced dipole moments converged in  4 iterations.
      Induced dipole moments converged in  4 iterations.
      Induced dipole moments converged in  3 iterations.
      Induced dipole moments converged in  3 iterations.
    Induced surface charges converged in 14 iterations.

      Info from polarizable embedding library:
     ------------------------------------------

       Input density no.:   1

                        Total induced dipole moment
                       X              Y              Z
                 -0.19220784     0.49203192     0.23107232

    Sum of induced charges:     -0.00133992

@  6  -112.396999403     -4.476679395355E-02    4.94508D-04   -2.96D-06
      Virial theorem: -V/T =      2.008268
@    MULPOP   C       0.08; O      -0.25; H       0.09; H       0.07; 
 -----------------------------------------------------------------------------
      Induced dipole moments converged in  6 iterations.
      Induced dipole moments converged in  6 iterations.
      Induced dipole moments converged in  6 iterations.
      Induced dipole moments converged in  6 iterations.
      Induced dipole moments converged in  6 iterations.
      Induced dipole moments converged in  5 iterations.
      Induced dipole moments converged in  5 iterations.
      Induced dipole moments converged in  5 iterations.
      Induced dipole moments converged in  4 iterations.
      Induced dipole moments converged in  4 iterations.
      Induced dipole moments converged in  4 iterations.
      Induced dipole moments converged in  4 iterations.
      Induced dipole moments converged in  3 iterations.
      Induced dipole moments converged in  3 iterations.
    Induced surface charges converged in 14 iterations.

      Info from polarizable embedding library:
     ------------------------------------------

       Input density no.:   1

                        Total induced dipole moment
                       X              Y              Z
                 -0.19220971     0.49203394     0.23107020

    Sum of induced charges:     -0.00133960

@  7  -112.396999447     -4.476712595125E-02    1.02612D-04   -4.45D-08
      Virial theorem: -V/T =      2.008269
@    MULPOP   C       0.08; O      -0.25; H       0.09; H       0.07; 
 -----------------------------------------------------------------------------
      Induced dipole moments converged in  6 iterations.
      Induced dipole moments converged in  6 iterations.
      Induced dipole moments converged in  6 iterations.
      Induced dipole moments converged in  6 iterations.
      Induced dipole moments converged in  6 iterations.
      Induced dipole moments converged in  5 iterations.
      Induced dipole moments converged in  5 iterations.
      Induced dipole moments converged in  5 iterations.
      Induced dipole moments converged in  4 iterations.
      Induced dipole moments converged in  4 iterations.
      Induced dipole moments converged in  4 iterations.
      Induced dipole moments converged in  4 iterations.
      Induced dipole moments converged in  3 iterations.
      Induced dipole moments converged in  3 iterations.
    Induced surface charges converged in 14 iterations.

      Info from polarizable embedding library:
     ------------------------------------------

       Input density no.:   1

                        Total induced dipole moment
                       X              Y              Z
                 -0.19220898     0.49203425     0.23106911

    Sum of induced charges:     -0.00133960

@  8  -112.396999451     -4.476673090983E-02    5.68407D-05   -3.99D-09
      Virial theorem: -V/T =      2.008269
@    MULPOP   C       0.08; O      -0.25; H       0.09; H       0.07; 
 -----------------------------------------------------------------------------
      Induced dipole moments converged in  6 iterations.
      Induced dipole moments converged in  6 iterations.
      Induced dipole moments converged in  6 iterations.
      Induced dipole moments converged in  6 iterations.
      Induced dipole moments converged in  6 iterations.
      Induced dipole moments converged in  5 iterations.
      Induced dipole moments converged in  5 iterations.
      Induced dipole moments converged in  5 iterations.
      Induced dipole moments converged in  4 iterations.
      Induced dipole moments converged in  4 iterations.
      Induced dipole moments converged in  4 iterations.
      Induced dipole moments converged in  4 iterations.
      Induced dipole moments converged in  3 iterations.
      Induced dipole moments converged in  3 iterations.
    Induced surface charges converged in 14 iterations.

      Info from polarizable embedding library:
     ------------------------------------------

       Input density no.:   1

                        Total induced dipole moment
                       X              Y              Z
                 -0.19220948     0.49203433     0.23106798

    Sum of induced charges:     -0.00133959

@  9  -112.396999453     -4.476680990133E-02    1.62621D-05   -1.98D-09
      Virial theorem: -V/T =      2.008269
@    MULPOP   C       0.08; O      -0.25; H       0.09; H       0.07; 
 -----------------------------------------------------------------------------
      Induced dipole moments converged in  6 iterations.
      Induced dipole moments converged in  6 iterations.
      Induced dipole moments converged in  6 iterations.
      Induced dipole moments converged in  6 iterations.
      Induced dipole moments converged in  6 iterations.
      Induced dipole moments converged in  5 iterations.
      Induced dipole moments converged in  5 iterations.
      Induced dipole moments converged in  5 iterations.
      Induced dipole moments converged in  4 iterations.
      Induced dipole moments converged in  4 iterations.
      Induced dipole moments converged in  4 iterations.
      Induced dipole moments converged in  4 iterations.
      Induced dipole moments converged in  3 iterations.
      Induced dipole moments converged in  3 iterations.
    Induced surface charges converged in 14 iterations.

      Info from polarizable embedding library:
     ------------------------------------------

       Input density no.:   1

                        Total induced dipole moment
                       X              Y              Z
                 -0.19220949     0.49203436     0.23106762

    Sum of induced charges:     -0.00133959

@ 10  -112.396999453     -4.476682704384E-02    3.30531D-06   -1.47D-10

@ *** DIIS converged in  10 iterations !
@     Converged SCF energy, gradient:   -112.396999453281    3.31D-06
    - total time used in SIRFCK :              0.00 seconds


 *** SCF orbital energy analysis ***
   (incl. contribution from polarizable embedding potential)

 Number of electrons :   16
 Orbital occupations :    8

 Sym       Hartree-Fock orbital energies

1 A     -20.30327337   -11.12988319    -1.34965066    -0.80351963    -0.64107000
         -0.55582653    -0.45325538    -0.36098970     0.28099115     0.62927421
          0.74938557     0.91815605

    E(LUMO) :     0.28099115 au (symmetry 1)
  - E(HOMO) :    -0.36098970 au (symmetry 1)
  ------------------------------------------
    gap     :     0.64198085 au

    .--------------------------------------------------.
    | Final results from polarizable embedding library |
    `--------------------------------------------------´

        Polarizable embedding energy contributions:
       ---------------------------------------------

       Electrostatic contributions:
            Electronic                -0.208860379062
            Nuclear                    0.196501001970
            Multipole                 -0.013384918679
            Total                     -0.025744295771

       Polarization contributions:
            Electronic                -0.043831211754
            Nuclear                    0.041524508534
            Multipole                 -0.005820339532
            Total                     -0.008127042752

       Continuum solvation contributions:
            Electronic                 0.017429395399
            Nuclear                   -0.017528768979
            Multipole                 -0.010796114941
            Total                     -0.010895488521

       Total PE energy:            -0.044766827044

               Polarizable embedding information:
              ------------------------------------

                       Induced dipole moments
       site          X              Y              Z
          1    -0.13310255     0.15476843     0.05561985
          2    -0.12578480    -0.00486373     0.01118256
          3    -0.00493017     0.05486465     0.06385907
          4     0.04813635     0.10029975     0.04960741
          5    -0.00972439     0.18272500     0.01826346
          6     0.03319608     0.00424025     0.03253527

                      Total induced dipole moment
                     X              Y              Z
               -0.19220949     0.49203436     0.23106762


 --- Writing SIRIFC interface file

 CPU and wall time for SCF :       1.741       1.745


                       .-----------------------------------.
                       | --- Final results from SIRIUS --- |
                       `-----------------------------------'


@    Spin multiplicity:           1
@    Spatial symmetry:            1 ( irrep  A   in C1  )
@    Total charge of molecule:    0

@    Final HF energy:            -112.396999453281                 
@    Nuclear repulsion:            31.249215315972
@    Electronic energy:          -143.601447942209
@    Embedding energy:             -0.044766827044

@    Final gradient norm:           0.000003305313

 
     Date and time (Linux)  : Fri Mar 23 14:08:46 2018
     Host name              : foeroyar                                

File label for MO orbitals:  23Mar18   FOCKDIIS

 (Only coefficients > 0.0100 are printed.)

 Molecular orbitals for symmetry species 1  (A  )
 ------------------------------------------------

    Orbital         1        2        3        4        5        6        7
   1 C   :1s    -0.0005  -0.9926  -0.1223   0.1884  -0.0028  -0.0229  -0.0001
   2 C   :1s     0.0074  -0.0329   0.2741  -0.5892   0.0114   0.0663   0.0003
   3 C   :2px   -0.0004   0.0001  -0.0077  -0.0067   0.5318   0.0010   0.0039
   4 C   :2py    0.0064  -0.0009   0.1581   0.2082   0.0059   0.4561  -0.0178
   5 C   :2pz   -0.0002   0.0000  -0.0052  -0.0067   0.0040  -0.0135  -0.5913
   6 O   :1s    -0.9942  -0.0001  -0.2203  -0.1022   0.0002   0.0869   0.0003
   7 O   :1s    -0.0262   0.0059   0.7712   0.4497   0.0040  -0.4693  -0.0016
   8 O   :2px   -0.0004   0.0001   0.0196   0.0055   0.4643   0.0303   0.0080
   9 O   :2py    0.0057  -0.0016  -0.1645   0.1969   0.0474  -0.6758  -0.0233
  10 O   :2pz   -0.0002   0.0001   0.0050  -0.0067   0.0016   0.0236  -0.6901
  11 H   :1s    -0.0002   0.0065   0.0301  -0.2498   0.2878  -0.1481  -0.0015
  12 H   :1s    -0.0003   0.0065   0.0304  -0.2582  -0.2756  -0.1855   0.0009

    Orbital         8        9       10       11       12
   1 C   :1s     0.0004  -0.0000   0.2013   0.0111   0.1063
   2 C   :1s     0.0002   0.0001  -1.2622  -0.0743  -0.7186
   3 C   :2px    0.2109  -0.0075   0.0216  -1.1502   0.1092
   4 C   :2py   -0.0002   0.0265   0.4848  -0.0829  -1.1474
   5 C   :2pz   -0.0006   0.8344  -0.0151  -0.0077   0.0372
   6 O   :1s    -0.0051   0.0001  -0.0223  -0.0047  -0.1186
   7 O   :1s     0.0239  -0.0004   0.1216   0.0340   0.8884
   8 O   :2px   -0.8601   0.0058  -0.0023   0.3134   0.0420
   9 O   :2py   -0.0307  -0.0244  -0.1934  -0.0257  -0.9341
  10 O   :2pz   -0.0079  -0.7546   0.0061   0.0038   0.0300
  11 H   :1s     0.3551   0.0004   0.8687   0.8781  -0.1332
  12 H   :1s    -0.3598  -0.0005   0.9206  -0.8178  -0.0596

  Total CPU  time used in SIRIUS :   1.74 seconds
  Total wall time used in SIRIUS :   1.75 seconds

 
     Date and time (Linux)  : Fri Mar 23 14:08:46 2018
     Host name              : foeroyar                                


                     .---------------------------------------.
                     | End of Wave Function Section (SIRIUS) |
                     `---------------------------------------'

  Total CPU  time used in DALTON:   1.78 seconds
  Total wall time used in DALTON:   1.79 seconds

 
     Date and time (Linux)  : Fri Mar 23 14:08:46 2018
     Host name              : foeroyar                                
