

     ************************************************************************
     *************** Dalton - An Electronic Structure Program ***************
     ************************************************************************

    This is output from DALTON (Release Dalton2013 patch 0)
   ----------------------------------------------------------------------------
    NOTE:
     
    Dalton is an experimental code for the evaluation of molecular
    properties using (MC)SCF, DFT, CI, and CC wave functions.
    The authors accept no responsibility for the performance of
    the code or for the correctness of the results.
     
    The code (in whole or part) is provided under a licence and
    is not to be reproduced for further distribution without
    the written permission of the authors or their representatives.
     
    See the home page "http://daltonprogram.org" for further information.
     
    If results obtained with this code are published,
    the appropriate citations would be both of:
     
       K. Aidas, C. Angeli, K. L. Bak, V. Bakken, R. Bast,
       L. Boman, O. Christiansen, R. Cimiraglia, S. Coriani,
       P. Dahle, E. K. Dalskov, U. Ekstroem, T. Enevoldsen,
       J. J. Eriksen, P. Ettenhuber, B. Fernandez, L. Ferrighi,
       H. Fliegl, L. Frediani, K. Hald, A. Halkier, C. Haettig,
       H. Heiberg, T. Helgaker, A. C. Hennum, H. Hettema,
       E. Hjertenaes, S. Hoest, I.-M. Hoeyvik, M. F. Iozzi,
       B. Jansik, H. J. Aa. Jensen, D. Jonsson, P. Joergensen,
       J. Kauczor, S. Kirpekar, T. Kjaergaard, W. Klopper,
       S. Knecht, R. Kobayashi, H. Koch, J. Kongsted, A. Krapp,
       K. Kristensen, A. Ligabue, O. B. Lutnaes, J. I. Melo,
       K. V. Mikkelsen, R. H. Myhre, C. Neiss, C. B. Nielsen,
       P. Norman, J. Olsen, J. M. H. Olsen, A. Osted,
       M. J. Packer, F. Pawlowski, T. B. Pedersen, P. F. Provasi,
       S. Reine, Z. Rinkevicius, T. A. Ruden, K. Ruud, V. Rybkin,
       P. Salek, C. C. M. Samson, A. Sanchez de Meras, T. Saue,
       S. P. A. Sauer, B. Schimmelpfennig, K. Sneskov,
       A. H. Steindal, K. O. Sylvester-Hvid, P. R. Taylor,
       A. M. Teale, E. I. Tellgren, D. P. Tew, A. J. Thorvaldsen,
       L. Thoegersen, O. Vahtras, M. A. Watson, D. J. D. Wilson,
       M. Ziolkowski and H. Agren.
       The Dalton quantum chemistry program system.
       WIREs Comput. Mol. Sci. 2013. doi: 10.1002/wcms.1172
    
    and
    
       Dalton, a Molecular Electronic Structure Program,
       Release DALTON2013.0 (2013), see http://daltonprogram.org
   ----------------------------------------------------------------------------

    Authors in alphabetical order (major contribution(s) in parenthesis):

  Kestutis Aidas,           Vilnius University,           Lithuania   (QM/MM)
  Celestino Angeli,         University of Ferrara,        Italy       (NEVPT2)
  Keld L. Bak,              UNI-C,                        Denmark     (AOSOPPA, non-adiabatic coupling, magnetic properties)
  Vebjoern Bakken,          University of Oslo,           Norway      (DALTON; geometry optimizer, symmetry detection)
  Radovan Bast,             KTH Stockholm                 Sweden      (DALTON installation and execution frameworks)
  Linus Boman,              NTNU,                         Norway      (Cholesky decomposition and subsystems)
  Ove Christiansen,         Aarhus University,            Denmark     (CC module)
  Renzo Cimiraglia,         University of Ferrara,        Italy       (NEVPT2)
  Sonia Coriani,            University of Trieste,        Italy       (CC module, MCD in RESPONS)
  Paal Dahle,               University of Oslo,           Norway      (Parallelization)
  Erik K. Dalskov,          UNI-C,                        Denmark     (SOPPA)
  Thomas Enevoldsen,        Univ. of Southern Denmark,    Denmark     (SOPPA)
  Janus J. Eriksen,         Aarhus University,            Denmark     (PE-MP2/SOPPA, TDA)
  Berta Fernandez,          U. of Santiago de Compostela, Spain       (doublet spin, ESR in RESPONS)
  Lara Ferrighi,            Aarhus University,            Denmark     (PCM Cubic response)
  Heike Fliegl,             University of Oslo,           Norway      (CCSD(R12))
  Luca Frediani,            UiT The Arctic U. of Norway,  Norway      (PCM)
  Bin Gao,                  UiT The Arctic U. of Norway,  Norway      (Gen1Int library)
  Christof Haettig,         Ruhr-University Bochum,       Germany     (CC module)
  Kasper Hald,              Aarhus University,            Denmark     (CC module)
  Asger Halkier,            Aarhus University,            Denmark     (CC module)
  Hanne Heiberg,            University of Oslo,           Norway      (geometry analysis, selected one-electron integrals)
  Trygve Helgaker,          University of Oslo,           Norway      (DALTON; ABACUS, ERI, DFT modules, London, and much more)
  Alf Christian Hennum,     University of Oslo,           Norway      (Parity violation)
  Hinne Hettema,            University of Auckland,       New Zealand (quadratic response in RESPONS; SIRIUS supersymmetry)
  Eirik Hjertenaes,         NTNU,                         Norway      (Cholesky decomposition)
  Maria Francesca Iozzi,    University of Oslo,           Norway      (RPA)
  Brano Jansik              Technical Univ. of Ostrava    Czech Rep.  (DFT cubic response)
  Hans Joergen Aa. Jensen,  Univ. of Southern Denmark,    Denmark     (DALTON; SIRIUS, RESPONS, ABACUS modules, London, and much more)
  Dan Jonsson,              UiT The Arctic U. of Norway,  Norway      (cubic response in RESPONS module)
  Poul Joergensen,          Aarhus University,            Denmark     (RESPONS, ABACUS, and CC modules)
  Joanna Kauczor,           Linkoeping University,        Sweden      (Complex polarization propagator (CPP) module)
  Sheela Kirpekar,          Univ. of Southern Denmark,    Denmark     (Mass-velocity & Darwin integrals)
  Wim Klopper,              KIT Karlsruhe,                Germany     (R12 code in CC, SIRIUS, and ABACUS modules)
  Stefan Knecht,            ETH Zurich,                   Switzerland (Parallel CI and MCSCF)
  Rika Kobayashi,           Australian National Univ.,    Australia   (DIIS in CC, London in MCSCF)
  Henrik Koch,              NTNU,                         Norway      (CC module, Cholesky decomposition)
  Jacob Kongsted,           Univ. of Southern Denmark,    Denmark     (Polarizable embedding, QM/MM)
  Andrea Ligabue,           University of Modena,         Italy       (CTOCD, AOSOPPA)
  Ola B. Lutnaes,           University of Oslo,           Norway      (DFT Hessian)
  Juan I. Melo,             University of Buenos Aires,   Argentina   (LRESC, Relativistic Effects on NMR Shieldings)
  Kurt V. Mikkelsen,        University of Copenhagen,     Denmark     (MC-SCRF and QM/MM)
  Rolf H. Myhre,            NTNU,                         Norway      (Cholesky, subsystems and ECC2)
  Christian Neiss,          Univ. Erlangen-Nuernberg,     Germany     (CCSD(R12))
  Christian B. Nielsen,     University of Copenhagen,     Denmark     (QM/MM)
  Patrick Norman,           Linkoeping University,        Sweden      (Cubic response and complex response in RESPONS)
  Jeppe Olsen,              Aarhus University,            Denmark     (SIRIUS CI/density modules)
  Jogvan Magnus H. Olsen,   Univ. of Southern Denmark,    Denmark     (Polarizable embedding, PE library, QM/MM)
  Anders Osted,             Copenhagen University,        Denmark     (QM/MM)
  Martin J. Packer,         University of Sheffield,      UK          (SOPPA)
  Filip Pawlowski,          Kazimierz Wielki University   Poland      (CC3)
  Thomas B. Pedersen,       University of Oslo,           Norway      (Cholesky decomposition)
  Patricio F. Provasi,      University of Northeastern,   Argentina   (Analysis of coupling constants in localized orbitals)
  Zilvinas Rinkevicius,     KTH Stockholm,                Sweden      (open-shell DFT, ESR)
  Elias Rudberg,            KTH Stockholm,                Sweden      (DFT grid and basis info)
  Torgeir A. Ruden,         University of Oslo,           Norway      (Numerical derivatives in ABACUS)
  Kenneth Ruud,             UiT The Arctic U. of Norway,  Norway      (DALTON; ABACUS magnetic properties and  much more)
  Pawel Salek,              KTH Stockholm,                Sweden      (DALTON; DFT code)
  Claire C. M. Samson       University of Karlsruhe       Germany     (Boys localization, r12 integrals in ERI)
  Alfredo Sanchez de Meras, University of Valencia,       Spain       (CC module, Cholesky decomposition)
  Trond Saue,               Paul Sabatier University,     France      (direct Fock matrix construction)
  Stephan P. A. Sauer,      University of Copenhagen,     Denmark     (SOPPA(CCSD), SOPPA prop., AOSOPPA, vibrational g-factors)
  Bernd Schimmelpfennig,    Forschungszentrum Karlsruhe,  Germany     (AMFI module)
  Kristian Sneskov,         Aarhus University,            Denmark     (QM/MM, PE-CC)
  Arnfinn H. Steindal,      UiT The Arctic U. of Norway,  Norway      (parallel QM/MM)
  K. O. Sylvester-Hvid,     University of Copenhagen,     Denmark     (MC-SCRF)
  Peter R. Taylor,          VLSCI/Univ. of Melbourne,     Australia   (Symmetry handling ABACUS, integral transformation)
  Andrew M. Teale,          University of Nottingham,     England     (DFT-AC, DFT-D)
  David P. Tew,             University of Bristol,        England     (CCSD(R12))
  Olav Vahtras,             KTH Stockholm,                Sweden      (triplet response, spin-orbit, ESR, TDDFT, open-shell DFT)
  David J. Wilson,          La Trobe University,          Australia   (DFT Hessian and DFT magnetizabilities)
  Hans Agren,               KTH Stockholm,                Sweden      (SIRIUS module, RESPONS, MC-SCRF solvation model)
 --------------------------------------------------------------------------------

     Date and time (Linux)  : Sun Sep  8 20:40:55 2013
     Host name              : lpqlx131.ups-tlse.fr                    

 * Work memory size             :    64000000 =  488.28 megabytes.

 * Directories for basis set searches:
   1) /home/bast/DALTON-2013.0-Source/build/test_qmmm6
   2) /home/bast/DALTON-2013.0-Source/build/basis


Compilation information
-----------------------

 Who compiled             | bast
 Host                     | lpqlx131.ups-tlse.fr
 System                   | Linux-3.8.5-201.fc18.x86_64
 CMake generator          | Unix Makefiles
 Processor                | x86_64
 64-bit integers          | OFF
 MPI                      | OFF
 Fortran compiler         | /usr/bin/gfortran
 Fortran compiler version | GNU Fortran (GCC) 4.7.2 20121109 (Red Hat 4.7.2-8)
 C compiler               | /usr/bin/gcc
 C compiler version       | gcc (GCC) 4.7.2 20121109 (Red Hat 4.7.2-8)
 C++ compiler             | /usr/bin/g++
 C++ compiler version     | g++ (GCC) 4.7.2 20121109 (Red Hat 4.7.2-8)
 Static linking           | OFF
 Last Git revision        | f34203295a86316e27f9e7b44f9b6769c4a046c0
 Configuration time       | 2013-09-08 20:31:27.952056


   Content of the .dal input file
 ----------------------------------

**DALTON                                          
.RUN RESPONSE                                     
*QMMM                                             
.QMMM                                             
.PRINT                                            
 1                                                
**WAVE FUNCTIONS                                  
.DFT                                              
B3LYP                                             
*SCF INPUT                                        
.THRESHOLD                                        
 1.0D-10                                          
**RESPONSE                                        
*QUADRATIC                                        
.SHG                                              
.DIPLEN                                           
.FREQUE                                           
 1                                                
 0.040                                            
.THCLR                                            
1.0D-7                                            
**END OF                                          


   Content of the .mol file
 ----------------------------

ATOMBASIS                                                                      
CH2O PLUS 2 WATERS                                                             
------------------------                                                       
AtomTypes=3 NoSymmetry Angstrom                                                
        6.0   1    Basis=cc-pVDZ                                               
C           -1.588367    -.770650     .029109                                  
        8.0   1    Basis=cc-pVDZ                                               
O           -1.657083     .436069    -.009750                                  
        1.0   2    Basis=cc-pVDZ                                               
H           -.620668   -1.294822      .054251                                  
H           -2.508043   -1.382001     .040282                                  


       *******************************************************************
       *********** Output from DALTON general input processing ***********
       *******************************************************************

 --------------------------------------------------------------------------------
   Overall default print level:    0
   Print level for DALTON.STAT:    1

    HERMIT 1- and 2-electron integral sections will be executed
    "Old" integral transformation used (limited to max 255 basis functions)
    Wave function sections will be executed (SIRIUS module)
    Dynamic molecular response properties section will be executed (RESPONSE module)
 --------------------------------------------------------------------------------


 Changes of defaults for *QMMM  :
 --------------------------------

 +------------------+
 |  WORD: | CHANGE: |
 +------------------+
 |   QMMM |       T |
 +------------------+



   ****************************************************************************
   *************** Output of molecule and basis set information ***************
   ****************************************************************************


    The two title cards from your ".mol" input:
    ------------------------------------------------------------------------
 1: CH2O PLUS 2 WATERS                                                      
 2: ------------------------                                                
    ------------------------------------------------------------------------

  Coordinates are entered in Angstrom and converted to atomic units.
          - Conversion factor : 1 bohr = 0.52917721 A

  Atomic type no.    1
  --------------------
  Nuclear charge:   6.00000
  Number of symmetry independent centers:    1
  Number of basis sets to read;    2
  The basis set is "cc-pVDZ" from the basis set library.
  Basis set file used for this atomic type with Z =   6 :
     "/home/bast/DALTON-2013.0-Source/build/basis/cc-pVDZ"

  Atomic type no.    2
  --------------------
  Nuclear charge:   8.00000
  Number of symmetry independent centers:    1
  Number of basis sets to read;    2
  The basis set is "cc-pVDZ" from the basis set library.
  Basis set file used for this atomic type with Z =   8 :
     "/home/bast/DALTON-2013.0-Source/build/basis/cc-pVDZ"

  Atomic type no.    3
  --------------------
  Nuclear charge:   1.00000
  Number of symmetry independent centers:    2
  Number of basis sets to read;    2
  The basis set is "cc-pVDZ" from the basis set library.
  Basis set file used for this atomic type with Z =   1 :
     "/home/bast/DALTON-2013.0-Source/build/basis/cc-pVDZ"


                         SYMGRP: Point group information
                         -------------------------------

Point group: C1 


                                 Isotopic Masses
                                 ---------------

                           C          12.000000
                           O          15.994915
                           H           1.007825
                           H           1.007825

                       Total mass:    30.010565 amu
                       Natural abundance:  98.633 %

 Center-of-mass coordinates (a.u.):   -3.067740   -0.312997    0.018175


  Atoms and basis sets
  --------------------

  Number of atom types :    3
  Total number of atoms:    4

  label    atoms   charge   prim   cont     basis
  ----------------------------------------------------------------------
  C           1    6.0000    26    14      [9s4p1d|3s2p1d]                                    
  O           1    8.0000    26    14      [9s4p1d|3s2p1d]                                    
  H           2    1.0000     7     5      [4s1p|2s1p]                                        
  ----------------------------------------------------------------------
  total:      4   16.0000    66    38
  ----------------------------------------------------------------------
  Spherical harmonic basis used.

  Threshold for neglecting AO integrals:  1.00D-12


  Cartesian Coordinates (a.u.)
  ----------------------------

  Total number of coordinates:   12
  C       :     1  x  -3.0015786160    2  y  -1.4563174382    3  z   0.0550080378
  O       :     4  x  -3.1314330364    5  y   0.8240509816    6  z  -0.0184248297
  H       :     7  x  -1.1728925345    8  y  -2.4468589606    9  z   0.1025195320
  H       :    10  x  -4.7395143797   11  y  -2.6116033945   12  z   0.0761219478


   Interatomic separations (in Angstrom):
   --------------------------------------

            C           O           H           H     
            ------      ------      ------      ------
 C     :    0.000000
 O     :    1.209298    0.000000
 H     :    1.100831    2.018474    0.000000
 H     :    1.104391    2.007988    1.889439    0.000000


  Max    interatomic separation is    2.0185 Angstrom (    3.8144 Bohr)
  between atoms    3 and    2, "H     " and "O     ".

  Min HX interatomic separation is    1.1008 Angstrom (    2.0803 Bohr)

  Min YX interatomic separation is    1.2093 Angstrom (    2.2852 Bohr)


  Bond distances (Angstrom):
  --------------------------

                  atom 1     atom 2       distance
                  ------     ------       --------
  bond distance:  O          C            1.209298
  bond distance:  H          C            1.100831
  bond distance:  H          C            1.104391


  Bond angles (degrees):
  ----------------------

                  atom 1     atom 2     atom 3         angle
                  ------     ------     ------         -----
  bond angle:     O          C          H            121.724
  bond angle:     O          C          H            120.357
  bond angle:     H          C          H            117.919




 Principal moments of inertia (u*A**2) and principal axes
 --------------------------------------------------------

   IA       1.798871         -0.056827    0.997867   -0.032124
   IB      13.009178          0.998345    0.057081    0.007042
   IC      14.808049         -0.008861    0.031671    0.999459


 Rotational constants
 --------------------

 The molecule is planar.

               A                   B                   C

         280942.3015          38847.8806          34128.6681 MHz
            9.371226            1.295826            1.138410 cm-1


@  Nuclear repulsion energy :   31.249215315972 Hartree


                     .---------------------------------------.
                     | Starting in Integral Section (HERMIT) |
                     `---------------------------------------'



    *************************************************************************
    ****************** Output from HERMIT input processing ******************
    *************************************************************************


  *********************************** 
  QMMM electrostatic potential: 
  Multipole order                          2
  Anisotropic polarization
  *********************************** 

  ---------------- 
  QMMM information 
  ---------------- 

  MM coordinates in au 
  -------------------- 
     1      1.843496      2.848231     -0.156072
     2      0.043842      2.456825     -0.166415
     3      2.104836      3.855856      1.331837
     4      3.087255     -2.330561     -0.148884
     5      3.024958     -0.488757     -0.164317
     6      4.353698     -2.761321      1.077267

  MM charges 
  ---------- 
     1     -0.739083
     2      0.367781
     3      0.371302
     4     -0.739251
     5      0.367701
     6      0.371549

  MM dipoles (x,y,z) 
  ------------------ 
     1     -0.130726      0.053697      0.127642
     2      0.206730      0.034515     -0.015142
     3     -0.012978     -0.115434     -0.176127
     4      0.104509      0.119958      0.105009
     5     -0.007017     -0.209358     -0.012012
     6     -0.149391      0.032310     -0.145096

  MM quadrupoles (xx,xy,xz,yy,yz,zz) 
  ---------------------------------- 
     1     -3.891547      0.304260      0.173633     -4.459360      0.423169     -4.191583
     2     -0.005325      0.100015     -0.012868     -0.496247     -0.009445     -0.522055
     3     -0.512511      0.030179      0.049587     -0.348072      0.235727     -0.153360
     4     -4.353401     -0.233572      0.425650     -3.805243     -0.203696     -4.384519
     5     -0.519714     -0.002960     -0.007650      0.013940      0.010074     -0.519177
     6     -0.250836     -0.075418      0.246439     -0.497307     -0.073459     -0.266235

  MM polarizabilities in au (xx,xy,xz,yy,yz,zz) 
  --------------------------------------------- 
     1      5.476036     -0.086680     -0.072168      5.582289     -0.124016      5.513301
     2      3.488465      0.298404     -0.071204      1.739307     -0.350308      1.360585
     3      1.185490      0.051653      0.313695      2.359411      0.746038      2.948993
     4      5.555285      0.085929     -0.120805      5.451407      0.074565      5.566247
     5      1.509477     -0.036783     -0.366362      3.554625      0.100598      1.528430
     6      2.658086     -0.248537      0.746655      1.223737     -0.356653      2.608086


     ************************************************************************
     ************************** Output from HERINT **************************
     ************************************************************************


 Threshold for neglecting two-electron integrals:  1.00D-12
 Number of two-electron integrals written:      265159 ( 96.5% )
 Megabytes written:                              3.037

 >>>  Time used in TWOINT     is   0.15 seconds
 >>>> Total CPU  time used in HERMIT:   0.18 seconds
 >>>> Total wall time used in HERMIT:   0.25 seconds


                        .----------------------------------.
                        | End of Integral Section (HERMIT) |
                        `----------------------------------'



                   .--------------------------------------------.
                   | Starting in Wave Function Section (SIRIUS) |
                   `--------------------------------------------'


 *** Output from Huckel module :

     Using EWMO model:          T
     Using EHT  model:          F
     Number of Huckel orbitals each symmetry:   12

 EWMO - Energy Weighted Maximum Overlap - is a Huckel type method,
        which normally is better than Extended Huckel Theory.
 Reference: Linderberg and Ohrn, Propagators in Quantum Chemistry (Wiley, 1973)

 Huckel EWMO eigenvalues for symmetry :  1
          -20.684762     -11.351957      -1.632119      -1.046130      -0.813248
           -0.702067      -0.605910      -0.491826      -0.321033      -0.161573
           -0.131670      -0.108806

 **********************************************************************
 *SIRIUS* a direct, restricted step, second order MCSCF program       *
 **********************************************************************

 
     Date and time (Linux)  : Sun Sep  8 20:40:55 2013
     Host name              : lpqlx131.ups-tlse.fr                    

 Title lines from ".mol" input file:
     CH2O PLUS 2 WATERS                                                      
     ------------------------                                                

 Print level on unit LUPRI =   2 is   0
 Print level on unit LUW4  =   2 is   5

@    Restricted, closed shell Kohn-Sham DFT calculation.

@    Time-dependent Kohn-Sham DFT calculation (TD-DFT).

 Initial molecular orbitals are obtained according to
 ".MOSTART EWMO  " input option

@    QM part is embedded in an environment :

@         Model: QMMM

     Wave function specification
     ============================
@    For the wave function of type :      >>> KS-DFT <<<
@    Number of closed shell electrons          16
@    Number of electrons in active shells       0
@    Total charge of the molecule               0

@    Spin multiplicity and 2 M_S                1         0
     Total number of symmetries                 1
@    Reference state symmetry                   1
 
     This is a DFT calculation of type: B3LYP
 Weighted mixed functional:
               HF exchange:    0.20000
                       VWN:    0.19000
                       LYP:    0.81000
                     Becke:    0.72000
                    Slater:    0.80000

     Orbital specifications
     ======================
     Abelian symmetry species          All |    1
                                       --- |  ---
@    Occupied SCF orbitals               8 |    8
     Secondary orbitals                 30 |   30
     Total number of orbitals           38 |   38
     Number of basis functions          38 |   38

     Optimization information
     ========================
@    Number of configurations                 1
@    Number of orbital rotations            240
     ------------------------------------------
@    Total number of variables              241

     Maximum number of Fock   iterations      0
     Maximum number of DIIS   iterations     60
     Maximum number of QC-SCF iterations     60
     Threshold for SCF convergence     1.00D-10
 
     This is a DFT calculation of type: B3LYP
 Weighted mixed functional:
               HF exchange:    0.20000
                       VWN:    0.19000
                       LYP:    0.81000
                     Becke:    0.72000
                    Slater:    0.80000


 >>>>> DIIS optimization of Hartree-Fock <<<<<

 C1-DIIS algorithm; max error vectors =   10

 Iter      Total energy       Solvation energy    Error norm    Delta(E)
 -----------------------------------------------------------------------------
      K-S energy, electrons, error :    -11.716637424232  15.9999999914   -8.63D-09
@  1  -114.001203932     -3.382260886060E-02    2.71747D+00   -1.14D+02
      Virial theorem: -V/T =      2.006749
@      MULPOP C       1.08; O      -0.74; H      -0.17; H      -0.17; 
 -----------------------------------------------------------------------------
      K-S energy, electrons, error :    -11.859865873141  15.9999999671   -3.29D-08
@  2  -113.462768526      8.621711777952E-03    4.34174D+00    5.38D-01
      Virial theorem: -V/T =      1.998566
@      MULPOP C      -1.67; O       1.17; H       0.28; H       0.21; 
 -----------------------------------------------------------------------------
      K-S energy, electrons, error :    -12.009761928060  15.9999999416   -5.84D-08
@  3  -114.421416431     -3.502106757094E-02    1.02590D+00   -9.59D-01
      Virial theorem: -V/T =      1.994010
@      MULPOP C       0.36; O      -0.54; H       0.13; H       0.05; 
 -----------------------------------------------------------------------------
      K-S energy, electrons, error :    -11.806144834626  15.9999999442   -5.58D-08
@  4  -114.467190738     -2.472438756565E-02    2.46225D-01   -4.58D-02
      Virial theorem: -V/T =      2.009365
@      MULPOP C       0.21; O      -0.26; H       0.07; H      -0.02; 
 -----------------------------------------------------------------------------
      K-S energy, electrons, error :    -11.858469421773  15.9999999431   -5.69D-08
@  5  -114.470391122     -2.661346208062E-02    2.53547D-02   -3.20D-03
      Virial theorem: -V/T =      2.005373
@      MULPOP C       0.16; O      -0.28; H       0.10; H       0.02; 
 -----------------------------------------------------------------------------
      K-S energy, electrons, error :    -11.853504972208  15.9999999431   -5.69D-08
@  6  -114.470427459     -2.630584282023E-02    2.52668D-03   -3.63D-05
      Virial theorem: -V/T =      2.005734
@      MULPOP C       0.16; O      -0.28; H       0.10; H       0.01; 
 -----------------------------------------------------------------------------
      K-S energy, electrons, error :    -11.853968521590  15.9999999431   -5.69D-08
@  7  -114.470427808     -2.633239615207E-02    1.23429D-04   -3.48D-07
      Virial theorem: -V/T =      2.005700
@      MULPOP C       0.16; O      -0.28; H       0.10; H       0.01; 
 -----------------------------------------------------------------------------
      K-S energy, electrons, error :    -11.853979942259  15.9999999431   -5.69D-08
@  8  -114.470427809     -2.633447957068E-02    2.73207D-05   -8.90D-10
      Virial theorem: -V/T =      2.005699
@      MULPOP C       0.16; O      -0.28; H       0.10; H       0.01; 
 -----------------------------------------------------------------------------
      K-S energy, electrons, error :    -11.853977558704  15.9999999431   -5.69D-08
@  9  -114.470427809     -2.633403083440E-02    2.48893D-06   -5.08D-11
      Virial theorem: -V/T =      2.005700
@      MULPOP C       0.16; O      -0.28; H       0.10; H       0.01; 
 -----------------------------------------------------------------------------
      K-S energy, electrons, error :    -11.853977607212  15.9999999431   -5.69D-08
@ 10  -114.470427809     -2.633404172629E-02    7.82450D-07   -3.98D-13
      Virial theorem: -V/T =      2.005700
@      MULPOP C       0.16; O      -0.28; H       0.10; H       0.01; 
 -----------------------------------------------------------------------------
      K-S energy, electrons, error :    -11.853977646725  15.9999999431   -5.69D-08
@ 11  -114.470427809     -2.633404899912E-02    6.34360D-08    2.84D-14
      Virial theorem: -V/T =      2.005700
@      MULPOP C       0.16; O      -0.28; H       0.10; H       0.01; 
 -----------------------------------------------------------------------------
      K-S energy, electrons, error :    -11.853977651394  15.9999999431   -5.69D-08
@ 12  -114.470427809     -2.633404967419E-02    4.91712D-09    0.00D+00
      Virial theorem: -V/T =      2.005700
@      MULPOP C       0.16; O      -0.28; H       0.10; H       0.01; 
 -----------------------------------------------------------------------------
      K-S energy, electrons, error :    -11.853977652107  15.9999999431   -5.69D-08
@ 13  -114.470427809     -2.633404971282E-02    3.40791D-10   -5.68D-14
      Virial theorem: -V/T =      2.005700
@      MULPOP C       0.16; O      -0.28; H       0.10; H       0.01; 
 -----------------------------------------------------------------------------
      K-S energy, electrons, error :    -11.853977652107  15.9999999431   -5.69D-08
@ 14  -114.470427809     -2.633404971408E-02    6.83791D-11   -7.11D-14

@ *** DIIS converged in  14 iterations !
@     Converged SCF energy, gradient:   -114.470427808753    6.84D-11
    - total time used in SIRFCK :              0.00 seconds


 *** SCF orbital energy analysis ***
    (incl. solvent contribution)

 Only the five lowest virtual orbital energies printed in each symmetry.

 Number of electrons :   16
 Orbital occupations :    8

 Sym       Kohn-Sham orbital energies

  1    -19.16731614   -10.28799608    -1.06931232    -0.63545382    -0.49840687
        -0.46174420    -0.40603385    -0.27744815    -0.04832902     0.08479355
         0.16587419     0.20421444     0.45222493

    E(LUMO) :    -0.04832902 au (symmetry 1)
  - E(HOMO) :    -0.27744815 au (symmetry 1)
  ------------------------------------------
    gap     :     0.22911913 au

 >>> Writing SIRIFC interface file <<<

 >>>> CPU and wall time for SCF :      12.618      13.278


                       .-----------------------------------.
                       | >>> Final results from SIRIUS <<< |
                       `-----------------------------------'


@    Spin multiplicity:           1
@    Spatial symmetry:            1
@    Total charge of molecule:    0

     QM/MM "QMMM" calculation converged :

     Charge contribution:         -0.014924453274
     Dipole contribution:          0.005065816441
     Quadrupole contribution:     -0.007670309596
     Electronic Pol. energy:      -0.062585214535
     Nuclear pol. energy:          0.059153961349
     Multipole Pol. energy:       -0.005373850099
     Total QM/MM energy:          -0.026334049714

@    Final DFT energy:           -114.470427808753                 
@    Nuclear repulsion:            31.249215315972
@    Electronic energy:          -145.693309075011

@    Final gradient norm:           0.000000000068

 
     Date and time (Linux)  : Sun Sep  8 20:41:09 2013
     Host name              : lpqlx131.ups-tlse.fr                    

 (Only coefficients >0.0100 are printed.)

 Molecular orbitals for symmetry species  1
 ------------------------------------------

    Orbital         4        5        6        7        8        9       10
   1 C   :1s     0.0081  -0.0022   0.0101   0.0003  -0.0030  -0.0004   0.0229
   2 C   :1s    -0.7005   0.0202   0.1182   0.0018  -0.0036  -0.0027  -0.3898
   3 C   :1s     0.1703   0.0238  -0.1244  -0.0022   0.0386   0.0024  -1.4145
   4 C   :2px    0.0067   0.6488   0.0229   0.0035   0.2689  -0.0075   0.1813
   5 C   :2py    0.2789  -0.0191   0.5661  -0.0176  -0.0135   0.0257   0.3285
   6 C   :2pz   -0.0095   0.0061  -0.0180  -0.5379   0.0010   0.7685  -0.0117
   7 C   :2px   -0.0144  -0.1704   0.0057  -0.0002  -0.1189  -0.0025   0.2835
   8 C   :2py   -0.0432   0.0112  -0.2390   0.0013  -0.0172   0.0066   0.3627
   9 C   :2pz    0.0007  -0.0016   0.0073   0.0505  -0.0004   0.2012  -0.0066
  10 C   :3d2-  -0.0031   0.0097  -0.0000   0.0004  -0.0547   0.0001  -0.0056
  11 C   :3d1-  -0.0007   0.0001  -0.0006  -0.0411  -0.0004  -0.0332   0.0002
  14 C   :3d2+  -0.0125  -0.0002  -0.0184   0.0014   0.0066   0.0010   0.0030
  16 O   :1s     0.3863  -0.0075  -0.2890  -0.0001   0.0357   0.0002  -0.0019
  17 O   :1s     0.0068   0.0111  -0.1285   0.0008   0.0042  -0.0016  -0.0426
  18 O   :2px    0.0104   0.4372   0.0424   0.0074  -0.8224   0.0046  -0.0584
  19 O   :2py    0.1916   0.0648  -0.7370  -0.0236  -0.0097  -0.0199  -0.0982
  20 O   :2pz   -0.0063   0.0010   0.0236  -0.7410  -0.0082  -0.6235   0.0033
  21 O   :2px    0.0059  -0.0193  -0.0202   0.0004  -0.0475   0.0019  -0.0589
  22 O   :2py    0.0099   0.0002   0.0432   0.0006  -0.0146  -0.0045  -0.0417
  23 O   :2pz   -0.0000  -0.0005  -0.0014   0.0232   0.0007  -0.1616   0.0005
  24 O   :3d2-   0.0009  -0.0183  -0.0053  -0.0003   0.0089   0.0001  -0.0029
  25 O   :3d1-   0.0005  -0.0000  -0.0012   0.0242   0.0002  -0.0065   0.0001
  26 O   :3d0    0.0051  -0.0003  -0.0110  -0.0015   0.0022   0.0003  -0.0017
  28 O   :3d2+   0.0068   0.0046  -0.0186  -0.0007  -0.0031   0.0002   0.0040
  29 H   :1s    -0.3761   0.4432  -0.1550  -0.0002   0.4246  -0.0018   0.1855
  30 H   :1s     0.1738  -0.1595   0.0270  -0.0002  -0.0606   0.0037   0.5825
  31 H   :2px    0.0256  -0.0132   0.0083   0.0001  -0.0060  -0.0002   0.0036
  33 H   :2pz    0.0004  -0.0002  -0.0002  -0.0092  -0.0001   0.0246   0.0001
  34 H   :1s    -0.4091  -0.3997  -0.2402   0.0021  -0.4285  -0.0018   0.1501
  35 H   :1s     0.1640   0.1275   0.0481  -0.0007   0.0091   0.0011   1.6435
  36 H   :2px   -0.0229  -0.0068  -0.0116   0.0002  -0.0038  -0.0002  -0.0048
  37 H   :2py   -0.0106  -0.0106   0.0047  -0.0003  -0.0055   0.0009   0.0035
  38 H   :2pz    0.0001   0.0002  -0.0003  -0.0099   0.0000   0.0266  -0.0002



 >>>> Total CPU  time used in SIRIUS :     12.63 seconds
 >>>> Total wall time used in SIRIUS :     13.30 seconds

 
     Date and time (Linux)  : Sun Sep  8 20:41:09 2013
     Host name              : lpqlx131.ups-tlse.fr                    


                     .---------------------------------------.
                     | End of Wave Function Section (SIRIUS) |
                     `---------------------------------------'



                 .------------------------------------------------.
                 | Starting in Dynamic Property Section (RESPONS) |
                 `------------------------------------------------'


 ------------------------------------------------------------------------------
  RESPONSE  -  an MCSCF, MC-srDFT, DFT, and SOPPA response property program
 ------------------------------------------------------------------------------


 <<<<<<<<<< OUTPUT FROM RESPONSE INPUT PROCESSING >>>>>>>>>>




 Quadratic Response calculation
 ------------------------------

 First hyperpolarizability calculation : HYPCAL= T

 Spin of operator A , ISPINA=    0
 Spin of operator B , ISPINB=    0
 Spin of operator C , ISPINC=    0

  1 B-frequencies  4.000000D-02
  1 C-frequencies  4.000000D-02
 QM/MM response calculation
 Second harmonic generation                     : SHG= T

 Print level                                    : IPRHYP =   2
 Maximum number of iterations in lin.rsp. solver: MAXITL =  60
 Threshold for convergence of linear resp. eq.s : THCLR  = 1.000D-07
 Maximum iterations in optimal orbital algorithm: MAXITO =   5
 Direct one-index transformation                : DIROIT= T

    3 A OPERATORS OF SYMMETRY NO:    1 AND LABELS:

          XDIPLEN 
          YDIPLEN 
          ZDIPLEN 

    3 B OPERATORS OF SYMMETRY NO:    1 AND LABELS:

          XDIPLEN 
          YDIPLEN 
          ZDIPLEN 

    3 C OPERATORS OF SYMMETRY NO:    1 AND LABELS:

          XDIPLEN 
          YDIPLEN 
          ZDIPLEN 

 Integral transformation: Total CPU and WALL times (sec)       0.291       0.293


   SCF energy         :     -114.470427808752703
 -- inactive part     :     -145.693309075011001
 -- nuclear repulsion :       31.249215315972382


                    *****************************************
                    *** DFT response calculation (TD-DFT) ***
                    *****************************************



 Linear response calculations for quadratic response
 - singlet property operator of symmetry    1


 Perturbation symmetry.     KSYMOP:       1
 Perturbation spin symmetry.TRPLET:       F
 Orbital variables.         KZWOPT:     240
 Configuration variables.   KZCONF:       0
 Total number of variables. KZVAR :     240


 QRLRVE -- linear response calculation for symmetry  1
 QRLRVE -- operator label : XDIPLEN 
 QRLRVE -- operator spin  :   0
 QRLRVE -- frequencies :  0.040000  0.080000



 <<<  SOLVING SETS OF LINEAR EQUATIONS FOR LINEAR RESPONSE PROPERTIES >>>

 Operator symmetry =  1; triplet =   F


 *** THE REQUESTED    2 SOLUTION VECTORS CONVERGED

 Convergence of RSP solution vectors, threshold = 1.00D-07
 ---------------------------------------------------------------
 (dimension of paired reduced space:   36)
 RSP solution vector no.    1; norm of residual   7.59D-08
 RSP solution vector no.    2; norm of residual   7.48D-08

 *** RSPCTL MICROITERATIONS CONVERGED

 QRLRVE: SINGLET SOLUTION FOR SYMMETRY    1    LABEL   XDIPLEN     FREQUENCY   0.400000D-01

@ QRLRVE:  << XDIPLEN  ; XDIPLEN  >> (   0.04000):     13.1758322438    

@ QRLRVE:  << YDIPLEN  ; XDIPLEN  >> (   0.04000):    0.362203987612    

@ QRLRVE:  << ZDIPLEN  ; XDIPLEN  >> (   0.04000):    4.221645266534E-02

 QRLRVE: SINGLET SOLUTION FOR SYMMETRY    1    LABEL   XDIPLEN     FREQUENCY   0.800000D-01

@ QRLRVE:  << XDIPLEN  ; XDIPLEN  >> (   0.08000):     13.4435362673    

@ QRLRVE:  << YDIPLEN  ; XDIPLEN  >> (   0.08000):    0.394128919085    

@ QRLRVE:  << ZDIPLEN  ; XDIPLEN  >> (   0.08000):    4.307173649250E-02


 QRLRVE -- linear response calculation for symmetry  1
 QRLRVE -- operator label : YDIPLEN 
 QRLRVE -- operator spin  :   0
 QRLRVE -- frequencies :  0.040000  0.080000



 <<<  SOLVING SETS OF LINEAR EQUATIONS FOR LINEAR RESPONSE PROPERTIES >>>

 Operator symmetry =  1; triplet =   F


 *** THE REQUESTED    2 SOLUTION VECTORS CONVERGED

 Convergence of RSP solution vectors, threshold = 1.00D-07
 ---------------------------------------------------------------
 (dimension of paired reduced space:   36)
 RSP solution vector no.    1; norm of residual   1.94D-08
 RSP solution vector no.    2; norm of residual   2.63D-08

 *** RSPCTL MICROITERATIONS CONVERGED

 QRLRVE: SINGLET SOLUTION FOR SYMMETRY    1    LABEL   YDIPLEN     FREQUENCY   0.400000D-01

@ QRLRVE:  << XDIPLEN  ; YDIPLEN  >> (   0.04000):    0.362204011608    

@ QRLRVE:  << YDIPLEN  ; YDIPLEN  >> (   0.04000):     18.1800441555    

@ QRLRVE:  << ZDIPLEN  ; YDIPLEN  >> (   0.04000):   -0.344329719489    

 QRLRVE: SINGLET SOLUTION FOR SYMMETRY    1    LABEL   YDIPLEN     FREQUENCY   0.800000D-01

@ QRLRVE:  << XDIPLEN  ; YDIPLEN  >> (   0.08000):    0.394128926854    

@ QRLRVE:  << YDIPLEN  ; YDIPLEN  >> (   0.08000):     18.5098842843    

@ QRLRVE:  << ZDIPLEN  ; YDIPLEN  >> (   0.08000):   -0.352810372066    


 QRLRVE -- linear response calculation for symmetry  1
 QRLRVE -- operator label : ZDIPLEN 
 QRLRVE -- operator spin  :   0
 QRLRVE -- frequencies :  0.040000  0.080000



 <<<  SOLVING SETS OF LINEAR EQUATIONS FOR LINEAR RESPONSE PROPERTIES >>>

 Operator symmetry =  1; triplet =   F


 *** THE REQUESTED    2 SOLUTION VECTORS CONVERGED

 Convergence of RSP solution vectors, threshold = 1.00D-07
 ---------------------------------------------------------------
 (dimension of paired reduced space:   36)
 RSP solution vector no.    1; norm of residual   7.30D-08
 RSP solution vector no.    2; norm of residual   7.21D-08

 *** RSPCTL MICROITERATIONS CONVERGED

 QRLRVE: SINGLET SOLUTION FOR SYMMETRY    1    LABEL   ZDIPLEN     FREQUENCY   0.400000D-01

@ QRLRVE:  << XDIPLEN  ; ZDIPLEN  >> (   0.04000):    4.221634559109E-02

@ QRLRVE:  << YDIPLEN  ; ZDIPLEN  >> (   0.04000):   -0.344329699762    

@ QRLRVE:  << ZDIPLEN  ; ZDIPLEN  >> (   0.04000):     7.39538520536    

 QRLRVE: SINGLET SOLUTION FOR SYMMETRY    1    LABEL   ZDIPLEN     FREQUENCY   0.800000D-01

@ QRLRVE:  << XDIPLEN  ; ZDIPLEN  >> (   0.08000):    4.307160933136E-02

@ QRLRVE:  << YDIPLEN  ; ZDIPLEN  >> (   0.08000):   -0.352810353644    

@ QRLRVE:  << ZDIPLEN  ; ZDIPLEN  >> (   0.08000):     7.45566119037    
 
 ======================================================================
 >>>>>>>>    L I N E A R   R E S P O N S E   F U N C T I O N   <<<<<<<<
 ======================================================================

 The -<<A;B>>(omega_b) functions from vectors generated
 in a *QUADRA calculation of <<A;B,C>>(omega_b,omega_c)

 Note: the accuracy of off-diagonal elements will be linear
 in the convergence threshold THCLR =  1.00D-07


 Perturbation symmetry.     KSYMOP:       1
 Perturbation spin symmetry.TRPLET:       F
 Orbital variables.         KZWOPT:     240
 Configuration variables.   KZCONF:       0
 Total number of variables. KZVAR :     240

@ Singlet linear response function in a.u.

@ A operator, symmetry, frequency:   XDIPLEN    1 -0.040000
@ B operator, symmetry, frequency:   XDIPLEN    1  0.040000

@ Value of linear response -<<A;B>>(omega):      13.175832243812

@ Singlet linear response function in a.u.

@ A operator, symmetry, frequency:   YDIPLEN    1 -0.040000
@ B operator, symmetry, frequency:   XDIPLEN    1  0.040000

@ Value of linear response -<<A;B>>(omega):       0.362203987612

@ Singlet linear response function in a.u.

@ A operator, symmetry, frequency:   ZDIPLEN    1 -0.040000
@ B operator, symmetry, frequency:   XDIPLEN    1  0.040000

@ Value of linear response -<<A;B>>(omega):       0.042216452665

@ Singlet linear response function in a.u.

@ A operator, symmetry, frequency:   XDIPLEN    1 -0.040000
@ B operator, symmetry, frequency:   YDIPLEN    1  0.040000

@ Value of linear response -<<A;B>>(omega):       0.362204011608

@ Singlet linear response function in a.u.

@ A operator, symmetry, frequency:   YDIPLEN    1 -0.040000
@ B operator, symmetry, frequency:   YDIPLEN    1  0.040000

@ Value of linear response -<<A;B>>(omega):      18.180044155492

@ Singlet linear response function in a.u.

@ A operator, symmetry, frequency:   ZDIPLEN    1 -0.040000
@ B operator, symmetry, frequency:   YDIPLEN    1  0.040000

@ Value of linear response -<<A;B>>(omega):      -0.344329719489

@ Singlet linear response function in a.u.

@ A operator, symmetry, frequency:   XDIPLEN    1 -0.040000
@ B operator, symmetry, frequency:   ZDIPLEN    1  0.040000

@ Value of linear response -<<A;B>>(omega):       0.042216345591

@ Singlet linear response function in a.u.

@ A operator, symmetry, frequency:   YDIPLEN    1 -0.040000
@ B operator, symmetry, frequency:   ZDIPLEN    1  0.040000

@ Value of linear response -<<A;B>>(omega):      -0.344329699762

@ Singlet linear response function in a.u.

@ A operator, symmetry, frequency:   ZDIPLEN    1 -0.040000
@ B operator, symmetry, frequency:   ZDIPLEN    1  0.040000

@ Value of linear response -<<A;B>>(omega):       7.395385205359


  Results from quadratic response calculation
 --------------------------------------------

 DFT-QR computed in a linearly-scaling fashion.

@ B-freq = 0.040000  C-freq = 0.040000     beta(X;X,X) =      4.17520150
@ B-freq = 0.040000  C-freq = 0.040000     beta(Y;X,X) =     57.22114609
@ B-freq = 0.040000  C-freq = 0.040000     beta(Z;X,X) =     -1.75793603
@ B-freq = 0.040000  C-freq = 0.040000     beta(X;Y,X) =     57.85134333
@ B-freq = 0.040000  C-freq = 0.040000     beta(Y;Y,X) =     10.31904070
@ B-freq = 0.040000  C-freq = 0.040000     beta(Z;Y,X) =      0.12720851
@ B-freq = 0.040000  C-freq = 0.040000     beta(X;Z,X) =     -1.77830642
@ B-freq = 0.040000  C-freq = 0.040000     beta(Y;Z,X) =      0.12156210
@ B-freq = 0.040000  C-freq = 0.040000     beta(Z;Z,X) =     -0.52529066
@ B-freq = 0.040000  C-freq = 0.040000     beta(X;X,Y) = beta(X,Y,X)
@ B-freq = 0.040000  C-freq = 0.040000     beta(Y;X,Y) = beta(Y,Y,X)
@ B-freq = 0.040000  C-freq = 0.040000     beta(Z;X,Y) = beta(Z,Y,X)
@ B-freq = 0.040000  C-freq = 0.040000     beta(X;Y,Y) =     10.38594306
@ B-freq = 0.040000  C-freq = 0.040000     beta(Y;Y,Y) =     46.64103922
@ B-freq = 0.040000  C-freq = 0.040000     beta(Z;Y,Y) =     -1.11991848
@ B-freq = 0.040000  C-freq = 0.040000     beta(X;Z,Y) =      0.12574588
@ B-freq = 0.040000  C-freq = 0.040000     beta(Y;Z,Y) =     -1.11596535
@ B-freq = 0.040000  C-freq = 0.040000     beta(Z;Z,Y) =      4.34992813
@ B-freq = 0.040000  C-freq = 0.040000     beta(X;X,Z) = beta(X,Z,X)
@ B-freq = 0.040000  C-freq = 0.040000     beta(Y;X,Z) = beta(Y,Z,X)
@ B-freq = 0.040000  C-freq = 0.040000     beta(Z;X,Z) = beta(Z,Z,X)
@ B-freq = 0.040000  C-freq = 0.040000     beta(X;Y,Z) = beta(X,Z,Y)
@ B-freq = 0.040000  C-freq = 0.040000     beta(Y;Y,Z) = beta(Y,Z,Y)
@ B-freq = 0.040000  C-freq = 0.040000     beta(Z;Y,Z) = beta(Z,Z,Y)
@ B-freq = 0.040000  C-freq = 0.040000     beta(X;Z,Z) =     -0.51800271
@ B-freq = 0.040000  C-freq = 0.040000     beta(Y;Z,Z) =      4.49868327
@ B-freq = 0.040000  C-freq = 0.040000     beta(Z;Z,Z) =     -0.46184607

 >>>> Total CPU  time used in RESPONSE:  57.80 seconds
 >>>> Total wall time used in RESPONSE:  58.57 seconds


                   .-------------------------------------------.
                   | End of Dynamic Property Section (RESPONS) |
                   `-------------------------------------------'

 >>>> Total CPU  time used in DALTON:  1 minute  11 seconds
 >>>> Total wall time used in DALTON:  1 minute  12 seconds

 
     Date and time (Linux)  : Sun Sep  8 20:42:07 2013
     Host name              : lpqlx131.ups-tlse.fr                    
