

     ************************************************************************
     *************** Dalton - An Electronic Structure Program ***************
     ************************************************************************

    This is output from DALTON release Dalton2020.0.beta (2020)
         ( Web site: http://daltonprogram.org )

   ----------------------------------------------------------------------------

    NOTE:
     
    Dalton is an experimental code for the evaluation of molecular
    properties using (MC)SCF, DFT, CI, and CC wave functions.
    The authors accept no responsibility for the performance of
    the code or for the correctness of the results.
     
    The code (in whole or part) is provided under a licence and
    is not to be reproduced for further distribution without
    the written permission of the authors or their representatives.
     
    See the home page "http://daltonprogram.org" for further information.
     
    If results obtained with this code are published,
    the appropriate citations would be both of:
     
       K. Aidas, C. Angeli, K. L. Bak, V. Bakken, R. Bast,
       L. Boman, O. Christiansen, R. Cimiraglia, S. Coriani,
       P. Dahle, E. K. Dalskov, U. Ekstroem,
       T. Enevoldsen, J. J. Eriksen, P. Ettenhuber, B. Fernandez,
       L. Ferrighi, H. Fliegl, L. Frediani, K. Hald, A. Halkier,
       C. Haettig, H. Heiberg, T. Helgaker, A. C. Hennum,
       H. Hettema, E. Hjertenaes, S. Hoest, I.-M. Hoeyvik,
       M. F. Iozzi, B. Jansik, H. J. Aa. Jensen, D. Jonsson,
       P. Joergensen, J. Kauczor, S. Kirpekar,
       T. Kjaergaard, W. Klopper, S. Knecht, R. Kobayashi, H. Koch,
       J. Kongsted, A. Krapp, K. Kristensen, A. Ligabue,
       O. B. Lutnaes, J. I. Melo, K. V. Mikkelsen, R. H. Myhre,
       C. Neiss, C. B. Nielsen, P. Norman, J. Olsen,
       J. M. H. Olsen, A. Osted, M. J. Packer, F. Pawlowski,
       T. B. Pedersen, P. F. Provasi, S. Reine, Z. Rinkevicius,
       T. A. Ruden, K. Ruud, V. Rybkin, P. Salek, C. C. M. Samson,
       A. Sanchez de Meras, T. Saue, S. P. A. Sauer,
       B. Schimmelpfennig, K. Sneskov, A. H. Steindal,
       K. O. Sylvester-Hvid, P. R. Taylor, A. M. Teale,
       E. I. Tellgren, D. P. Tew, A. J. Thorvaldsen, L. Thoegersen,
       O. Vahtras, M. A. Watson, D. J. D. Wilson, M. Ziolkowski
       and H. Agren,
       "The Dalton quantum chemistry program system",
       WIREs Comput. Mol. Sci. 2014, 4:269–284 (doi: 10.1002/wcms.1172)
     
    and
     
       Dalton, a molecular electronic structure program,
       Release Dalton2020.0.beta (2020), see http://daltonprogram.org
   ----------------------------------------------------------------------------

    Authors in alphabetical order (major contribution(s) in parenthesis):

  Kestutis Aidas,           Vilnius University,           Lithuania   (QM/MM)
  Celestino Angeli,         University of Ferrara,        Italy       (NEVPT2)
  Keld L. Bak,              UNI-C,                        Denmark     (AOSOPPA, non-adiabatic coupling, magnetic properties)
  Vebjoern Bakken,          University of Oslo,           Norway      (DALTON; geometry optimizer, symmetry detection)
  Radovan Bast,             UiT The Arctic U. of Norway,  Norway      (DALTON installation and execution frameworks)
  Pablo Baudin,             University of Valencia,       Spain       (Cholesky excitation energies)
  Linus Boman,              NTNU,                         Norway      (Cholesky decomposition and subsystems)
  Ove Christiansen,         Aarhus University,            Denmark     (CC module)
  Renzo Cimiraglia,         University of Ferrara,        Italy       (NEVPT2)
  Sonia Coriani,            Technical Univ. of Denmark,   Denmark     (CC module, MCD in RESPONS)
  Janusz Cukras,            University of Trieste,        Italy       (MChD in RESPONS)
  Paal Dahle,               University of Oslo,           Norway      (Parallelization)
  Erik K. Dalskov,          UNI-C,                        Denmark     (SOPPA)
  Thomas Enevoldsen,        Univ. of Southern Denmark,    Denmark     (SOPPA)
  Janus J. Eriksen,         Aarhus University,            Denmark     (Polarizable embedding model, TDA)
  Rasmus Faber,             University of Copenhagen,     Denmark     (Vib.avg. NMR with SOPPA, parallel AO-SOPPA)
  Tobias Fahleson,          KTH Stockholm,                Sweden      (Damped cubic response)
  Berta Fernandez,          U. of Santiago de Compostela, Spain       (doublet spin, ESR in RESPONS)
  Lara Ferrighi,            Aarhus University,            Denmark     (PCM Cubic response)
  Heike Fliegl,             University of Oslo,           Norway      (CCSD(R12))
  Luca Frediani,            UiT The Arctic U. of Norway,  Norway      (PCM)
  Bin Gao,                  UiT The Arctic U. of Norway,  Norway      (Gen1Int library)
  Christof Haettig,         Ruhr-University Bochum,       Germany     (CC module)
  Kasper Hald,              Aarhus University,            Denmark     (CC module)
  Asger Halkier,            Aarhus University,            Denmark     (CC module)
  Frederik Beyer Hansen,    University of Copenhagen,     Denmark     (Parallel AO-SOPPA)
  Erik D. Hedegaard,        Univ. of Southern Denmark,    Denmark     (Polarizable embedding model, QM/MM)
  Hanne Heiberg,            University of Oslo,           Norway      (geometry analysis, selected one-electron integrals)
  Trygve Helgaker,          University of Oslo,           Norway      (DALTON; ABACUS, ERI, DFT modules, London, and much more)
  Alf Christian Hennum,     University of Oslo,           Norway      (Parity violation)
  Hinne Hettema,            University of Auckland,       New Zealand (quadratic response in RESPONS; SIRIUS supersymmetry)
  Eirik Hjertenaes,         NTNU,                         Norway      (Cholesky decomposition)
  Pi A. B. Haase,           University of Copenhagen,     Denmark     (Triplet AO-SOPPA)
  Maria Francesca Iozzi,    University of Oslo,           Norway      (RPA)
  Christoph Jacob           TU Braunschweig               Germany     (Frozen density embedding model)
  Brano Jansik              Technical Univ. of Ostrava    Czech Rep.  (DFT cubic response)
  Hans Joergen Aa. Jensen,  Univ. of Southern Denmark,    Denmark     (DALTON; SIRIUS, RESPONS, ABACUS modules, London, and much more)
  Dan Jonsson,              UiT The Arctic U. of Norway,  Norway      (cubic response in RESPONS module)
  Poul Joergensen,          Aarhus University,            Denmark     (RESPONS, ABACUS, and CC modules)
  Maciej Kaminski,          University of Warsaw,         Poland      (CPPh in RESPONS)
  Joanna Kauczor,           Linkoeping University,        Sweden      (Complex polarization propagator (CPP) module)
  Sheela Kirpekar,          Univ. of Southern Denmark,    Denmark     (Mass-velocity & Darwin integrals)
  Wim Klopper,              KIT Karlsruhe,                Germany     (R12 code in CC, SIRIUS, and ABACUS modules)
  Stefan Knecht,            ETH Zurich,                   Switzerland (Parallel CI and MCSCF)
  Rika Kobayashi,           Australian National Univ.,    Australia   (DIIS in CC, London in MCSCF)
  Henrik Koch,              NTNU,                         Norway      (CC module, Cholesky decomposition)
  Jacob Kongsted,           Univ. of Southern Denmark,    Denmark     (Polarizable embedding model, QM/MM)
  Andrea Ligabue,           University of Modena,         Italy       (CTOCD, AOSOPPA)
  Nanna H. List             Univ. of Southern Denmark,    Denmark     (Polarizable embedding model)
  Ola B. Lutnaes,           University of Oslo,           Norway      (DFT Hessian)
  Juan I. Melo,             University of Buenos Aires,   Argentina   (LRESC, Relativistic Effects on NMR Shieldings)
  Kurt V. Mikkelsen,        University of Copenhagen,     Denmark     (MC-SCRF and QM/MM)
  Rolf H. Myhre,            NTNU,                         Norway      (Subsystems and CC3)
  Christian Neiss,          Univ. Erlangen-Nuernberg,     Germany     (CCSD(R12))
  Christian B. Nielsen,     University of Copenhagen,     Denmark     (QM/MM)
  Patrick Norman,           KTH Stockholm,                Sweden      (Cubic response and complex frequency response in RESPONS)
  Jeppe Olsen,              Aarhus University,            Denmark     (SIRIUS CI/density modules)
  Jogvan Magnus H. Olsen,   Univ. of Southern Denmark,    Denmark     (Polarizable embedding model, QM/MM)
  Anders Osted,             Copenhagen University,        Denmark     (QM/MM)
  Martin J. Packer,         University of Sheffield,      UK          (SOPPA)
  Filip Pawlowski,          Kazimierz Wielki University,  Poland      (CC3)
  Morten N. Pedersen,       Univ. of Southern Denmark,    Denmark     (Polarizable embedding model)
  Thomas B. Pedersen,       University of Oslo,           Norway      (Cholesky decomposition)
  Patricio F. Provasi,      University of Northeastern,   Argentina   (Analysis of coupling constants in localized orbitals)
  Zilvinas Rinkevicius,     KTH Stockholm,                Sweden      (open-shell DFT, ESR)
  Elias Rudberg,            KTH Stockholm,                Sweden      (DFT grid and basis info)
  Torgeir A. Ruden,         University of Oslo,           Norway      (Numerical derivatives in ABACUS)
  Kenneth Ruud,             UiT The Arctic U. of Norway,  Norway      (DALTON; ABACUS magnetic properties and much more)
  Pawel Salek,              KTH Stockholm,                Sweden      (DALTON; DFT code)
  Claire C. M. Samson       University of Karlsruhe       Germany     (Boys localization, r12 integrals in ERI)
  Alfredo Sanchez de Meras, University of Valencia,       Spain       (CC module, Cholesky decomposition)
  Trond Saue,               Paul Sabatier University,     France      (direct Fock matrix construction)
  Stephan P. A. Sauer,      University of Copenhagen,     Denmark     (SOPPA(CCSD), SOPPA prop., AOSOPPA, vibrational g-factors)
  Andre S. P. Gomes,        CNRS/Universite de Lille,     France      (Frozen density embedding model)
  Bernd Schimmelpfennig,    Forschungszentrum Karlsruhe,  Germany     (AMFI module)
  Anna K. Schnack-Petersen, University of Copenhagen,     Denmark     (RPA(D) and HRPA(D) properties in AOSOPPA)
  Kristian Sneskov,         Aarhus University,            Denmark     (Polarizable embedding model, QM/MM)
  Arnfinn H. Steindal,      UiT The Arctic U. of Norway,  Norway      (parallel QM/MM, Polarizable embedding model)
  Casper Steinmann,         Univ. of Southern Denmark,    Denmark     (QFIT, Polarizable embedding model)
  K. O. Sylvester-Hvid,     University of Copenhagen,     Denmark     (MC-SCRF)
  Peter R. Taylor,          VLSCI/Univ. of Melbourne,     Australia   (Symmetry handling ABACUS, integral transformation)
  Andrew M. Teale,          University of Nottingham,     England     (DFT-AC, DFT-D)
  David P. Tew,             University of Bristol,        England     (CCSD(R12))
  Olav Vahtras,             KTH Stockholm,                Sweden      (triplet response, spin-orbit, ESR, TDDFT, open-shell DFT)
  Lucas Visscher,           Vrije Universiteit Amsterdam, Netherlands (Frozen density embedding model)
  David J. Wilson,          La Trobe University,          Australia   (DFT Hessian and DFT magnetizabilities)
  Hans Agren,               KTH Stockholm,                Sweden      (SIRIUS module, RESPONS, MC-SCRF solvation model)
 --------------------------------------------------------------------------------

     Date and time (Linux)  : Fri Apr  3 12:51:04 2020
     Host name              : localhost.localdomain                   

 * Work memory size             :    64000000 =  488.28 megabytes.

 * Directories for basis set searches:
   1) /home/foeroyingur/Projects/dalton_devel/dalton/build_test/test/pemcscf_triplet
   2) /home/foeroyingur/Projects/dalton_devel/dalton/build_test/basis


Compilation information
-----------------------

 Who compiled             | foeroyingur
 Host                     | localhost.localdomain
 System                   | Linux-5.6.0-0.rc7.git0.2.fc32.x86_64
 CMake generator          | Unix Makefiles
 Processor                | x86_64
 64-bit integers          | OFF
 MPI                      | OFF
 Fortran compiler         | /usr/bin/gfortran
 Fortran compiler version | GNU Fortran (GCC) 10.0.1 20200311 (Red Hat 10.0.1-
                          | 0.9)
 C compiler               | /usr/bin/gcc
 C compiler version       | gcc (GCC) 10.0.1 20200311 (Red Hat 10.0.1-0.9)
 C++ compiler             | /usr/bin/g++
 C++ compiler version     | g++ (GCC) 10.0.1 20200311 (Red Hat 10.0.1-0.9)
 BLAS                     | /lib64/libopenblas.so
 LAPACK                   | /lib64/liblapack.so
 Static linking           | OFF
 Last Git revision        | 4ac790d5fa49c8e3deae30befc62d312c6d6287a
 Git branch               | dal18-improvements
 Configuration time       | 2020-04-03 12:41:05.947725


   Content of the .dal input file
 ----------------------------------

**DALTON
.RUN RESPONSE
.PEQM
**WAVE FUNCTIONS
.HF
.MCSCF
*OPTIMIZATION
.THRESHOLD
1.0D-10
.DETERMINANTS
*CONFIGURATION INPUT
.SYMMETRY
 1
.SPIN MUL
 1
.INACTIVE
 3
.ELECTRONS
 4
.CAS SPACE
 4
**RESPONSE
*LINEAR
!.ABCHK
.TRIPLET
.PRINT
4
.SINGLE RESIDUE
.DIPLEN
.ROOTS
2
**END OF


   Content of the .mol file
 ----------------------------

BASIS
6-31G*
H2O Close to Eq. Bond length
using the cc-pVDZ basis
Atomtypes=2 Angstrom NoSymmetry
Charge=8.0 Atoms=1
O       0.0000000000    0.000000000     0.0000000000
Charge=1.0 Atoms=2
H      -0.7567991384    0.000000000     0.5860071813
H       0.7567991384    0.000000000     0.5860071813


       *******************************************************************
       *********** Output from DALTON general input processing ***********
       *******************************************************************

 --------------------------------------------------------------------------------
   Overall default print level:    0
   Print level for DALTON.STAT:    1

    HERMIT 1- and 2-electron integral sections will be executed
    "Old" integral transformation used (limited to max 255 basis functions)
    Wave function sections will be executed (SIRIUS module)
    Dynamic molecular response properties section will be executed (RESPONSE module)
    Environment is modeled using polarizable embedding scheme (PE library)
 --------------------------------------------------------------------------------


   ****************************************************************************
   *************** Output of molecule and basis set information ***************
   ****************************************************************************


    The two title cards from your ".mol" input:
    ------------------------------------------------------------------------
 1: H2O Close to Eq. Bond length                                            
 2: using the cc-pVDZ basis                                                 
    ------------------------------------------------------------------------

  Coordinates are entered in Angstrom and converted to atomic units.
          - Conversion factor : 1 bohr = 0.52917721 A

  Atomic type no.    1
  --------------------
  Nuclear charge:   8.00000
  Number of symmetry independent centers:    1
  Number of basis sets to read;    2
  Basis set file used for this atomic type with Z =   8 :
     "/home/foeroyingur/Projects/dalton_devel/dalton/build_test/basis/6-31G*"

  Info about the basis set file: your basis has no documentation.
  Basis set: 6-31G*                                                                          

  Atomic type no.    2
  --------------------
  Nuclear charge:   1.00000
  Number of symmetry independent centers:    2
  Number of basis sets to read;    2
  Basis set file used for this atomic type with Z =   1 :
     "/home/foeroyingur/Projects/dalton_devel/dalton/build_test/basis/6-31G*"

  Info about the basis set file: your basis has no documentation.
  Basis set: 6-31G*                                                                          


                         SYMGRP: Point group information
                         -------------------------------

@    Point group: C1 


                                 Isotopic Masses
                                 ---------------

                           O          15.994915
                           H           1.007825
                           H           1.007825

                       Total mass:    18.010565 amu
                       Natural abundance:  99.730 %

 Center-of-mass coordinates (a.u.):    0.000000    0.000000    0.123934
 Center-of-mass coordinates (Angs):    0.000000    0.000000    0.065583


  Atoms and basis sets
  --------------------

  Number of atom types :    2
  Total number of atoms:    3

  Basis set used is "6-31G*" from the basis set library.

  label    atoms   charge   prim   cont     basis
  ----------------------------------------------------------------------
  O           1    8.0000    27    14      [10s4p1d|3s2p1d]                                   
  H           2    1.0000     4     2      [4s|2s]                                            
  ----------------------------------------------------------------------
  total:      3   10.0000    35    18
  ----------------------------------------------------------------------
  Spherical harmonic basis used.

  Threshold for neglecting AO integrals:  1.00D-12


  Cartesian Coordinates (a.u.)
  ----------------------------

  Total number of coordinates:    9
  O       :     1  x   0.0000000000    2  y   0.0000000000    3  z   0.0000000000
  H       :     4  x  -1.4301431032    5  y   0.0000000000    6  z   1.1073930799
  H       :     7  x   1.4301431032    8  y   0.0000000000    9  z   1.1073930799


   Interatomic separations (in Angstrom):
   --------------------------------------

            O           H           H     
            ------      ------      ------
 O     :    0.000000
 H     :    0.957157    0.000000
 H     :    0.957157    1.513598    0.000000


  Max    interatomic separation is    1.5136 Angstrom (    2.8603 Bohr)
  between atoms    3 and    2, "H     " and "H     ".

  Min HX interatomic separation is    0.9572 Angstrom (    1.8088 Bohr)


  Bond distances (Angstrom):
  --------------------------

                  atom 1     atom 2       distance
                  ------     ------       --------
  bond distance:  H          O            0.957157
  bond distance:  H          O            0.957157


  Bond angles (degrees):
  ----------------------

                  atom 1     atom 2     atom 3         angle
                  ------     ------     ------         -----
  bond angle:     H          O          H            104.497




 Principal moments of inertia (u*A**2) and principal axes
 --------------------------------------------------------

   IA       0.614718          1.000000    0.000000    0.000000
   IB       1.154453          0.000000    0.000000    1.000000
   IC       1.769171          0.000000    1.000000    0.000000


 Rotational constants
 --------------------

@    The molecule is planar.

               A                   B                   C

         822132.0863         437764.7783         285658.6762 MHz
           27.423375           14.602261            9.528548 cm-1


@  Nuclear repulsion energy :    9.195432882282 Hartree

  Reading potential input file for polarizable embedding calculation

    .------------------------------------------------.
    | Information from polarizable embedding library |
    `------------------------------------------------´

      Number of classical sites:      9

      Multipole moments upto 2nd order.

      Dipole-dipole polarizabilities.

      Iterative solver for induced moments will be used
      with convergence threshold: 1.0E-08
      Total charge of classical region:   -0.0000
 


                     .---------------------------------------.
                     | Starting in Integral Section (HERMIT) |
                     `---------------------------------------'



 ***************************************************************************************
 ****************** Output from **INTEGRALS input processing (HERMIT) ******************
 ***************************************************************************************


 - Using defaults, no **INTEGRALS input found

 Default print level:        1

 Calculation of one- and two-electron Hamiltonian integrals.

 Center of mass  (bohr):      0.000000000000      0.000000000000      0.123933750084
 Operator center (bohr):      0.000000000000      0.000000000000      0.000000000000
 Gauge origin    (bohr):      0.000000000000      0.000000000000      0.000000000000
 Dipole origin   (bohr):      0.000000000000      0.000000000000      0.000000000000


     ************************************************************************
     ************************** Output from HERINT **************************
     ************************************************************************



                      Nuclear contribution to dipole moments
                      --------------------------------------

                 au               Debye          C m (/(10**-30)

      x      0.00000000         0.00000000         0.00000000
      y      0.00000000         0.00000000         0.00000000
      z      2.21478616         5.62942454        18.77773905



 Threshold for neglecting two-electron integrals:  1.00D-12
 HERMIT - Number of two-electron integrals written:        6023 ( 41.0% )
 HERMIT - Megabytes written:                              0.076

  Total CPU  time used in HERMIT:   0.01 seconds
  Total wall time used in HERMIT:   0.01 seconds


                        .----------------------------------.
                        | End of Integral Section (HERMIT) |
                        `----------------------------------'



                   .--------------------------------------------.
                   | Starting in Wave Function Section (SIRIUS) |
                   `--------------------------------------------'


 CI program in use: SIRIUS-CI

 *** Output from Huckel module :

     Using EWMO model:          T
     Using EHT  model:          F
     Number of Huckel orbitals each symmetry:    7

 EWMO - Energy Weighted Maximum Overlap - is a Huckel type method,
        which normally is better than Extended Huckel Theory.
 Reference: Linderberg and Ohrn, Propagators in Quantum Chemistry (Wiley, 1973)

 Huckel EWMO eigenvalues for symmetry :  1
          -20.684969      -1.611746      -0.778215      -0.688403      -0.616200
           -0.232246      -0.168120

 SETCI, core memory needed for CI:
 LCINDX =         122
 LACIMX =         422
 LBCIMX =           0

 Number of determinants:            36

 Number of configurations:          36

 Time used in SETCI :      0.02s

 **********************************************************************
 *SIRIUS* a direct, restricted step, second order MCSCF program       *
 **********************************************************************

 
     Date and time (Linux)  : Fri Apr  3 12:51:04 2020
     Host name              : localhost.localdomain                   

 Title lines from ".mol" input file:
     H2O Close to Eq. Bond length                                            
     using the cc-pVDZ basis                                                 

 Print level on unit LUPRI =   2 is   0
 Print level on unit LUW4  =   2 is   5

@    MC-SCF optimization.

@    Multi-configurational response calculation.
@              Type: complete active space calculation (CAS).

@    This is a combination run starting with
@              a restricted, closed shell Hartree-Fock calculation


 Initial molecular orbitals are obtained according to
 ".MOSTART EWMO  " input option

@    QM part is embedded in an environment :

@         Model: PE

     Wave function specification
     ============================

     Wave function environment is modeled using the
     polarizable embedding model (PE library).

@    Wave function type        --- PE-MC-SCF ---
@    Number of closed shell electrons           6
@    Number of electrons in active shells       4
@    Total charge of the molecule               0

@    Spin multiplicity and 2 M_S                1         0
@    Total number of symmetries                 1 (point group: C1 )
@    Reference state symmetry                   1 (irrep name : A  )

     Orbital specifications
     ======================
@    Abelian symmetry species          All |    1
@                                          |  A  
                                       --- |  ---
@    Inactive orbitals                   3 |    3
@    Active orbitals                     4 |    4
@    Secondary orbitals                 11 |   11
@    Total number of orbitals           18 |   18
@    Number of basis functions          18 |   18

      -- Initial occupation of symmetries is determined from total charge (only one symmetry!)
      -- Initial occupation of symmetries is :
@    Occupied SCF orbitals               5 |    5

     Optimization information
     ========================
@    Number of determinants                  36
@    Number of orbital rotations             89
     ------------------------------------------
@    Total number of variables              125

     Maximum number of macro iterations      25
     Maximum number of micro iterations     600
     Threshold for MCSCF gradient      1.00D-10
     Number of initial trial vectors          1
     Number of initial CI iterations         -1
     Number of simultaneous trial vectors     1

@    This calculation converges to the lowest state for the specified symmetry and spin species.

     Maximum number of NEO/NR iterations  24


 ***********************************************
 ***** DIIS acceleration of SCF iterations *****
 ***********************************************

 C1-DIIS algorithm; max error vectors =    8

 Iter      Total energy     Embedding energy      Error norm     Delta(E)
 -----------------------------------------------------------------------------

Calculating AOSUPINT
     (Precalculated AO two-electron integrals are transformed to P-supermatrix elements.
      Threshold for discarding integrals :  1.00D-12 )
@  1  -75.8905443351     -4.511876891071E-02    1.45423D+00   -7.59D+01
      Virial theorem: -V/T =      2.000780
@    MULPOP   O      -0.60; H       0.30; H       0.30; 
   1  Level shift: doubly occupied orbital energies shifted by -2.00D-01
 -----------------------------------------------------------------------------
@  2  -76.0429047292     -4.392436163440E-02    3.47528D-01   -1.52D-01
      Virial theorem: -V/T =      2.001019
@    MULPOP   O      -0.90; H       0.44; H       0.46; 
   2  Level shift: doubly occupied orbital energies shifted by -5.00D-02
 -----------------------------------------------------------------------------
@  3  -76.0544855150     -4.966488225414E-02    8.48792D-02   -1.16D-02
      Virial theorem: -V/T =      2.001165
@    MULPOP   O      -1.00; H       0.49; H       0.51; 
   3  Level shift: doubly occupied orbital energies shifted by -1.25D-02
 -----------------------------------------------------------------------------
@  4  -76.0553903777     -5.213566377970E-02    1.62246D-02   -9.05D-04
      Virial theorem: -V/T =      2.000833
@    MULPOP   O      -1.03; H       0.50; H       0.53; 
 -----------------------------------------------------------------------------
@  5  -76.0554211124     -5.247539171440E-02    6.32803D-03   -3.07D-05
      Virial theorem: -V/T =      2.001137
@    MULPOP   O      -1.03; H       0.50; H       0.53; 
 -----------------------------------------------------------------------------
@  6  -76.0554249527     -5.263654314071E-02    1.54310D-03   -3.84D-06
      Virial theorem: -V/T =      2.001043
@    MULPOP   O      -1.04; H       0.51; H       0.53; 
 -----------------------------------------------------------------------------
@  7  -76.0554251672     -5.265146886199E-02    1.79047D-04   -2.14D-07
      Virial theorem: -V/T =      2.001070
@    MULPOP   O      -1.04; H       0.51; H       0.53; 
 -----------------------------------------------------------------------------
@  8  -76.0554251710     -5.265124148507E-02    3.31116D-05   -3.85D-09
      Virial theorem: -V/T =      2.001069
@    MULPOP   O      -1.04; H       0.51; H       0.53; 
 -----------------------------------------------------------------------------
@  9  -76.0554251712     -5.265097080423E-02    6.04848D-06   -1.49D-10

@ *** DIIS converged in   9 iterations !
@     Converged SCF energy, gradient:    -76.055425171164    6.05D-06
    - total time used in SIRFCK :              0.00 seconds

    .--------------------------------------------------.
    | Final results from polarizable embedding library |
    `--------------------------------------------------´

        Polarizable embedding energy contributions:
       ---------------------------------------------

       Electrostatic contributions:
            Electronic                 0.017908374014
            Nuclear                   -0.060977881979
            Multipole                 -0.002160732232
            Total                     -0.045230240197

       Polarization contributions:
            Electronic                -0.067121343245
            Nuclear                    0.058473743059
            Multipole                 -0.000933862653
            Total                     -0.009581462839

       Total PE energy:               -0.052650970804
            (excl. multipole-multipole interaction energy)

 --- Writing SIRIFC interface file


                           +---------------------------+
                           ! Writing FOCKMAT in siropt !
                           +---------------------------+


 CPU and wall time for SCF :       0.072       0.072


        SIRIUS MCSCF optimization (SIROPT)
 ================================================



 ----- Output from SIRIUS CI module (CICTL) -----




 2-el. integral transformation level 0: Total CPU and WALL times (sec)       0.001       0.001

 (CIST1) 6 lowest diagonal elements:

 Element no. Config.no.    Active energy      Total energy

         1 :          1     -6.1019025770    -76.0027742004
         2 :          2     -5.7606492275    -75.6615208508
         3 :          7     -5.7606492275    -75.6615208508
         4 :          4     -5.6835803023    -75.5844519257
         5 :         19     -5.6835803023    -75.5844519257
         6 :          3     -5.6737299477    -75.5746015711


 Convergence threshold for CI optimization :     0.01000000


 The requested root number is now converged.


 *** CI converged in  2 iterations.



@ Final CI energies and residuals in symmetry 1 (irrep A  )
@    1      -76.005528028355172       3.24D-03

   --- OUTPUT FROM SIRCNO     Keyword = ONLYFD



 --- MACRO ITERATION  1 ---
 --------------------------

 2-el. integral transformation level 3: Total CPU and WALL times (sec)       0.002       0.002

 Total MCSCF energy       :           -76.054288886189838  (MACRO    1)

 - Nuclear repulsion      :             9.195432882281551
 - Inactive energy        :           -79.096304505619770
 - Active energy          :            -6.104656405016957
 - Embedding energy       :            -0.048760857834662

 Norm of total gradient   :             0.077392795825
 -    of CI gradient      :             0.063884831765
 -    of orbital gradient :             0.043684930078


 *** Label "NATOCC  " not found on SIRIUS.RST in SIRPOP

 WARNING, occupation of active orbitals not available
          population analysis aborted.
          Use ".TRACI" option.


 (SIRNEO) iteration (  1,  2)
 Micro iteration termination criterion met, EVAL(ISTATE+1) = -1.19D-02

   --- OUTPUT FROM SIRCNO     Keyword = FD+NO 


 Occupations of CAS natural orbitals:

 Symmetry  1 ( irrep A   in C1  )

   1.990013850   1.998609092   0.009592526   0.001784532


 --- MACRO ITERATION  2 ---
 --------------------------

 2-el. integral transformation level 3: Total CPU and WALL times (sec)       0.002       0.002

 Total MCSCF energy       :           -76.062758567317914  (MACRO    2)

 - Nuclear repulsion      :             9.195432882281551
 - Inactive energy        :           -79.037487589446044
 - Active energy          :            -6.169630083152206
 - Embedding energy       :            -0.051073777001225

 Norm of total gradient   :             0.126303220648
 -    of CI gradient      :             0.037365681576
 -    of orbital gradient :             0.120649531232
      Virial theorem: -V/T =      1.998827
@    MULPOP   O      -1.03; H       0.50; H       0.53; 

 (SIRNEO) iteration (  2,  4)
 Micro iteration termination criterion met, EVAL(ISTATE+1) = -5.78D-03

   --- OUTPUT FROM SIRCNO     Keyword = FD+NO 


 Occupations of CAS natural orbitals:

 Symmetry  1 ( irrep A   in C1  )

   1.968156673   1.995703311   0.031950558   0.004189458


 --- MACRO ITERATION  3 ---
 --------------------------

 2-el. integral transformation level 3: Total CPU and WALL times (sec)       0.002       0.002

 Total MCSCF energy       :           -76.068454307360128  (MACRO    3)

 - Nuclear repulsion      :             9.195432882281551
 - Inactive energy        :           -78.639748273833646
 - Active energy          :            -6.573893418630613
 - Embedding energy       :            -0.050245497177421

 Norm of total gradient   :             0.249670547773
 -    of CI gradient      :             0.240269159992
 -    of orbital gradient :             0.067868351844
      Virial theorem: -V/T =      2.000314
@    MULPOP   O      -0.98; H       0.49; H       0.49; 

 Residual norm when dim(red L) =   6
 NEO root     CSF        orbital          total
    1     0.02494353     0.01196504     0.02766482 converged

 (NEONEX) NEO vector is converged.

   --- OUTPUT FROM SIRCNO     Keyword = FD+NO 


 Occupations of CAS natural orbitals:

 Symmetry  1 ( irrep A   in C1  )

   1.980567286   1.983087373   0.019540797   0.016804545


 --- MACRO ITERATION  4 ---
 --------------------------

 2-el. integral transformation level 3: Total CPU and WALL times (sec)       0.002       0.002

 Total MCSCF energy       :           -76.089650989918809  (MACRO    4)

 - Nuclear repulsion      :             9.195432882281551
 - Inactive energy        :           -78.607751080351321
 - Active energy          :            -6.626854920349563
 - Embedding energy       :            -0.050477871499482

 Norm of total gradient   :             0.084491986477
 -    of CI gradient      :             0.071530704068
 -    of orbital gradient :             0.044969480255
      Virial theorem: -V/T =      2.000933
@    MULPOP   O      -0.99; H       0.48; H       0.51; 

 (SIRNEO) iteration (  4,  6)
 Micro iteration termination criterion met, EVAL(ISTATE+1) = -1.55D-03

   --- OUTPUT FROM SIRCNO     Keyword = FD+NO 


 Occupations of CAS natural orbitals:

 Symmetry  1 ( irrep A   in C1  )

   1.981037033   1.976852046   0.019438256   0.022672665


 --- MACRO ITERATION  5 ---
 --------------------------

 2-el. integral transformation level 3: Total CPU and WALL times (sec)       0.002       0.002

 Total MCSCF energy       :           -76.099448828810239  (MACRO    5)

 - Nuclear repulsion      :             9.195432882281551
 - Inactive energy        :           -78.458056978168003
 - Active energy          :            -6.785919112799323
 - Embedding energy       :            -0.050905620124467

 Norm of total gradient   :             0.085866985099
 -    of CI gradient      :             0.084922731293
 -    of orbital gradient :             0.012699166893
      Virial theorem: -V/T =      2.000372
@    MULPOP   O      -0.99; H       0.49; H       0.50; 

 Residual norm when dim(red L) =   7
 NEO root     CSF        orbital          total
    1     0.00865625     0.00648856     0.01081814 converged

 (NEONEX) NEO vector is converged.

   --- OUTPUT FROM SIRCNO     Keyword = FD+NO 


 Occupations of CAS natural orbitals:

 Symmetry  1 ( irrep A   in C1  )

   1.980794810   1.978247362   0.019523546   0.021434282


 --- MACRO ITERATION  6 ---
 --------------------------

 2-el. integral transformation level 3: Total CPU and WALL times (sec)       0.002       0.003

 Total MCSCF energy       :           -76.103993314218769  (MACRO    6)

 - Nuclear repulsion      :             9.195432882281551
 - Inactive energy        :           -78.223874099284870
 - Active energy          :            -7.024819169177810
 - Embedding energy       :            -0.050732928037629

 Norm of total gradient   :             0.024375287972
 -    of CI gradient      :             0.019835162650
 -    of orbital gradient :             0.014167603409
      Virial theorem: -V/T =      2.000220
@    MULPOP   O      -0.97; H       0.48; H       0.50; 

 Residual norm when dim(red L) =  13
 NEO root     CSF        orbital          total
    1     0.00154492     0.00031422     0.00157655 converged

 (NEONEX) NEO vector is converged.

   --- OUTPUT FROM SIRCNO     Keyword = FD+NO 


 Occupations of CAS natural orbitals:

 Symmetry  1 ( irrep A   in C1  )

   1.980823719   1.976721238   0.022728998   0.019726045


 --- MACRO ITERATION  7 ---
 --------------------------

 2-el. integral transformation level 3: Total CPU and WALL times (sec)       0.002       0.003

 Total MCSCF energy       :           -76.104542495218780  (MACRO    7)

 - Nuclear repulsion      :             9.195432882281551
 - Inactive energy        :           -78.192448747149285
 - Active energy          :            -7.057184751869223
 - Embedding energy       :            -0.050341878481819

 Norm of total gradient   :             0.037320337946
 -    of CI gradient      :             0.033883028125
 -    of orbital gradient :             0.015644424869
      Virial theorem: -V/T =      2.000210
@    MULPOP   O      -0.97; H       0.47; H       0.50; 

 Residual norm when dim(red L) =   8
 NEO root     CSF        orbital          total
    1     0.00213585     0.00108211     0.00239433 converged

 (NEONEX) NEO vector is converged.

   --- OUTPUT FROM SIRCNO     Keyword = FD+NO 


 Occupations of CAS natural orbitals:

 Symmetry  1 ( irrep A   in C1  )

   1.980972746   1.978386977   0.020849267   0.019791010


 --- MACRO ITERATION  8 ---
 --------------------------

 2-el. integral transformation level 3: Total CPU and WALL times (sec)       0.002       0.003

 Total MCSCF energy       :           -76.105108450175251  (MACRO    8)

 - Nuclear repulsion      :             9.195432882281551
 - Inactive energy        :           -78.176278302754540
 - Active energy          :            -7.073857454540963
 - Embedding energy       :            -0.050405575161290

 Norm of total gradient   :             0.005770196664
 -    of CI gradient      :             0.005460029465
 -    of orbital gradient :             0.001866346106
      Virial theorem: -V/T =      2.000293
@    MULPOP   O      -0.97; H       0.47; H       0.50; 

 Residual norm when dim(red L) =  16
 NEO root     CSF        orbital          total
    1     0.00001318     0.00000518     0.00001417 converged

 (NEONEX) NEO vector is converged.

   --- OUTPUT FROM SIRCNO     Keyword = FD+NO 


 Occupations of CAS natural orbitals:

 Symmetry  1 ( irrep A   in C1  )

   1.981029823   1.978735364   0.020414370   0.019820443


 --- MACRO ITERATION  9 ---
 --------------------------

 2-el. integral transformation level 3: Total CPU and WALL times (sec)       0.002       0.002

 Total MCSCF energy       :           -76.105118425157400  (MACRO    9)

 - Nuclear repulsion      :             9.195432882281551
 - Inactive energy        :           -78.175687769073875
 - Active energy          :            -7.074419123363941
 - Embedding energy       :            -0.050444415001134

 Norm of total gradient   :             0.000071988444
 -    of CI gradient      :             0.000063613480
 -    of orbital gradient :             0.000033699575
      Virial theorem: -V/T =      2.000308
@    MULPOP   O      -0.97; H       0.47; H       0.50; 

 Residual norm when dim(red L) =  21
 NEO root     CSF        orbital          total
    1     0.00000002     0.00000001     0.00000002 converged

 (NEONEX) NEO vector is converged.

   --- OUTPUT FROM SIRCNO     Keyword = FD+NO 


 Occupations of CAS natural orbitals:

 Symmetry  1 ( irrep A   in C1  )

   1.981031569   1.978739185   0.020409562   0.019819685


 --- MACRO ITERATION 10 ---
 --------------------------

 2-el. integral transformation level 3: Total CPU and WALL times (sec)       0.002       0.002

 Total MCSCF energy       :           -76.105118429237763  (MACRO   10)

 - Nuclear repulsion      :             9.195432882281551
 - Inactive energy        :           -78.175728637190161
 - Active energy          :            -7.074377972086100
 - Embedding energy       :            -0.050444702243058

 Norm of total gradient   :             0.000000051836
 -    of CI gradient      :             0.000000048616
 -    of orbital gradient :             0.000000017985
      Virial theorem: -V/T =      2.000308
@    MULPOP   O      -0.97; H       0.47; H       0.50; 

 (SIRSTP) Energy difference;
 actual, predicted and ratio:  -0.000000004080363  -0.000000004079696    1.000163
 Close to convergence, ratio set to one.

 Residual norm when dim(red L) =  17
 NEO root     CSF        orbital          total
    1     0.00000000     0.00000000     0.00000000 converged

 (NEONEX) NEO vector is converged.

   --- OUTPUT FROM SIRCNO     Keyword = FD+NO 


 Occupations of CAS natural orbitals:

 Symmetry  1 ( irrep A   in C1  )

   1.981031570   1.978739188   0.020409558   0.019819684


 --- MACRO ITERATION 11 ---
 --------------------------

 2-el. integral transformation level 3: Total CPU and WALL times (sec)       0.002       0.002

 Total MCSCF energy       :           -76.105118429239880  (MACRO   11)

 - Nuclear repulsion      :             9.195432882281551
 - Inactive energy        :           -78.175728673501155
 - Active energy          :            -7.074377935959340
 - Embedding energy       :            -0.050444702060950

 Norm of total gradient   :             0.000000000095
 -    of CI gradient      :             0.000000000066
 -    of orbital gradient :             0.000000000067
      Virial theorem: -V/T =      2.000308
@    MULPOP   O      -0.97; H       0.47; H       0.50; 

 (SIRSTP) Energy difference;
 actual, predicted and ratio:  -0.000000000002117  -0.000000000000001 1724.242723
 Close to convergence, ratio set to one.

 *** Optimization control: MCSCF converged ***
     Number of macro iterations used           11
     Number of micro iterations used           86
     Total number of CPU seconds used         1.02
     Total WALL time used (seconds)           1.02

    .--------------------------------------------------.
    | Final results from polarizable embedding library |
    `--------------------------------------------------´

        Polarizable embedding energy contributions:
       ---------------------------------------------

       Electrostatic contributions:
            Electronic                 0.019522270769
            Nuclear                   -0.060977881979
            Multipole                 -0.002160732232
            Total                     -0.043616343442

       Polarization contributions:
            Electronic                -0.065573323494
            Nuclear                    0.057492797024
            Multipole                 -0.000908564380
            Total                     -0.008989090850

       Total PE energy:               -0.050444702060
            (excl. multipole-multipole interaction energy)


                           +---------------------------+
                           ! Writing FOCKMAT in siropt !
                           +---------------------------+


 CPU and wall time for MCSCF :       1.038       1.041


                     .----------------------------------------.
                     | --- SIRIUS OPTIMIZATION STATISTICS --- |
                     `----------------------------------------'


 
     Date and time (Linux)  : Fri Apr  3 12:51:05 2020
     Host name              : localhost.localdomain                   


  ITER ITMIC     EMCSCF           GRDNRM        RATIO      STPLNG
 ---------------------------------------------------------------------
    1    2    -76.054288886190   0.0773927958  0.000000   0.6976190030
    2    4    -76.062758567318   0.1263032206  0.843589   0.7456547694
    3    4    -76.068454307360   0.2496705478  0.276573   0.4653691782
    4    6    -76.089650989919   0.0844919865  0.868498   0.5771642823
    5    5    -76.099448828810   0.0858669851  0.757648   0.5866886916
    6   11    -76.103993314219   0.0243752880  0.816102   0.5795771445
    7    6    -76.104542495219   0.0373203379  0.343168   0.1793222690
    8   14    -76.105108450175   0.0057701967  1.054381   0.0197469284
    9   19    -76.105118425157   0.0000719884  1.011271   0.0005122568
   10   15    -76.105118429238   0.0000000518  1.000000   0.0000000000
   11    0    -76.105118429240   0.0000000001  1.000000   0.0000000000


  ITER  INDGCM  GCIMAX      GCINRM     INDGOM  GOBMAX      GOBNRM      GRDNRM
 ------------------------------------------------------------------------------
    1      3    0.043834    0.063885     59    0.023418    0.043685    0.077393
    2     29    0.021591    0.037366     47   -0.059823    0.120650    0.126303
    3     15    0.213139    0.240269     29    0.020151    0.067868    0.249671
    4     21    0.031171    0.071531     80    0.020609    0.044969    0.084492
    5     22    0.060711    0.084923     10   -0.004998    0.012699    0.085867
    6     22    0.014292    0.019835     58    0.005656    0.014168    0.024375
    7      8    0.029114    0.033883     11   -0.008380    0.015644    0.037320
    8      8    0.003989    0.005460     35    0.000758    0.001866    0.005770
    9      8    0.000033    0.000064     11   -0.000014    0.000034    0.000072
   10      8    0.000000    0.000000     60   -0.000000    0.000000    0.000000
   11     25   -0.000000    0.000000     50    0.000000    0.000000    0.000000


  ITER ITMIC NCLIN NOLIN   TIMMAC    TIMITR    TIMMIC    TIMLIN    TIMMIC/ITMIC
 ------------------------------------------------------------------------------

    1     2     2     1      0.04      0.00      0.03      0.03      0.01
    2     4     2     2      0.05      0.00      0.04      0.04      0.01
    3     4     3     2      0.06      0.00      0.05      0.05      0.01
    4     6     3     4      0.08      0.00      0.07      0.07      0.01
    5     5     3     3      0.07      0.00      0.06      0.06      0.01
    6    11     4     8      0.13      0.00      0.12      0.12      0.01
    7     6     2     5      0.08      0.00      0.07      0.07      0.01
    8    14     5    10      0.15      0.00      0.15      0.15      0.01
    9    19     7    13      0.20      0.00      0.20      0.19      0.01
   10    15     6    10      0.16      0.00      0.16      0.15      0.01
   11     0     0     0      0.01      0.00      0.00      0.00


 ITER         EMY                 EACTIV              EMCSCF

    1    -79.096304505620     -6.104656405017    -76.054288886190
    2    -79.037487589446     -6.169630083152    -76.062758567318
    3    -78.639748273834     -6.573893418631    -76.068454307360
    4    -78.607751080351     -6.626854920350    -76.089650989919
    5    -78.458056978168     -6.785919112799    -76.099448828810
    6    -78.223874099285     -7.024819169178    -76.103993314219
    7    -78.192448747149     -7.057184751869    -76.104542495219
    8    -78.176278302755     -7.073857454541    -76.105108450175
    9    -78.175687769074     -7.074419123364    -76.105118425157
   10    -78.175728637190     -7.074377972086    -76.105118429238
   11    -78.175728673501     -7.074377935959    -76.105118429240


 ITER         DEPRED              DEACT               RATIO

    1      0.000000000000      0.000000000000      0.000000000000
    2     -0.010040057871     -0.008469681128      0.843588875355
    3     -0.020593997500     -0.005695740042      0.276572823817
    4     -0.024406144195     -0.021196682559      0.868497800755
    5     -0.012931912351     -0.009797838891      0.757648105385
    6     -0.005568528494     -0.004544485409      0.816101670862
    7     -0.001600325471     -0.000549181000      0.343168317866
    8     -0.000536765260     -0.000565954956      1.054380747336
    9     -0.000009863811     -0.000009974982      1.011270563056
   10     -0.000000004080     -0.000000004080      1.000000000000
   11     -0.000000000000     -0.000000000002      1.000000000000


 ITER    BETA           GAMMA             STPLNG              RTRUST

    1      2.11647224  1.00000000      0.697619002953      0.700000000000
    2      1.87319712  1.00000000      0.745654769375      0.700000000000
    3      2.01660014  1.00000000      0.465369178184      0.469000000000
    4      1.33927634  1.00000000      0.577164282335      0.562800000000
    5      1.58872628  1.00000000      0.586688691592      0.562800000000
    6      0.20000000  1.00000000      0.579577144465      0.675360000000
    7      0.20000000  1.00000000      0.179322269028      0.452491200000
    8      0.20000000  1.00000000      0.019746928379      0.651587328000
    9      0.20000000  1.00000000      0.000512256830      0.700000000000
   10      0.20000000  1.00000000      0.000000000000      0.700000000000
   11      0.00000000  0.00000000      0.000000000000      0.700000000000


 Reduced L root no.  1
 ITER         EVAL              EVEC(1)           EVEC(2)           EVEC(3)
 ----------------------------------------------------------------------------
    1   -0.028285290042   -0.560769824292    0.037869497659    0.824920992817
    2   -0.048975415368    0.582130368673   -0.479847348224   -0.090107909047
    3   -0.105547034485    0.729186534619   -0.049566493383   -0.656596324630
    4   -0.029039675461    0.791187303120    0.004929544561   -0.484826921049
    5   -0.015042106746    0.731509604934   -0.009717279579   -0.659122117057
    6   -0.000126328637    0.993348758611   -0.000205170874   -0.102002916042
    7   -0.000042886058    0.999357490236   -0.001141589553   -0.029235886200
    8   -0.000000789093    0.999992201268   -0.000283171709   -0.003042830455
    9   -0.000000000326    0.999999994752   -0.000003152709   -0.000080093538
   10   -0.000000000000    1.000000000000   -0.000000002511   -0.000000044629
   11    0.000000000000    0.000000000000    0.000000000000    0.000000000000


                       .-----------------------------------.
                       | --- Final results from SIRIUS --- |
                       `-----------------------------------'


@    Spin multiplicity:           1
@    Spatial symmetry:            1 ( irrep  A   in C1  )
@    Total charge of molecule:    0
@    State number:                1

@    Final MCSCF energy:          -76.105118429240                 
@    Nuclear repulsion:             9.195432882282
@    Electronic energy:           -85.250106609460
@    Embedding energy:             -0.050444702061

@    Final gradient norm:           0.000000000095

 
     Date and time (Linux)  : Fri Apr  3 12:51:05 2020
     Host name              : localhost.localdomain                   

 Occupancies of natural orbitals
 -------------------------------

 Symmetry 1  ( A  ) -- Total occupation in this symmetry is  10.000000000

   2.000000000   2.000000000   2.000000000   1.981031570   1.978739188
   0.020409558   0.019819684

File label for MO orbitals:   3Apr20   (CNOORB)

 (Only coefficients > 0.0100 are printed.)

 Molecular orbitals for symmetry species 1  (A  )
 ------------------------------------------------

    Orbital         1        2        3        4        5        6        7
   1 O   :1s    -0.9959   0.2078   0.0024   0.0820   0.0071   0.0339   0.0889
   2 O   :1s    -0.0218  -0.4576   0.0022  -0.1779  -0.0176  -0.2016  -0.5486
   3 O   :1s     0.0084  -0.5540  -0.0149  -0.1042  -0.0022  -0.0179  -0.0072
   4 O   :2px   -0.0000  -0.0026  -0.0040  -0.0418   0.5228   0.8453  -0.3088
   5 O   :2py    0.0000  -0.0233   0.6326   0.0185   0.0077   0.0120   0.0138
   6 O   :2pz   -0.0006   0.2749   0.0130  -0.4907  -0.0318  -0.2615  -0.7314
   7 O   :2px   -0.0000  -0.0072  -0.0080  -0.0229   0.3158  -0.0845   0.0400
   8 O   :2py   -0.0001  -0.0074   0.5184   0.0073   0.0041  -0.0106  -0.0136
   9 O   :2pz    0.0023   0.2319   0.0254  -0.3625  -0.0228   0.0736   0.2474
  11 O   :3d1-  -0.0000  -0.0089   0.0239   0.0059   0.0013   0.0010   0.0022
  12 O   :3d0    0.0001   0.0096   0.0006  -0.0247  -0.0011   0.0023   0.0067
  13 O   :3d1+  -0.0000   0.0017   0.0005  -0.0049   0.0474   0.0538  -0.0172
  14 O   :3d2+   0.0003  -0.0055   0.0051  -0.0169  -0.0012  -0.0111  -0.0238
  15 H   :1s     0.0001  -0.0152   0.0033  -0.1704  -0.2432   0.5964   0.2319
  16 H   :1s    -0.0019   0.0404  -0.0058  -0.0329  -0.0924   0.2764   0.0585
  17 H   :1s     0.0000  -0.0153   0.0029  -0.2035   0.2089  -0.2981   0.5604
  18 H   :1s    -0.0019   0.0432  -0.0019  -0.0422   0.0776  -0.1622   0.2076

    Orbital         8        9       10       11       12       13       14
   1 O   :1s     0.0375  -0.0013  -0.0028   0.0192  -0.0738   0.0482  -0.0001
   2 O   :1s     0.2106  -0.0143   0.0181  -0.1183   0.3881  -1.4927   0.1259
   3 O   :1s    -1.3176   0.0688  -0.0054   0.0262   0.0417   2.4402  -0.2519
   4 O   :2px    0.0137   0.2974  -0.5131   0.0207   0.0380  -0.0011  -0.0011
   5 O   :2py   -0.0126   0.0064  -0.0393  -0.9339  -0.2462   0.0070  -0.0002
   6 O   :2pz    0.3977  -0.0199  -0.0198   0.1097  -0.5148   0.1091   0.0201
   7 O   :2px   -0.0545  -0.8654   1.6223  -0.0521  -0.0977  -0.0013   0.0006
   8 O   :2py    0.0238  -0.0079   0.0455   0.9987   0.2566   0.0013   0.0010
   9 O   :2pz   -0.7715   0.0352   0.0471  -0.2550   1.0452   0.4821  -0.1413
  10 O   :3d2-   0.0001  -0.0013   0.0025   0.0000  -0.0003  -0.0002  -0.0133
  11 O   :3d1-  -0.0005  -0.0000   0.0008   0.0155   0.0051   0.0016   0.0000
  12 O   :3d0   -0.0163   0.0007   0.0015  -0.0090   0.0343   0.0499   0.9878
  13 O   :3d1+  -0.0052  -0.1101  -0.1447   0.0035   0.0066   0.0002   0.0002
  14 O   :3d2+  -0.0577   0.0039  -0.0078   0.0456  -0.1683  -0.2827  -0.1130
  15 H   :1s    -0.3177   0.5277   0.5346   0.1657  -0.6648  -0.3735   0.0796
  16 H   :1s     1.0527  -1.6946   0.5314  -0.0767   0.0862  -0.5453   0.0496
  17 H   :1s    -0.3585  -0.4777  -0.6001   0.1926  -0.6172  -0.3756   0.0796
  18 H   :1s     1.2402   1.5701  -0.5084  -0.0338   0.1658  -0.5430   0.0491

    Orbital        15       16       17
   1 O   :1s    -0.0002   0.0011   0.0166
   2 O   :1s     0.0017   0.0001   0.6026
   3 O   :1s    -0.0020  -0.0078  -1.4098
   6 O   :2pz   -0.0008   0.0078   0.0759
   8 O   :2py   -0.0009  -0.0293   0.0028
   9 O   :2pz   -0.0019   0.0012  -0.7497
  10 O   :3d2-   0.9999  -0.0082   0.0001
  11 O   :3d1-   0.0081   0.9995   0.0009
  12 O   :3d0    0.0131   0.0001  -0.1523
  14 O   :3d2+  -0.0015   0.0016  -1.0784
  15 H   :1s     0.0009   0.0001   0.8305
  16 H   :1s    -0.0025   0.0019   0.1338
  17 H   :1s     0.0012   0.0000   0.8344
  18 H   :1s     0.0033   0.0018   0.1332

 Printout of CI-coefficients abs greater than 0.05000 for root  1
 *** NOTE: this root is the reference state ***


  Printout of coefficients in interval   0.3162E+00 to  0.1000E+01
  ==============================================================

 Coefficient of determinant         1 is     -0.98995329 -9.89953286E-01
 alpha-string:  1  2
  beta-string:  1  2


  Printout of coefficients in interval   0.1000E+00 to  0.3162E+00
  ==============================================================
   ( no coefficients )


  Printout of coefficients in interval   0.5000E-01 to  0.1000E+00
  ==============================================================

 Coefficient of determinant         8 is      0.07247755  7.24775515E-02
 alpha-string:  1     3
  beta-string:  1     3

 Coefficient of determinant        29 is      0.06676298  6.67629840E-02
 alpha-string:     2     4
  beta-string:     2     4

 Norm of printed part of CI vector ..      0.98971780

  Magnitude of CI coefficients
  ============================

  ( Ranges are relative to norm of vector :  1.00E+00 )

  10- 1 to 10- 0         1    0.98000751E+00    0.98000751E+00
  10- 2 to 10- 1        17    0.19826225E-01    0.99983373E+00
  10- 3 to 10- 2         2    0.16447476E-03    0.99999821E+00
  10- 4 to 10- 3         4    0.17672159E-05    0.99999997E+00
  10- 5 to 10- 4        10    0.25438367E-07    0.10000000E+01
  10- 6 to 10- 5         2    0.21601522E-11    0.10000000E+01
  Number of coefficients less than 10^-11 times norm is             0

  Total CPU  time used in SIRIUS :   1.11 seconds
  Total wall time used in SIRIUS :   1.12 seconds

 
     Date and time (Linux)  : Fri Apr  3 12:51:05 2020
     Host name              : localhost.localdomain                   

 NOTE:    1 warnings have been issued.
 Check output, result, and error files for "WARNING".


                     .---------------------------------------.
                     | End of Wave Function Section (SIRIUS) |
                     `---------------------------------------'



                 .------------------------------------------------.
                 | Starting in Dynamic Property Section (RESPONS) |
                 `------------------------------------------------'


 ----------------------------------------------------------------------------------------
  RESPONSE  -  an MCSCF, MC-srDFT, DFT, SOPPA and SOPPA-srDFT response property program
 ----------------------------------------------------------------------------------------


 -------- OUTPUT FROM RESPONSE INPUT PROCESSING --------




  Linear Response single residue calculation
 -------------------------------------------

 Environment is modeled using the polarizable embedding scheme (PE library)

    5 input options by user.

 Print level                                    : IPRPP  =   4
 Maximum number of iterations for eigenval.eqs. : MAXITP =  60
 Threshold for convergence of eigenvalue eqs.   : THCPP  = 1.000D-03
 Maximum iterations in optimal orbital algorithm: MAXITO =   5

 General print level in RESPONS is IPRRSP =         4

      2 Excitation energies are calculated for symmetry no.    1

      3 property residues are calculated with labels:

               XDIPLEN 
               YDIPLEN 
               ZDIPLEN 

 Old direct access AO file found, SORTA skipped.

 2-el. integral transformation level 4: Total CPU and WALL times (sec)       0.003       0.003

 Sorting integrals to Dirac format: Total CPU and WALL times (sec)       0.000       0.000


 MCSCF energy         :      -76.105118429239880
 -- inactive part     :      -78.175728673501155
 --   active part     :       -7.074377935959340
 -- nuclear repulsion :        9.195432882281551


                        **********************************
                        *** MCSCF response calculation ***
                        **********************************

 Environment is modeled using the polarizable embedding scheme (PE library)
 ----------------------------------------------------------------
 ----- Linear response calculation
 ----- Symmetry of excitation/property operator(s)    1  ( A  )
 ----------------------------------------------------------------

 Number of excitations of this symmetry            2
 Number of response properties of this symmetry    0
 Number of C6/C8 properties of this symmetry       0


 Perturbation symmetry.     KSYMOP:           1
 Perturbation spin symmetry.TRPLET:           T
 Orbital variables.         KZWOPT:          89
 Configuration variables.   KZCONF:          36
 Total number of variables. KZVAR :         125

 --- In RSPPP:
 THCPP, MAXRM          1.00D-03       600
 KSYMOP,NGPPP(KSYMOP)         1         3
 LWRK , LWRK1          63998204  62916404
  KEXCNV,NSIM,LWRK2            2           2     1083487



 --- EXCITATION ENERGIES AND TRANSITION MOMENT CALCULATION (MCTDHF) ---

 Operator symmetry = 1  ( A  ); triplet =   T

           2  START configuration VECTORS USING LOWEST EIGENVALUES OF PHP
           0  START orbital VECTORS

 ** RSPCTL MICROITERATION NUMBER    1

      Root  Residual tot.,    conf., and orb.    Bnorm      Eigenvalue
      ----------------------------------------------------------------
         1    6.19700D-01  1.14D-14  6.20D-01  1.00D+00    8.44202D-01
         2    6.14921D-01  1.23D-14  6.15D-01  1.00D+00    8.76164D-01

 ** RSPCTL MICROITERATION NUMBER    2

      Root  Residual tot.,    conf., and orb.    Bnorm      Eigenvalue
      ----------------------------------------------------------------
         1    1.48372D-01  6.11D-02  1.35D-01  9.30D-01    5.50130D-01
         2    1.97583D-01  4.29D-02  1.93D-01  9.60D-01    5.80879D-01

 ** RSPCTL MICROITERATION NUMBER    3

      Root  Residual tot.,    conf., and orb.    Bnorm      Eigenvalue
      ----------------------------------------------------------------
         1    9.31394D-02  6.87D-02  6.29D-02  1.08D+00    5.34212D-01
         2    1.42036D-01  6.73D-02  1.25D-01  1.10D+00    5.48904D-01

 ** RSPCTL MICROITERATION NUMBER    4

      Root  Residual tot.,    conf., and orb.    Bnorm      Eigenvalue
      ----------------------------------------------------------------
         1    1.00030D-01  8.41D-02  5.41D-02  1.08D+00    5.27907D-01
         2    1.16138D-01  1.05D-01  4.96D-02  1.07D+00    5.36639D-01

 ** RSPCTL MICROITERATION NUMBER    5

      Root  Residual tot.,    conf., and orb.    Bnorm      Eigenvalue
      ----------------------------------------------------------------
         1    1.55708D-01  7.20D-03  1.56D-01  9.96D-01    4.73555D-01
         2    4.40545D-02  6.31D-03  4.36D-02  1.09D+00    5.31598D-01

 ** RSPCTL MICROITERATION NUMBER    6

      Root  Residual tot.,    conf., and orb.    Bnorm      Eigenvalue
      ----------------------------------------------------------------
         1    5.91646D-02  2.61D-02  5.31D-02  9.62D-01    4.58936D-01
         2    4.12936D-02  2.93D-02  2.91D-02  1.05D+00    5.29287D-01

 ** RSPCTL MICROITERATION NUMBER    7

      Root  Residual tot.,    conf., and orb.    Bnorm      Eigenvalue
      ----------------------------------------------------------------
         1    1.04476D-01  2.47D-02  1.02D-01  9.95D-01    4.51460D-01
         2    1.08368D-01  8.87D-03  1.08D-01  1.01D+00    5.24679D-01

 ** RSPCTL MICROITERATION NUMBER    8

      Root  Residual tot.,    conf., and orb.    Bnorm      Eigenvalue
      ----------------------------------------------------------------
         1    2.07699D-01  3.08D-02  2.05D-01  1.10D+00    3.99863D-01
         2    1.24203D-01  1.23D-02  1.24D-01  9.60D-01    4.71759D-01

 ** RSPCTL MICROITERATION NUMBER    9

      Root  Residual tot.,    conf., and orb.    Bnorm      Eigenvalue
      ----------------------------------------------------------------
         1    6.35601D-02  1.41D-02  6.20D-02  9.43D-01    3.72291D-01
         2    3.33880D-02  1.79D-02  2.82D-02  9.63D-01    4.64201D-01

 ** RSPCTL MICROITERATION NUMBER   10

      Root  Residual tot.,    conf., and orb.    Bnorm      Eigenvalue
      ----------------------------------------------------------------
         1    2.93477D-02  8.50D-03  2.81D-02  9.61D-01    3.68915D-01
         2    2.33330D-02  2.02D-02  1.16D-02  9.76D-01    4.63573D-01

 ** RSPCTL MICROITERATION NUMBER   11

      Root  Residual tot.,    conf., and orb.    Bnorm      Eigenvalue
      ----------------------------------------------------------------
         1    1.08376D-02  2.18D-03  1.06D-02  9.85D-01    3.68281D-01
         2    8.04405D-03  5.52D-03  5.85D-03  9.83D-01    4.63260D-01

 ** RSPCTL MICROITERATION NUMBER   12

      Root  Residual tot.,    conf., and orb.    Bnorm      Eigenvalue
      ----------------------------------------------------------------
         1    4.85565D-03  1.83D-03  4.50D-03  9.91D-01    3.68205D-01
         2    6.03457D-03  5.63D-03  2.18D-03  9.91D-01    4.63224D-01

 ** RSPCTL MICROITERATION NUMBER   13

      Root  Residual tot.,    conf., and orb.    Bnorm      Eigenvalue
      ----------------------------------------------------------------
         1    3.73291D-03  1.10D-03  3.57D-03  9.90D-01    3.68184D-01
         2    2.17059D-03  7.70D-04  2.03D-03  9.92D-01    4.63211D-01

 ** RSPCTL MICROITERATION NUMBER   14

      Root  Residual tot.,    conf., and orb.    Bnorm      Eigenvalue
      ----------------------------------------------------------------
         1    1.83703D-03  1.12D-03  1.46D-03  9.87D-01    3.68175D-01
         2    2.07802D-03  8.22D-04  1.91D-03  9.92D-01    4.63205D-01

 ** RSPCTL MICROITERATION NUMBER   15

      Root  Residual tot.,    conf., and orb.    Bnorm      Eigenvalue
      ----------------------------------------------------------------
         1    1.21255D-03  1.13D-03  4.44D-04  9.84D-01    3.68173D-01
         2    4.68045D-03  1.08D-03  4.55D-03  9.91D-01    4.63182D-01

 ** RSPCTL MICROITERATION NUMBER   16

      Root  Residual tot.,    conf., and orb.    Bnorm      Eigenvalue
      ----------------------------------------------------------------
         1    4.30836D-04  2.48D-04  3.53D-04  9.84D-01    3.68173D-01
         2    9.70626D-03  1.06D-03  9.65D-03  9.95D-01    4.63085D-01

 ** RSPCTL MICROITERATION NUMBER   17

      Root  Residual tot.,    conf., and orb.    Bnorm      Eigenvalue
      ----------------------------------------------------------------
         1    4.21736D-04  2.49D-04  3.41D-04  9.84D-01    3.68173D-01
         2    5.12424D-03  1.22D-03  4.98D-03  9.93D-01    4.63002D-01

 ** RSPCTL MICROITERATION NUMBER   18

      Root  Residual tot.,    conf., and orb.    Bnorm      Eigenvalue
      ----------------------------------------------------------------
         1    3.94370D-04  2.49D-04  3.06D-04  9.84D-01    3.68173D-01
         2    1.86726D-03  1.28D-03  1.36D-03  9.89D-01    4.62988D-01

 ** RSPCTL MICROITERATION NUMBER   19

      Root  Residual tot.,    conf., and orb.    Bnorm      Eigenvalue
      ----------------------------------------------------------------
         1    4.30531D-04  2.48D-04  3.52D-04  9.84D-01    3.68173D-01
         2    1.33535D-03  1.27D-03  4.15D-04  9.88D-01    4.62987D-01

 ** RSPCTL MICROITERATION NUMBER   20

      Root  Residual tot.,    conf., and orb.    Bnorm      Eigenvalue
      ----------------------------------------------------------------
         1    4.28683D-04  2.45D-04  3.52D-04  9.84D-01    3.68173D-01
         2    6.14070D-04  4.44D-04  4.24D-04  9.88D-01    4.62986D-01

 *** THE REQUESTED    2 SOLUTION VECTORS CONVERGED

 Convergence of RSP solution vectors, threshold = 1.00D-03
 ---------------------------------------------------------------
 (dimension of paired reduced space:   72)
 RSP solution vector no.    1; norm of residual   4.36D-04
 RSP solution vector no.    2; norm of residual   6.22D-04

 *** RSPCTL MICROITERATIONS CONVERGED

@ Triplet transition operator label: XDIPLEN 
@ STATE NO:    1 *TRANSITION MOMENT:  2.76209314E-02 *ENERGY(eV):   10.018485    
@ STATE NO:    2 *TRANSITION MOMENT:  0.17441803     *ENERGY(eV):   12.598497    

@ Triplet transition operator label: YDIPLEN 
@ STATE NO:    1 *TRANSITION MOMENT:  0.25608356     *ENERGY(eV):   10.018485    
@ STATE NO:    2 *TRANSITION MOMENT: -5.08167437E-02 *ENERGY(eV):   12.598497    

@ Triplet transition operator label: ZDIPLEN 
@ STATE NO:    1 *TRANSITION MOMENT: -0.10047456     *ENERGY(eV):   10.018485    
@ STATE NO:    2 *TRANSITION MOMENT: -0.67123470     *ENERGY(eV):   12.598497    


 **************************************************************************************
 *** @ Excit. operator sym 1 & ref. state sym 1 => excited state symmetry 1  ( A  ) ***
 **************************************************************************************



 @ Excited state no:    1 in symmetry 1  ( A  ) - triplet excitation
 -------------------------------------------------------------------

@ Excitation energy :  0.36817257     au
@                       10.018485     eV;   80804.539     cm-1;   966.63694     kJ / mol

@ Total energy :       -75.736946     au

@ Operator label: XDIPLEN ; Transition moment :  2.76209314E-02 au
@ Oscillator strength (LENGTH)   :  1.87256460E-04  (X-polarization)

@ Operator label: YDIPLEN ; Transition moment :  0.25608356     au
@ Oscillator strength (LENGTH)   :  1.60962075E-02  (Y-polarization)

@ Operator label: ZDIPLEN ; Transition moment : -0.10047456     au
@ Oscillator strength (LENGTH)   :  2.47783498E-03  (Z-polarization)

 Eigenvector for state no.  1

     Response orbital operator symmetry = 1
     (only scaled elements abs greater than   10.00 % of max abs value)

      Index(r,s)      r      s        (r s) operator      (s r) operator      (r s) scaled        (s r) scaled
      ----------    -----  -----      --------------      --------------      --------------      --------------
           9         3(1)   4(1)        0.5972584220        0.0874511823        0.0822579678        0.0120442949
          11         3(1)   6(1)        0.2405711500       -0.0072848122        0.3384786019       -0.0102495792
          12         3(1)   7(1)        0.4708290968       -0.0158035109        0.6625454312       -0.0222385235
          35         3(1)   8(1)        0.4466638623       -0.0066208717        0.6316780919       -0.0093633266
          36         3(1)   9(1)       -0.0617369529        0.0005302541       -0.0873092361        0.0007498926
          39         3(1)  12(1)       -0.0590349215        0.0081201736       -0.0834879867        0.0114836596
          46         4(1)   8(1)        0.0486696657       -0.0005061690        0.0685021277       -0.0007124284

       82 elements with absolute value ≤ 6.63D-02 not printed.

 The numbers in parenthesis give the orbital symmetry.

      Index(conf)                         Z operator          Y operator
      ----------                      --------------      --------------
           2                           -0.0142665353        0.0001010139
           3                            0.0272987520       -0.0003024498
           4                           -0.0103819601        0.0002295673
           5                            0.0534126235       -0.0005057413
           7                            0.0142665353       -0.0001010139
          13                           -0.0272987520        0.0003024498
          19                            0.0103819601       -0.0002295673
          25                           -0.0534126235        0.0005057413

       28 elements with absolute value ≤ 5.34D-03 are not printed.

 The numbers in parenthesis give the configuration symmetry.


  Printout of coefficients in interval   0.2812E-01 to  0.8891E-01
  ==============================================================

 Coefficient of determinant         5 is      0.05341262  5.34126235E-02
 alpha-string:     2     4
  beta-string:  1  2

 Coefficient of determinant        25 is     -0.05341262 -5.34126235E-02
 alpha-string:  1  2
  beta-string:     2     4


  Printout of coefficients in interval   0.8891E-02 to  0.2812E-01
  ==============================================================

 Coefficient of determinant         2 is     -0.01426654 -1.42665353E-02
 alpha-string:  1     3
  beta-string:  1  2

 Coefficient of determinant         3 is      0.02729875  2.72987520E-02
 alpha-string:     2  3
  beta-string:  1  2

 Coefficient of determinant         4 is     -0.01038196 -1.03819601E-02
 alpha-string:  1        4
  beta-string:  1  2

 Coefficient of determinant         7 is      0.01426654  1.42665353E-02
 alpha-string:  1  2
  beta-string:  1     3

 Coefficient of determinant        13 is     -0.02729875 -2.72987520E-02
 alpha-string:  1  2
  beta-string:     2  3

 Coefficient of determinant        19 is      0.01038196  1.03819601E-02
 alpha-string:  1  2
  beta-string:  1        4


  Printout of coefficients in interval   0.5341E-02 to  0.8891E-02
  ==============================================================
   ( no coefficients )

 Norm of printed part of CI vector ..      0.00781890

  Magnitude of CI coefficients
  ============================

  ( Ranges are relative to norm of vector :  8.89E-02 )

  10- 1 to 10- 0         8    0.78188987E-02    0.78188987E-02
  10- 2 to 10- 1        14    0.84886314E-04    0.79037850E-02
  10- 3 to 10- 2         8    0.14267354E-05    0.79052117E-02
  Number of coefficients less than 10^-11 times norm is             6


 @ Excited state no:    2 in symmetry 1  ( A  ) - triplet excitation
 -------------------------------------------------------------------

@ Excitation energy :  0.46298624     au
@                       12.598497     eV;   101613.73     cm-1;   1215.5702     kJ / mol

@ Total energy :       -75.642132     au

@ Operator label: XDIPLEN ; Transition moment :  0.17441803     au
@ Oscillator strength (LENGTH)   :  9.38986988E-03  (X-polarization)

@ Operator label: YDIPLEN ; Transition moment : -5.08167437E-02 au
@ Oscillator strength (LENGTH)   :  7.97059042E-04  (Y-polarization)

@ Operator label: ZDIPLEN ; Transition moment : -0.67123470     au
@ Oscillator strength (LENGTH)   :  0.13906749      (Z-polarization)

 Eigenvector for state no.  2

     Response orbital operator symmetry = 1
     (only scaled elements abs greater than   10.00 % of max abs value)

      Index(r,s)      r      s        (r s) operator      (s r) operator      (r s) scaled        (s r) scaled
      ----------    -----  -----      --------------      --------------      --------------      --------------
           7         2(1)   6(1)       -0.1320844793        0.0023911239       -0.1858401137        0.0033642615
           8         2(1)   7(1)       -0.1617350433       -0.0021609729       -0.2275917413       -0.0030408969
          10         3(1)   5(1)        0.3790825062        0.0524807904        0.0552743530        0.0076522701
          11         3(1)   6(1)        0.3162295070       -0.0048678601        0.4449283358       -0.0068489779
          12         3(1)   7(1)       -0.2179160125        0.0042045636       -0.3066489719        0.0059166148
          24         2(1)   8(1)       -0.1829098777        0.0014517603       -0.2586736297        0.0020530991
          25         2(1)   9(1)        0.0498223176        0.0000449332        0.0704593972        0.0000635451
          35         3(1)   8(1)       -0.0983499516        0.0010391868       -0.1390878355        0.0014696320
          36         3(1)   9(1)       -0.2239461093        0.0006400821       -0.3167076250        0.0009052127
          37         3(1)  10(1)        0.0939342262       -0.0000928189        0.1328430567       -0.0001312657
          45         3(1)  18(1)        0.0345827536       -0.0008433682        0.0489073992       -0.0011927028
          46         4(1)   8(1)        0.2634176903       -0.0019375275        0.3707580895       -0.0027270529
          47         4(1)   9(1)       -0.0575940315        0.0003942341       -0.0810630944        0.0005548810
          58         5(1)   9(1)       -0.0535332164        0.0007546953       -0.0753039253        0.0010616123

       75 elements with absolute value ≤ 4.45D-02 not printed.

 The numbers in parenthesis give the orbital symmetry.

      Index(conf)                         Z operator          Y operator
      ----------                      --------------      --------------
           2                           -0.1077982290        0.0007779065
           3                            0.1768566404       -0.0009629914
           5                            0.2799173072        0.0000271450
           7                            0.1077982290       -0.0007779065
          13                           -0.1768566404        0.0009629914
          25                           -0.2799173072       -0.0000271450

       30 elements with absolute value ≤ 2.80D-02 are not printed.

 The numbers in parenthesis give the configuration symmetry.


  Printout of coefficients in interval   0.1566E+00 to  0.4951E+00
  ==============================================================

 Coefficient of determinant         3 is      0.17685664  1.76856640E-01
 alpha-string:     2  3
  beta-string:  1  2

 Coefficient of determinant         5 is      0.27991731  2.79917307E-01
 alpha-string:     2     4
  beta-string:  1  2

 Coefficient of determinant        13 is     -0.17685664 -1.76856640E-01
 alpha-string:  1  2
  beta-string:     2  3

 Coefficient of determinant        25 is     -0.27991731 -2.79917307E-01
 alpha-string:  1  2
  beta-string:     2     4


  Printout of coefficients in interval   0.4951E-01 to  0.1566E+00
  ==============================================================

 Coefficient of determinant         2 is     -0.10779823 -1.07798229E-01
 alpha-string:  1     3
  beta-string:  1  2

 Coefficient of determinant         7 is      0.10779823  1.07798229E-01
 alpha-string:  1  2
  beta-string:  1     3


  Printout of coefficients in interval   0.2799E-01 to  0.4951E-01
  ==============================================================
   ( no coefficients )

 Norm of printed part of CI vector ..      0.24250486

  Magnitude of CI coefficients
  ============================

  ( Ranges are relative to norm of vector :  4.95E-01 )

  10- 1 to 10- 0         6    0.24250486E+00    0.24250486E+00
  10- 2 to 10- 1        12    0.25516642E-02    0.24505652E+00
  10- 3 to 10- 2        10    0.59885034E-04    0.24511641E+00
  10- 4 to 10- 3         2    0.23430902E-06    0.24511664E+00
  Number of coefficients less than 10^-11 times norm is             6


 Time used in polarization propagator calculation is      0.12 CPU seconds for symmetry 1

  Total CPU  time used in RESPONSE:   0.13 seconds
  Total wall time used in RESPONSE:   0.13 seconds


                   .-------------------------------------------.
                   | End of Dynamic Property Section (RESPONS) |
                   `-------------------------------------------'

  Total CPU  time used in DALTON:   1.25 seconds
  Total wall time used in DALTON:   1.26 seconds

 
     Date and time (Linux)  : Fri Apr  3 12:51:05 2020
     Host name              : localhost.localdomain                   
