

     ************************************************************************
     *************** Dalton - An Electronic Structure Program ***************
     ************************************************************************

    This is output from DALTON 2016.alpha
   ----------------------------------------------------------------------------
    NOTE:
     
    Dalton is an experimental code for the evaluation of molecular
    properties using (MC)SCF, DFT, CI, and CC wave functions.
    The authors accept no responsibility for the performance of
    the code or for the correctness of the results.
     
    The code (in whole or part) is provided under a licence and
    is not to be reproduced for further distribution without
    the written permission of the authors or their representatives.
     
    See the home page "http://daltonprogram.org" for further information.
     
    If results obtained with this code are published,
    the appropriate citations would be both of:
     
       K. Aidas, C. Angeli, K. L. Bak, V. Bakken, R. Bast,
       L. Boman, O. Christiansen, R. Cimiraglia, S. Coriani,
       J. Cukras, P. Dahle, E. K. Dalskov, U. Ekstroem,
       T. Enevoldsen, J. J. Eriksen, P. Ettenhuber, B. Fernandez,
       L. Ferrighi, H. Fliegl, L. Frediani, K. Hald, A. Halkier,
       C. Haettig, H. Heiberg, T. Helgaker, A. C. Hennum,
       H. Hettema, E. Hjertenaes, S. Hoest, I.-M. Hoeyvik,
       M. F. Iozzi, B. Jansik, H. J. Aa. Jensen, D. Jonsson,
       P. Joergensen, M. Kaminski, J. Kauczor, S. Kirpekar,
       T. Kjaergaard, W. Klopper, S. Knecht, R. Kobayashi, H. Koch,
       J. Kongsted, A. Krapp, K. Kristensen, A. Ligabue,
       O. B. Lutnaes, J. I. Melo, K. V. Mikkelsen, R. H. Myhre,
       C. Neiss, C. B. Nielsen, P. Norman, J. Olsen,
       J. M. H. Olsen, A. Osted, M. J. Packer, F. Pawlowski,
       T. B. Pedersen, P. F. Provasi, S. Reine, Z. Rinkevicius,
       T. A. Ruden, K. Ruud, V. Rybkin, P. Salek, C. C. M. Samson,
       A. Sanchez de Meras, T. Saue, S. P. A. Sauer,
       B. Schimmelpfennig, K. Sneskov, A. H. Steindal,
       K. O. Sylvester-Hvid, P. R. Taylor, A. M. Teale,
       E. I. Tellgren, D. P. Tew, A. J. Thorvaldsen, L. Thoegersen,
       O. Vahtras, M. A. Watson, D. J. D. Wilson, M. Ziolkowski
       and H. Agren,
       "The Dalton quantum chemistry program system",
       WIREs Comput. Mol. Sci. 2013. (doi: 10.1002/wcms.1172)
    
    and
    
       Dalton, a Molecular Electronic Structure Program,
       Release Dalton2016.0 (2015), see http://daltonprogram.org
   ----------------------------------------------------------------------------

    Authors in alphabetical order (major contribution(s) in parenthesis):

  Kestutis Aidas,           Vilnius University,           Lithuania   (QM/MM)
  Celestino Angeli,         University of Ferrara,        Italy       (NEVPT2)
  Keld L. Bak,              UNI-C,                        Denmark     (AOSOPPA, non-adiabatic coupling, magnetic properties)
  Vebjoern Bakken,          University of Oslo,           Norway      (DALTON; geometry optimizer, symmetry detection)
  Radovan Bast,             UiT The Arctic U. of Norway,  Norway      (DALTON installation and execution frameworks)
  Pablo Baudin,             University of Valencia,       Spain       (Cholesky excitation energies)
  Linus Boman,              NTNU,                         Norway      (Cholesky decomposition and subsystems)
  Ove Christiansen,         Aarhus University,            Denmark     (CC module)
  Renzo Cimiraglia,         University of Ferrara,        Italy       (NEVPT2)
  Sonia Coriani,            University of Trieste,        Italy       (CC module, MCD in RESPONS)
  Janusz Cukras,            University of Trieste,        Italy       (MChD in RESPONS)
  Paal Dahle,               University of Oslo,           Norway      (Parallelization)
  Erik K. Dalskov,          UNI-C,                        Denmark     (SOPPA)
  Thomas Enevoldsen,        Univ. of Southern Denmark,    Denmark     (SOPPA)
  Janus J. Eriksen,         Aarhus University,            Denmark     (Polarizable embedding model, TDA)
  Berta Fernandez,          U. of Santiago de Compostela, Spain       (doublet spin, ESR in RESPONS)
  Lara Ferrighi,            Aarhus University,            Denmark     (PCM Cubic response)
  Heike Fliegl,             University of Oslo,           Norway      (CCSD(R12))
  Luca Frediani,            UiT The Arctic U. of Norway,  Norway      (PCM)
  Bin Gao,                  UiT The Arctic U. of Norway,  Norway      (Gen1Int library)
  Christof Haettig,         Ruhr-University Bochum,       Germany     (CC module)
  Kasper Hald,              Aarhus University,            Denmark     (CC module)
  Asger Halkier,            Aarhus University,            Denmark     (CC module)
  Erik D. Hedegaard,        Univ. of Southern Denmark,    Denmark     (Polarizable embedding model, QM/MM)
  Hanne Heiberg,            University of Oslo,           Norway      (geometry analysis, selected one-electron integrals)
  Trygve Helgaker,          University of Oslo,           Norway      (DALTON; ABACUS, ERI, DFT modules, London, and much more)
  Alf Christian Hennum,     University of Oslo,           Norway      (Parity violation)
  Hinne Hettema,            University of Auckland,       New Zealand (quadratic response in RESPONS; SIRIUS supersymmetry)
  Eirik Hjertenaes,         NTNU,                         Norway      (Cholesky decomposition)
  Maria Francesca Iozzi,    University of Oslo,           Norway      (RPA)
  Brano Jansik              Technical Univ. of Ostrava    Czech Rep.  (DFT cubic response)
  Hans Joergen Aa. Jensen,  Univ. of Southern Denmark,    Denmark     (DALTON; SIRIUS, RESPONS, ABACUS modules, London, and much more)
  Dan Jonsson,              UiT The Arctic U. of Norway,  Norway      (cubic response in RESPONS module)
  Poul Joergensen,          Aarhus University,            Denmark     (RESPONS, ABACUS, and CC modules)
  Maciej Kaminski,          University of Warsaw,         Poland      (CPPh in RESPONS)
  Joanna Kauczor,           Linkoeping University,        Sweden      (Complex polarization propagator (CPP) module)
  Sheela Kirpekar,          Univ. of Southern Denmark,    Denmark     (Mass-velocity & Darwin integrals)
  Wim Klopper,              KIT Karlsruhe,                Germany     (R12 code in CC, SIRIUS, and ABACUS modules)
  Stefan Knecht,            ETH Zurich,                   Switzerland (Parallel CI and MCSCF)
  Rika Kobayashi,           Australian National Univ.,    Australia   (DIIS in CC, London in MCSCF)
  Henrik Koch,              NTNU,                         Norway      (CC module, Cholesky decomposition)
  Jacob Kongsted,           Univ. of Southern Denmark,    Denmark     (Polarizable embedding model, QM/MM)
  Andrea Ligabue,           University of Modena,         Italy       (CTOCD, AOSOPPA)
  Nanna H. List             Univ. of Southern Denmark,    Denmark     (Polarizable embedding model)
  Ola B. Lutnaes,           University of Oslo,           Norway      (DFT Hessian)
  Juan I. Melo,             University of Buenos Aires,   Argentina   (LRESC, Relativistic Effects on NMR Shieldings)
  Kurt V. Mikkelsen,        University of Copenhagen,     Denmark     (MC-SCRF and QM/MM)
  Rolf H. Myhre,            NTNU,                         Norway      (Cholesky, subsystems and ECC2)
  Christian Neiss,          Univ. Erlangen-Nuernberg,     Germany     (CCSD(R12))
  Christian B. Nielsen,     University of Copenhagen,     Denmark     (QM/MM)
  Patrick Norman,           Linkoeping University,        Sweden      (Cubic response and complex response in RESPONS)
  Jeppe Olsen,              Aarhus University,            Denmark     (SIRIUS CI/density modules)
  Jogvan Magnus H. Olsen,   Univ. of Southern Denmark,    Denmark     (Polarizable embedding model, QM/MM)
  Anders Osted,             Copenhagen University,        Denmark     (QM/MM)
  Martin J. Packer,         University of Sheffield,      UK          (SOPPA)
  Filip Pawlowski,          Kazimierz Wielki University,  Poland      (CC3)
  Morten N. Pedersen,       Univ. of Southern Denmark,    Denmark     (Polarizable embedding model)
  Thomas B. Pedersen,       University of Oslo,           Norway      (Cholesky decomposition)
  Patricio F. Provasi,      University of Northeastern,   Argentina   (Analysis of coupling constants in localized orbitals)
  Zilvinas Rinkevicius,     KTH Stockholm,                Sweden      (open-shell DFT, ESR)
  Elias Rudberg,            KTH Stockholm,                Sweden      (DFT grid and basis info)
  Torgeir A. Ruden,         University of Oslo,           Norway      (Numerical derivatives in ABACUS)
  Kenneth Ruud,             UiT The Arctic U. of Norway,  Norway      (DALTON; ABACUS magnetic properties and much more)
  Pawel Salek,              KTH Stockholm,                Sweden      (DALTON; DFT code)
  Claire C. M. Samson       University of Karlsruhe       Germany     (Boys localization, r12 integrals in ERI)
  Alfredo Sanchez de Meras, University of Valencia,       Spain       (CC module, Cholesky decomposition)
  Trond Saue,               Paul Sabatier University,     France      (direct Fock matrix construction)
  Stephan P. A. Sauer,      University of Copenhagen,     Denmark     (SOPPA(CCSD), SOPPA prop., AOSOPPA, vibrational g-factors)
  Bernd Schimmelpfennig,    Forschungszentrum Karlsruhe,  Germany     (AMFI module)
  Kristian Sneskov,         Aarhus University,            Denmark     (Polarizable embedding model, QM/MM)
  Arnfinn H. Steindal,      UiT The Arctic U. of Norway,  Norway      (parallel QM/MM, Polarizable embedding model)
  Casper Steinmann,         Univ. of Southern Denmark,    Denmark     (QFIT, Polarizable embedding model)
  K. O. Sylvester-Hvid,     University of Copenhagen,     Denmark     (MC-SCRF)
  Peter R. Taylor,          VLSCI/Univ. of Melbourne,     Australia   (Symmetry handling ABACUS, integral transformation)
  Andrew M. Teale,          University of Nottingham,     England     (DFT-AC, DFT-D)
  David P. Tew,             University of Bristol,        England     (CCSD(R12))
  Olav Vahtras,             KTH Stockholm,                Sweden      (triplet response, spin-orbit, ESR, TDDFT, open-shell DFT)
  David J. Wilson,          La Trobe University,          Australia   (DFT Hessian and DFT magnetizabilities)
  Hans Agren,               KTH Stockholm,                Sweden      (SIRIUS module, RESPONS, MC-SCRF solvation model)
 --------------------------------------------------------------------------------

     Date and time (Linux)  : Mon Jul 25 11:07:02 2016
     Host name              : spasnode101                             

 * Work memory size             :   128000000 =  976.56 megabytes.

 * Directories for basis set searches:
   1) /home/zth702/source/dalton/DALTON/test/prop_exci_aosopcc2_sing
   2) /home/zth702/source/dalton/build/basis


Compilation information
-----------------------

 Who compiled             | zth702
 Host                     | sunray
 System                   | Linux-3.16.0-4-amd64
 CMake generator          | Unix Makefiles
 Processor                | x86_64
 64-bit integers          | OFF
 MPI                      | OFF
 Fortran compiler         | /usr/bin/gfortran
 Fortran compiler version | GNU Fortran (Debian 4.9.2-10) 4.9.2
 C compiler               | /usr/bin/gcc
 C compiler version       | gcc (Debian 4.9.2-10) 4.9.2
 C++ compiler             | /usr/bin/g++
 C++ compiler version     | g++ (Debian 4.9.2-10) 4.9.2
 BLAS                     | /usr/lib/atlas-base/libf77blas.so;/usr/lib/atlas-b
                          | ase/libcblas.so;/usr/lib/atlas-base/libatlas.so
 LAPACK                   | /usr/lib/atlas-base/libatlas.so;/usr/lib/atlas-bas
                          | e/atlas/liblapack.so
 Static linking           | OFF
 Last Git revision        | 89f3cb2b68eedd19e3da99061b1176f1bbe6da78
 Git branch               | aosoppa_devel
 Configuration time       | 2016-07-25 10:54:14.367209


   Content of the .dal input file
 ----------------------------------

**DALTON INPUT                                    
.RUN PROPERTIES                                   
**WAVE FUNCTIONS                                  
.HF                                               
.CC                                               
*CC INPUT                                         
.CC2                                              
.AO-SOPPA                                         
**PROPERTIES                                      
.SOPPA                                            
.EXCITA                                           
.PRINT                                            
 2                                                
*SOPPA                                            
.AOCC2                                            
*EXCITA                                           
.DIPSTR                                           
.ROTVEL                                           
.NEXCITA                                          
    4    4    4    4    0    0    0    0          
**END OF DALTON INPUT                             


   Content of the .mol file
 ----------------------------

BASIS                                                                          
STO-2G                                                                         
Calculation of excitation energies through ABACUS                              
                                                                               
Atomtypes=2 Multiplicity=1 Charge=0 Generators=2  X  Y                         
Charge=8.0 Atoms=1                                                             
O   0.00000             0.00000              0.1241444240                      
Charge=1.0 Atoms=1                                                             
H   0.00000             1.43153              -0.985265576                      
FINISH                                                                         


       *******************************************************************
       *********** Output from DALTON general input processing ***********
       *******************************************************************

 --------------------------------------------------------------------------------
   Overall default print level:    0
   Print level for DALTON.STAT:    1

    HERMIT 1- and 2-electron integral sections will be executed
    "Old" integral transformation used (limited to max 255 basis functions)
    Wave function sections will be executed (SIRIUS module)
    Static molecular property section will be executed (ABACUS module)
 --------------------------------------------------------------------------------


   ****************************************************************************
   *************** Output of molecule and basis set information ***************
   ****************************************************************************


    The two title cards from your ".mol" input:
    ------------------------------------------------------------------------
 1: Calculation of excitation energies through ABACUS                       
 2:                                                                         
    ------------------------------------------------------------------------

  Atomic type no.    1
  --------------------
  Nuclear charge:   8.00000
  Number of symmetry independent centers:    1
  Number of basis sets to read;    2
  Basis set file used for this atomic type with Z =   8 :
     "/home/zth702/source/dalton/build/basis/STO-2G"

  Atomic type no.    2
  --------------------
  Nuclear charge:   1.00000
  Number of symmetry independent centers:    1
  Number of basis sets to read;    2
  Basis set file used for this atomic type with Z =   1 :
     "/home/zth702/source/dalton/build/basis/STO-2G"


                         SYMGRP: Point group information
                         -------------------------------

@    Point group: C2v

@  * The irrep name for each symmetry:    1: A1     2: B1     3: B2     4: A2 

   * The point group was generated by:

      Reflection in the yz-plane
      Reflection in the xz-plane

   * Group multiplication table

        |  E   C2z  Oxz  Oyz
   -----+--------------------
     E  |  E   C2z  Oxz  Oyz
    C2z | C2z   E   Oyz  Oxz
    Oxz | Oxz  Oyz   E   C2z
    Oyz | Oyz  Oxz  C2z   E 

   * Character table

        |  E   C2z  Oxz  Oyz
   -----+--------------------
    A1  |   1    1    1    1
    B1  |   1   -1    1   -1
    B2  |   1   -1   -1    1
    A2  |   1    1   -1   -1

   * Direct product table

        | A1   B1   B2   A2 
   -----+--------------------
    A1  | A1   B1   B2   A2 
    B1  | B1   A1   A2   B2 
    B2  | B2   A2   A1   B1 
    A2  | A2   B2   B1   A1 


                                 Isotopic Masses
                                 ---------------

                           O          15.994915
                           H   _1      1.007825
                           H   _2      1.007825

                       Total mass:    18.010565 amu
                       Natural abundance:  99.730 %

 Center-of-mass coordinates (a.u.):    0.000000    0.000000   -0.000015


  Atoms and basis sets
  --------------------

  Number of atom types :    2
  Total number of atoms:    3

  Basis set used is "STO-2G" from the basis set library.

  label    atoms   charge   prim   cont     basis
  ----------------------------------------------------------------------
  O           1    8.0000    10     5      [4s2p|2s1p]                                        
  H           2    1.0000     2     1      [2s|1s]                                            
  ----------------------------------------------------------------------
  total:      3   10.0000    14     7
  ----------------------------------------------------------------------

  Threshold for neglecting AO integrals:  1.00D-12


  Cartesian Coordinates (a.u.)
  ----------------------------

  Total number of coordinates:    9
  O       :     1  x   0.0000000000    2  y   0.0000000000    3  z   0.1241444240
  H   / 1 :     4  x   0.0000000000    5  y   1.4315300000    6  z  -0.9852655760
  H   / 2 :     7  x   0.0000000000    8  y  -1.4315300000    9  z  -0.9852655760


  Symmetry Coordinates
  --------------------

  Number of coordinates in each symmetry:     3    2    3    1

  Symmetry  A1  ( 1)

    1   O     z    3
    2   H     y    [  5  -    8 ]/2
    3   H     z    [  6  +    9 ]/2

  Symmetry  B1  ( 2)

    4   O     x    1
    5   H     x    [  4  +    7 ]/2

  Symmetry  B2  ( 3)

    6   O     y    2
    7   H     y    [  5  +    8 ]/2
    8   H     z    [  6  -    9 ]/2

  Symmetry  A2  ( 4)

    9   H     x    [  4  -    7 ]/2


   Interatomic separations (in Angstrom):
   --------------------------------------

            O           H   _1      H   _2
            ------      ------      ------
 O     :    0.000000
 H   _1:    0.958391    0.000000
 H   _2:    0.958391    1.515066    0.000000


  Max    interatomic separation is    1.5151 Angstrom (    2.8631 Bohr)
  between atoms    3 and    2, "H   _2" and "H   _1".

  Min HX interatomic separation is    0.9584 Angstrom (    1.8111 Bohr)


  Bond distances (Angstrom):
  --------------------------

                  atom 1     atom 2       distance
                  ------     ------       --------
  bond distance:  H   _1     O            0.958391
  bond distance:  H   _2     O            0.958391


  Bond angles (degrees):
  ----------------------

                  atom 1     atom 2     atom 3         angle
                  ------     ------     ------         -----
  bond angle:     H   _1     O          H   _2       104.450




 Principal moments of inertia (u*A**2) and principal axes
 --------------------------------------------------------

   IA       0.616959          0.000000    1.000000    0.000000
   IB       1.156694          0.000000    0.000000    1.000000
   IC       1.773652          1.000000    0.000000    0.000000


 Rotational constants
 --------------------

@    The molecule is planar.

               A                   B                   C

         819145.5126         436916.9575         284936.9149 MHz
           27.323753           14.573981            9.504472 cm-1


@  Nuclear repulsion energy :    9.183706230245 Hartree


  Symmetry Orbitals
  -----------------

  Number of orbitals in each symmetry:           4    1    2    0


  Symmetry  A1 ( 1)

    1     O        1s         1
    2     O        1s         2
    3     O        2pz        5
    4     H        1s         6 +    7


  Symmetry  B1 ( 2)

    5     O        2px        3


  Symmetry  B2 ( 3)

    6     O        2py        4
    7     H        1s         6 -    7


  No orbitals in symmetry  A2 ( 4)

  Symmetries of electric field:  B1 (2)  B2 (3)  A1 (1)

  Symmetries of magnetic field:  B2 (3)  B1 (2)  A2 (4)


                     .---------------------------------------.
                     | Starting in Integral Section (HERMIT) |
                     `---------------------------------------'



 ***************************************************************************************
 ****************** Output from **INTEGRALS input processing (HERMIT) ******************
 ***************************************************************************************


 - Using defaults, no **INTEGRALS input found

 Default print level:        1

 * Nuclear model: Point charge

 Calculation of one- and two-electron Hamiltonian integrals.

 Center of mass  (bohr):      0.000000000000      0.000000000000     -0.000015049426
 Operator center (bohr):      0.000000000000      0.000000000000      0.000000000000
 Gauge origin    (bohr):      0.000000000000      0.000000000000      0.000000000000
 Dipole origin   (bohr):      0.000000000000      0.000000000000      0.000000000000


     ************************************************************************
     ************************** Output from HERINT **************************
     ************************************************************************


 Threshold for neglecting two-electron integrals:  1.00D-12
 HERMIT - Number of two-electron integrals written:         138 ( 34.0% )
 HERMIT - Megabytes written:                              0.007

  Total CPU  time used in HERMIT:   0.00 seconds
  Total wall time used in HERMIT:   0.04 seconds


                        .----------------------------------.
                        | End of Integral Section (HERMIT) |
                        `----------------------------------'



                   .--------------------------------------------.
                   | Starting in Wave Function Section (SIRIUS) |
                   `--------------------------------------------'


 *** Output from Huckel module :

     Using EWMO model:          F
     Using EHT  model:          T
     Number of Huckel orbitals each symmetry:    4    1    2    0

 Huckel EHT eigenvalues for symmetry :  1
          -20.705520      -1.505990      -0.670643      -0.292535

 Huckel EHT eigenvalues for symmetry :  2
           -0.616200

 Huckel EHT eigenvalues for symmetry :  3
           -0.731199      -0.257813

 **********************************************************************
 *SIRIUS* a direct, restricted step, second order MCSCF program       *
 **********************************************************************

 
     Date and time (Linux)  : Mon Jul 25 11:07:03 2016
     Host name              : spasnode101                             

 Title lines from ".mol" input file:
     Calculation of excitation energies through ABACUS                       
                                                                             

 Print level on unit LUPRI =   2 is   0
 Print level on unit LUW4  =   2 is   5

@    (Integral direct) CC calculation.

@    This is a combination run starting with
@              a restricted, closed shell Hartree-Fock calculation


 Initial molecular orbitals are obtained according to
 ".MOSTART EHT   " input option

     Wave function specification
     ============================

     For the specification of the Coupled Cluster: see later.

@    Wave function type        --- CC ---
@    Number of closed shell electrons          10
@    Number of electrons in active shells       0
@    Total charge of the molecule               0

@    Spin multiplicity and 2 M_S                1         0
@    Total number of symmetries                 4 (point group: C2v)
@    Reference state symmetry                   1 (irrep name : A1 )

     Orbital specifications
     ======================
@    Abelian symmetry species          All |    1    2    3    4
@                                          |  A1   B1   B2   A2 
                                       --- |  ---  ---  ---  ---
@    Total number of orbitals            7 |    4    1    2    0
@    Number of basis functions           7 |    4    1    2    0

      ** Automatic occupation of RHF orbitals **

      -- Initial occupation of symmetries is determined from extended Huckel guess.           
      -- Initial occupation of symmetries is :
@    Occupied SCF orbitals               5 |    3    1    1    0

     Maximum number of Fock   iterations      0
     Maximum number of DIIS   iterations     60
     Maximum number of QC-SCF iterations     60
     Threshold for SCF convergence     1.00D-06


 Changes of defaults for CC:
 ---------------------------


 MP2 Amplitudes written for atom integral direct SOPPA calculations
  


 ***********************************************
 ***** DIIS acceleration of SCF iterations *****
 ***********************************************

 C1-DIIS algorithm; max error vectors =    4

 Automatic occupation of symmetries with  10 electrons.

 Iter     Total energy    Error norm  Delta(E)    SCF occupation
 -----------------------------------------------------------------------------
     (Precalculated two-electron integrals are transformed to P-supermatrix elements.
      Threshold for discarding integrals :  1.00D-12 )
@  1  -72.6180974833       2.25D+00  -7.26D+01     3   1   1   0
      Virial theorem: -V/T =      2.008514
@      MULPOP O      -0.32; H   _1  0.16; H   _2  0.16; 
   1  Level shift: doubly occupied orbital energies shifted by -2.00D-01
 -----------------------------------------------------------------------------
@  2  -72.7286159230       3.21D-01  -1.11D-01     3   1   1   0
      Virial theorem: -V/T =      2.015371
@      MULPOP O      -0.26; H   _1  0.13; H   _2  0.13; 
   2  Level shift: doubly occupied orbital energies shifted by -5.00D-02
 -----------------------------------------------------------------------------
@  3  -72.7383534472       7.80D-02  -9.74D-03     3   1   1   0
      Virial theorem: -V/T =      2.014173
@      MULPOP O      -0.25; H   _1  0.12; H   _2  0.12; 
   3  Level shift: doubly occupied orbital energies shifted by -1.25D-02
 -----------------------------------------------------------------------------
@  4  -72.7390013293       7.60D-03  -6.48D-04     3   1   1   0
      Virial theorem: -V/T =      2.013411
@      MULPOP O      -0.25; H   _1  0.13; H   _2  0.13; 
 -----------------------------------------------------------------------------
@  5  -72.7390116191       2.03D-03  -1.03D-05     3   1   1   0
      Virial theorem: -V/T =      2.013381
@      MULPOP O      -0.25; H   _1  0.13; H   _2  0.13; 
 -----------------------------------------------------------------------------
@  6  -72.7390123806       2.30D-05  -7.62D-07     3   1   1   0
      Virial theorem: -V/T =      2.013366
@      MULPOP O      -0.25; H   _1  0.13; H   _2  0.13; 
 -----------------------------------------------------------------------------
@  7  -72.7390123807       1.68D-07  -3.64D-11     3   1   1   0

@ *** DIIS converged in   7 iterations !
@     Converged SCF energy, gradient:    -72.739012380668    1.68D-07
    - total time used in SIRFCK :              0.00 seconds


 *** SCF orbital energy analysis ***

 Number of electrons :   10
 Orbital occupations :    3    1    1    0

 Sym       Hartree-Fock orbital energies

1 A1    -19.59045436    -1.24114736    -0.42221206     0.64172156

2 B1     -0.35397685

3 B2     -0.60046818     0.78600111

    E(LUMO) :     0.64172156 au (symmetry 1)
  - E(HOMO) :    -0.35397685 au (symmetry 2)
  ------------------------------------------
    gap     :     0.99569841 au

 --- Writing SIRIFC interface file

 CPU and wall time for SCF :       0.004       0.006


                       .-----------------------------------.
                       | --- Final results from SIRIUS --- |
                       `-----------------------------------'


@    Spin multiplicity:           1
@    Spatial symmetry:            1 ( irrep  A1  in C2v )
@    Total charge of molecule:    0

@    Final HF energy:             -72.739012380668                 
@    Nuclear repulsion:             9.183706230245
@    Electronic energy:           -81.922718610913

@    Final gradient norm:           0.000000167954

 
     Date and time (Linux)  : Mon Jul 25 11:07:03 2016
     Host name              : spasnode101                             

File label for MO orbitals:  25Jul16   FOCKDIIS

 (Only coefficients >0.0100 are printed.)

 Molecular orbitals for symmetry species 1  (A1 )
 ------------------------------------------------

    Orbital         1        2        3        4
   1 O   :1s     0.9860  -0.2653  -0.1328   0.1692
   2 O   :1s     0.0553   0.8158   0.5686  -0.8817
   3 O   :2pz   -0.0077  -0.1257   0.7586   0.7577
   4 H   :1s    -0.0130   0.1769  -0.2943   0.7826

 Molecular orbitals for symmetry species 2  (B1 )
 ------------------------------------------------

    Orbital         1
   1 O   :2px    1.0000

 Molecular orbitals for symmetry species 3  (B2 )
 ------------------------------------------------

    Orbital         1        2
   1 O   :2py    0.5888  -0.9939
   2 H   :1s     0.4612   0.8214

  Total CPU  time used in SIRIUS : 576 hours  0 minutes  0 seconds
  Total wall time used in SIRIUS :   0.00 seconds

 
     Date and time (Linux)  : Mon Jul 25 11:07:03 2016
     Host name              : spasnode101                             


                     .---------------------------------------.
                     | End of Wave Function Section (SIRIUS) |
                     `---------------------------------------'



                    .------------------------------------------.
                    | Starting in Coupled Cluster Section (CC) |
                    `------------------------------------------'

  

 *******************************************************************************
 *******************************************************************************
 *                                                                             *
 *                                                                             *
 *                    START OF COUPLED CLUSTER CALCULATION                     *
 *                                                                             *
 *                                                                             *
 *******************************************************************************
 *******************************************************************************



 CCR12 ANSATZ =   0

 CCR12 APPROX =   0

   

 *******************************************************************
 *                                                                 *
 *----------                                             >---------*
 *---------- OUTPUT FROM COUPLED CLUSTER ENERGY PROGRAM  >---------*
 *----------                                             >---------*
 *                                                                 *
 *******************************************************************


             The Direct Coupled Cluster Energy Program
             -----------------------------------------


          Number of t1 amplitudes                 :         4
          Number of t2 amplitudes                 :        22
          Total number of amplitudes in ccsd      :        26

 Iter.  1: Coupled cluster MP2   energy :     -72.7738864813979944
 Iter.  1: Coupled cluster CC2   energy :     -72.7738821973244399
 Iter.  2: Coupled cluster CC2   energy :     -72.7739729310766279
 Iter.  3: Coupled cluster CC2   energy :     -72.7739815346702699
 Iter.  4: Coupled cluster CC2   energy :     -72.7739818661283806
 Iter.  5: Coupled cluster CC2   energy :     -72.7739818592783081

 CC2   energy converged to within   0.10D-07 is          -72.773981859278
 Final 2-norm of the CC vector function:  5.78826805D-06





             +-------------------------------------------------------+
             ! Final results from the Coupled Cluster energy program !
             +-------------------------------------------------------+



            Total SCF   energy:                   -72.7390123807

            Total MP2   energy:                   -72.7738864814

            Total CC2   energy:                   -72.7739818593
  

 *******************************************************************************
 *******************************************************************************
 *                                                                             *
 *                                                                             *
 *                   SUMMARY OF COUPLED CLUSTER CALCULATION                    *
 *                                                                             *
 *                                                                             *
 *******************************************************************************
 *******************************************************************************

                                                                                
                                                                                
            Total SCF   energy:                   -72.7390123807                
            Total MP2   energy:                   -72.7738864814                
            Total CC2   energy:                   -72.7739818593                
  

 *******************************************************************************
 *******************************************************************************
 *                                                                             *
 *                                                                             *
 *                      END OF COUPLED CLUSTER CALCULATION                     *
 *                                                                             *
 *                                                                             *
 *******************************************************************************
 *******************************************************************************


 CPU and wall time for CC :       0.008       0.013

 
     Date and time (Linux)  : Mon Jul 25 11:07:03 2016
     Host name              : spasnode101                             


                      .-------------------------------------.
                      | End of Coupled Cluster Section (CC) |
                      `-------------------------------------'



        *****************************************************************
        ******** Output from **PROPE input processing for ABACUS ********
        *****************************************************************



      SOPPA : Second Order Polarization Propagator Approximation



 The following molecular properties will be calculated in this run:
 ------------------------------------------------------------------

 Default print level:        2

      Electronic excitation energies 
      No mass-velocity energy correction calculated
      No Darwin energy correction calculated
      Natural orbital connection is used
      for perturbation dependent basis sets.


 Changes of defaults in SOPPA:
 -----------------------------

 AO integral driven SOPPA(CC2) :


 Changes of defaults for .EXCITA:
 --------------------------------

 Number of excitation energies:    4    4    4    4
 Print level          :    2
 Integral print level :    2
 Convergence threshold: 1.00E-04
 Maximum iterations   :   60
 Conventional rotational strength
 Dipole strength


                                 Isotopic Masses
                                 ---------------

                           O          15.994915
                           H   _1      1.007825
                           H   _2      1.007825

                       Total mass:    18.010565 amu
                       Natural abundance:  99.730 %

 Center-of-mass coordinates (a.u.):    0.000000    0.000000   -0.000015

 Center of mass dipole origin  :    0.000000    0.000000   -0.000015

 Center of mass gauge origin   :    0.000000    0.000000   -0.000015


                 .------------------------------------------------.
                 | Starting in Static Property Section (ABACUS) - |
                 `------------------------------------------------'


 
     Date and time (Linux)  : Mon Jul 25 11:07:03 2016
     Host name              : spasnode101                             


                            **************************
                            *** Output from TROINV ***
                            **************************



  Translational and rotational coordinates
  ----------------------------------------


  Symmetry  1

        Translation along Z axis

  Symmetry  2

        Translation along X axis
        Rotation around Y axis

  Symmetry  3

        Translation along Y axis
        Rotation around X axis

  Symmetry  4

        Rotation around Z axis


                  **********************************************
                  *** ABACUS - Excitation energies (.EXCITA) ***
                  **********************************************


 Maximum number of trial vectors for each excitation is  3


 -----------------------------------
 SOPPA(CC2):
 Perturbation symmetry     :       1
 p-h variables             :       8
 2p-2h variables           :      44
 Total number of variables :      52
 -----------------------------------

  ******************************************************************
            SOPPA(CC2)  iterations, Excitation symmetry 1
  ******************************************************************

  ==================================================================
             1. SOPPA(CC2)  iteration, Excitation symmetry 1
  ==================================================================

            --------------------------------------------------
            Excitation   Energy (au)     Residual    Converged
            --------------------------------------------------
                 1       0.64825910     2.9093D-01       no
                 2       1.10375650     2.4188D-01       no
                 3       1.47436614     2.6767D-01       no
                 4       2.00453375     5.0664D-02       no
            --------------------------------------------------

  ==================================================================
             2. SOPPA(CC2)  iteration, Excitation symmetry 1
  ==================================================================

            --------------------------------------------------
            Excitation   Energy (au)     Residual    Converged
            --------------------------------------------------
                 1       0.61847088     2.3975D-03       no
                 2       1.08418337     2.6136D-03       no
                 3       1.44821723     3.3732D-03       no
                 4       2.00305039     5.1747D-03       no
            --------------------------------------------------

  ==================================================================
             3. SOPPA(CC2)  iteration, Excitation symmetry 1
  ==================================================================

            --------------------------------------------------
            Excitation   Energy (au)     Residual    Converged
            --------------------------------------------------
                 1       0.61847055     3.6569D-05      yes
                 2       1.08418286     3.2336D-05      yes
                 3       1.44821612     4.2260D-05      yes
                 4       2.00304839     8.2474D-05      yes
            --------------------------------------------------

 -------------------------------------------------------------
 Iterations stopped since: 
 -------------------------
 All of the excitations are converged.
 -------------------------------------------------------------


 --------------------------------------------------------------

                 Singlet Excitation Energies

 --------------------------------------------------------------
 Excitation symmetry  1, state no.  1

 SOPPA(CC2) excitation energy :  0.61847055     au
                                   16.829440     eV
                                   135738.60     cm-1
                                   1623.7942     kj / mole

 1p-1h + 1h-1p excitation weight:  98.69 + -0.30  =  98.39 %
 2p-2h + 2h-2p excitation weight:   1.61 + -0.00  =   1.61 %

 |=====================================================|
 |          | Symmetry|  Orbital index  |   Amplitude  |
 |          | index   |   a   b   i   j |              |
 |=====================================================|
 |    exci. | 1   1   |   1       3     |    0.975606  |
 |    exci. | 3   3   |   1       1     |    0.201095  |
 |-----------------------------------------------------|
 |    exci. | 1 1 1 1 |   1   1   3   2 |    0.036523  |
 |    exci. | 1 1 1 1 |   1   1   3   3 |    0.071540  |
 |    exci. | 3 1 3 1 |   1   1   1   2 |   -0.043156  |
 |    exci. | 3 1 3 1 |   1   1   1   3 |   -0.089807  |
 |    exci. | 3 3 1 1 |   1   1   3   3 |    0.041888  |
 |    exci. | 1 3 3 1 |   1   1   1   3 |   -0.046084  |
 |    exci. | 1 1 3 3 |   1   1   1   1 |   -0.028719  |
 |=====================================================|

 Printed all single excitation amplitudes greater than 0.100000
 Printed all double excitation amplitudes greater than 0.020000

 --------------------------------------------------------------

                 Singlet Excitation Energies

 --------------------------------------------------------------
 Excitation symmetry  1, state no.  2

 SOPPA(CC2) excitation energy :   1.0841829     au
                                   29.502116     eV
                                   237950.63     cm-1
                                   2846.5217     kj / mole

 1p-1h + 1h-1p excitation weight:  99.91 + -1.11  =  98.80 %
 2p-2h + 2h-2p excitation weight:   1.20 + -0.00  =   1.20 %

 |=====================================================|
 |          | Symmetry|  Orbital index  |   Amplitude  |
 |          | index   |   a   b   i   j |              |
 |=====================================================|
 |    exci. | 1   1   |   1       2     |    0.154888  |
 |    exci. | 1   1   |   1       3     |    0.192017  |
 |    exci. | 3   3   |   1       1     |   -0.975112  |
 |-----------------------------------------------------|
 |    exci. | 1 1 1 1 |   1   1   3   3 |    0.027314  |
 |    exci. | 3 1 3 1 |   1   1   1   3 |   -0.028227  |
 |    exci. | 3 3 1 1 |   1   1   3   2 |    0.077449  |
 |    exci. | 1 3 3 1 |   1   1   1   2 |   -0.036037  |
 |    exci. | 1 3 3 1 |   1   1   1   3 |   -0.050178  |
 |    exci. | 1 1 3 3 |   1   1   1   1 |    0.059352  |
 |    exci. | 3 3 2 2 |   1   1   1   1 |    0.028286  |
 |=====================================================|

 Printed all single excitation amplitudes greater than 0.100000
 Printed all double excitation amplitudes greater than 0.020000

 --------------------------------------------------------------

                 Singlet Excitation Energies

 --------------------------------------------------------------
 Excitation symmetry  1, state no.  3

 SOPPA(CC2) excitation energy :   1.4482161     au
                                   39.407965     eV
                                   317846.70     cm-1
                                   3802.2908     kj / mole

 1p-1h + 1h-1p excitation weight:  96.54 + -0.67  =  95.87 %
 2p-2h + 2h-2p excitation weight:   4.13 + -0.00  =   4.13 %

 |=====================================================|
 |          | Symmetry|  Orbital index  |   Amplitude  |
 |          | index   |   a   b   i   j |              |
 |=====================================================|
 |    exci. | 1   1   |   1       2     |    0.967638  |
 |    exci. | 1   1   |   1       3     |   -0.119634  |
 |    exci. | 3   3   |   1       1     |    0.153481  |
 |-----------------------------------------------------|
 |    exci. | 1 1 2 2 |   1   1   1   1 |   -0.146337  |
 |=====================================================|

 Printed all single excitation amplitudes greater than 0.100000
 Printed all double excitation amplitudes greater than 0.100000

 --------------------------------------------------------------

                 Singlet Excitation Energies

 --------------------------------------------------------------
 Excitation symmetry  1, state no.  4

 SOPPA(CC2) excitation energy :   2.0030484     au
                                   54.505719     eV
                                   439618.30     cm-1
                                   5259.0027     kj / mole

 1p-1h + 1h-1p excitation weight:   1.98 + -0.01  =   1.97 %
 2p-2h + 2h-2p excitation weight:  98.03 + -0.00  =  98.03 %

 |=====================================================|
 |          | Symmetry|  Orbital index  |   Amplitude  |
 |          | index   |   a   b   i   j |              |
 |=====================================================|
 |    exci. | 1   1   |   1       2     |   -0.140392  |
 |-----------------------------------------------------|
 |    exci. | 1 1 2 2 |   1   1   1   1 |   -0.988204  |
 |=====================================================|

 Printed all single excitation amplitudes greater than 0.100000
 Printed all double excitation amplitudes greater than 0.100000

 --------------------------------------------------------------

 ZDIPLEN  SOPPA(CC2) transition moments for excitation symmetry  1
 ===================================================================
 Exci.    1p-1h        1h-1p        Total
 -------------------------------------------------------------------
   1     0.50320 +   -0.06129 =    0.44192
   2     0.99184 +   -0.11691 =    0.87493
   3    -0.35127 +    0.08776 =   -0.26351
   4    -0.00391 +   -0.00927 =   -0.01318
 ===================================================================

 ZDIPVEL  SOPPA(CC2) transition moments for excitation symmetry  1
 ===================================================================
 Exci.    1p-1h        1h-1p        Total
 -------------------------------------------------------------------
   1    -0.38137 +   -0.03916 =   -0.42053
   2    -0.56844 +   -0.07643 =   -0.64487
   3     0.28011 +    0.05720 =    0.33731
   4    -0.03252 +   -0.00604 =   -0.03856
 ===================================================================

 XXSECMOM SOPPA(CC2) transition moments for excitation symmetry  1
 ===================================================================
 Exci.    1p-1h        1h-1p        Total
 -------------------------------------------------------------------
   1    -0.16383 +    0.01927 =   -0.14456
   2    -0.23496 +    0.03753 =   -0.19743
   3     0.21871 +   -0.02927 =    0.18944
   4    -0.03997 +    0.00312 =   -0.03686
 ===================================================================

 YYSECMOM SOPPA(CC2) transition moments for excitation symmetry  1
 ===================================================================
 Exci.    1p-1h        1h-1p        Total
 -------------------------------------------------------------------
   1    -0.86010 +    0.14189 =   -0.71821
   2    -1.88875 +    0.27410 =   -1.61465
   3     1.64214 +   -0.21519 =    1.42694
   4    -0.12127 +    0.02296 =   -0.09830
 ===================================================================

 ZZSECMOM SOPPA(CC2) transition moments for excitation symmetry  1
 ===================================================================
 Exci.    1p-1h        1h-1p        Total
 -------------------------------------------------------------------
   1    -0.36392 +    0.07502 =   -0.28890
   2    -0.96701 +    0.14512 =   -0.82189
   3     0.97907 +   -0.11535 =    0.86372
   4    -0.07447 +    0.01235 =   -0.06212
 ===================================================================

 -----------------------------------
 SOPPA(CC2):
 Perturbation symmetry     :       2
 p-h variables             :       2
 2p-2h variables           :      16
 Total number of variables :      18
 -----------------------------------
 SO_RSPLEX: Adjusting LMXRED

  ******************************************************************
            SOPPA(CC2)  iterations, Excitation symmetry 2
  ******************************************************************

  ==================================================================
             1. SOPPA(CC2)  iteration, Excitation symmetry 2
  ==================================================================

            --------------------------------------------------
            Excitation   Energy (au)     Residual    Converged
            --------------------------------------------------
                 1       0.48134248     2.0716D-01       no
                 2       2.06261261     8.8447D-03       no
                 3       2.34940564     4.5634D-03       no
                 4       2.39408248     1.6706D-02       no
            --------------------------------------------------

  ==================================================================
             2. SOPPA(CC2)  iteration, Excitation symmetry 2
  ==================================================================

            --------------------------------------------------
            Excitation   Energy (au)     Residual    Converged
            --------------------------------------------------
                 1       0.47061497     1.9642D-09      yes
                 2       2.06252694     1.0018D-12      yes
                 3       2.34925845     2.1010D-12      yes
                 4       2.38216770     2.1139D-09      yes
            --------------------------------------------------

 -------------------------------------------------------------
 Iterations stopped since: 
 -------------------------
 All of the excitations are converged.
 -------------------------------------------------------------


 --------------------------------------------------------------

                 Singlet Excitation Energies

 --------------------------------------------------------------
 Excitation symmetry  2, state no.  1

 SOPPA(CC2) excitation energy :  0.47061497     au
                                   12.806085     eV
                                   103288.05     cm-1
                                   1235.5994     kj / mole

 1p-1h + 1h-1p excitation weight:  98.74 + -0.10  =  98.64 %
 2p-2h + 2h-2p excitation weight:   1.36 + -0.00  =   1.36 %

 |=====================================================|
 |          | Symmetry|  Orbital index  |   Amplitude  |
 |          | index   |   a   b   i   j |              |
 |=====================================================|
 |    exci. | 1   2   |   1       1     |    0.997064  |
 |-----------------------------------------------------|
 |    exci. | 1 3 2 3 |   1   1   1   1 |   -0.107409  |
 |=====================================================|

 Printed all single excitation amplitudes greater than 0.100000
 Printed all double excitation amplitudes greater than 0.100000

 --------------------------------------------------------------

                 Singlet Excitation Energies

 --------------------------------------------------------------
 Excitation symmetry  2, state no.  2

 SOPPA(CC2) excitation energy :   2.0625269     au
                                   56.124213     eV
                                   452672.34     cm-1
                                   5415.1637     kj / mole

 1p-1h + 1h-1p excitation weight:   0.17 + -0.00  =   0.17 %
 2p-2h + 2h-2p excitation weight:  99.83 + -0.00  =  99.83 %

 |=====================================================|
 |          | Symmetry|  Orbital index  |   Amplitude  |
 |          | index   |   a   b   i   j |              |
 |=====================================================|
 |    exci. | 1   2   |   1       1     |   -0.041463  |
 |-----------------------------------------------------|
 |    exci. | 1 1 2 1 |   1   1   1   3 |    1.412556  |
 |=====================================================|

 Printed all single excitation amplitudes greater than 0.020000
 Printed all double excitation amplitudes greater than 0.100000

 --------------------------------------------------------------

                 Singlet Excitation Energies

 --------------------------------------------------------------
 Excitation symmetry  2, state no.  3

 SOPPA(CC2) excitation energy :   2.3492584     au
                                   63.926574     eV
                                   515602.63     cm-1
                                   6167.9771     kj / mole

 1p-1h + 1h-1p excitation weight:   0.04 + -0.00  =   0.04 %
 2p-2h + 2h-2p excitation weight:  99.96 + -0.00  =  99.96 %

 |=====================================================|
 |          | Symmetry|  Orbital index  |   Amplitude  |
 |          | index   |   a   b   i   j |              |
 |=====================================================|
 |    exci. | 1   2   |   1       1     |    0.019345  |
 |-----------------------------------------------------|
 |    exci. | 1 3 2 3 |   1   1   1   1 |   -0.121047  |
 |    exci. | 3 3 2 1 |   1   1   1   3 |   -1.406069  |
 |=====================================================|

 Printed all single excitation amplitudes greater than 0.004000
 Printed all double excitation amplitudes greater than 0.100000

 --------------------------------------------------------------

                 Singlet Excitation Energies

 --------------------------------------------------------------
 Excitation symmetry  2, state no.  4

 SOPPA(CC2) excitation energy :   2.3821677     au
                                   64.822080     eV
                                   522825.37     cm-1
                                   6254.3803     kj / mole

 1p-1h + 1h-1p excitation weight:   0.00 + -0.00  =   0.00 %
 2p-2h + 2h-2p excitation weight: 100.00 + -0.00  = 100.00 %

 |=====================================================|
 |          | Symmetry|  Orbital index  |   Amplitude  |
 |          | index   |   a   b   i   j |              |
 |=====================================================|
 |-----------------------------------------------------|
 |    exci. | 1 3 2 3 |   1   1   1   1 |    0.101579  |
 |    exci. | 3 1 2 3 |   1   1   1   1 |   -0.945333  |
 |=====================================================|

 Printed all single excitation amplitudes greater than 0.000032
 Printed all double excitation amplitudes greater than 0.100000

 --------------------------------------------------------------

 XDIPLEN  SOPPA(CC2) transition moments for excitation symmetry  2
 ===================================================================
 Exci.    1p-1h        1h-1p        Total
 -------------------------------------------------------------------
   1    -0.11363 +    0.00356 =   -0.11007
   2     0.00161 +   -0.00005 =    0.00155
   3    -0.01918 +    0.00002 =   -0.01916
   4     0.00275 +    0.00000 =    0.00275
 ===================================================================

 XDIPVEL  SOPPA(CC2) transition moments for excitation symmetry  2
 ===================================================================
 Exci.    1p-1h        1h-1p        Total
 -------------------------------------------------------------------
   1    -0.15704 +   -0.00495 =   -0.16199
   2    -0.00142 +    0.00008 =   -0.00135
   3    -0.01124 +   -0.00003 =   -0.01127
   4     0.00119 +    0.00000 =    0.00119
 ===================================================================

 YANGMOM  SOPPA(CC2) transition moments for excitation symmetry  2
 ===================================================================
 Exci.    1p-1h        1h-1p        Total
 -------------------------------------------------------------------
   1    -0.53401 +   -0.01677 =   -0.55078
   2    -0.00036 +    0.00026 =   -0.00010
   3     0.00595 +   -0.00011 =    0.00584
   4     0.00173 +    0.00000 =    0.00173
 ===================================================================

 XZSECMOM SOPPA(CC2) transition moments for excitation symmetry  2
 ===================================================================
 Exci.    1p-1h        1h-1p        Total
 -------------------------------------------------------------------
   1     0.07145 +   -0.00222 =    0.06923
   2     0.02080 +    0.00003 =    0.02083
   3    -0.01527 +   -0.00001 =   -0.01528
   4    -0.00030 +    0.00000 =   -0.00030
 ===================================================================

 -----------------------------------
 SOPPA(CC2):
 Perturbation symmetry     :       3
 p-h variables             :       8
 2p-2h variables           :      34
 Total number of variables :      42
 -----------------------------------

  ******************************************************************
            SOPPA(CC2)  iterations, Excitation symmetry 3
  ******************************************************************

  ==================================================================
             1. SOPPA(CC2)  iteration, Excitation symmetry 3
  ==================================================================

            --------------------------------------------------
            Excitation   Energy (au)     Residual    Converged
            --------------------------------------------------
                 1       0.74646778     2.8202D-01       no
                 2       0.85573306     2.3974D-01       no
                 3       1.54526885     3.3159D-01       no
                 4       2.14182197     3.4950D-02       no
            --------------------------------------------------

  ==================================================================
             2. SOPPA(CC2)  iteration, Excitation symmetry 3
  ==================================================================

            --------------------------------------------------
            Excitation   Energy (au)     Residual    Converged
            --------------------------------------------------
                 1       0.72455756     2.8180D-03       no
                 2       0.84147463     1.0337D-03       no
                 3       1.50583700     4.2956D-03       no
                 4       2.14119479     3.4511D-03       no
            --------------------------------------------------

  ==================================================================
             3. SOPPA(CC2)  iteration, Excitation symmetry 3
  ==================================================================

            --------------------------------------------------
            Excitation   Energy (au)     Residual    Converged
            --------------------------------------------------
                 1       0.72455714     3.4962D-05      yes
                 2       0.84147457     9.4664D-06      yes
                 3       1.50583578     4.8181D-05      yes
                 4       2.14119380     6.1144D-05      yes
            --------------------------------------------------

 -------------------------------------------------------------
 Iterations stopped since: 
 -------------------------
 All of the excitations are converged.
 -------------------------------------------------------------


 --------------------------------------------------------------

                 Singlet Excitation Energies

 --------------------------------------------------------------
 Excitation symmetry  3, state no.  1

 SOPPA(CC2) excitation energy :  0.72455714     au
                                   19.716203     eV
                                   159021.91     cm-1
                                   1902.3245     kj / mole

 1p-1h + 1h-1p excitation weight:  98.92 + -0.12  =  98.80 %
 2p-2h + 2h-2p excitation weight:   1.20 + -0.00  =   1.20 %

 |=====================================================|
 |          | Symmetry|  Orbital index  |   Amplitude  |
 |          | index   |   a   b   i   j |              |
 |=====================================================|
 |    exci. | 1   3   |   1       1     |   -0.391421  |
 |    exci. | 3   1   |   1       3     |   -0.920346  |
 |-----------------------------------------------------|
 |    exci. | 3 1 1 1 |   1   1   3   3 |   -0.110576  |
 |=====================================================|

 Printed all single excitation amplitudes greater than 0.100000
 Printed all double excitation amplitudes greater than 0.100000

 --------------------------------------------------------------

                 Singlet Excitation Energies

 --------------------------------------------------------------
 Excitation symmetry  3, state no.  2

 SOPPA(CC2) excitation energy :  0.84147457     au
                                   22.897688     eV
                                   184682.32     cm-1
                                   2209.2911     kj / mole

 1p-1h + 1h-1p excitation weight:  99.52 + -0.30  =  99.22 %
 2p-2h + 2h-2p excitation weight:   0.78 + -0.00  =   0.78 %

 |=====================================================|
 |          | Symmetry|  Orbital index  |   Amplitude  |
 |          | index   |   a   b   i   j |              |
 |=====================================================|
 |    exci. | 1   3   |   1       1     |    0.923500  |
 |    exci. | 3   1   |   1       3     |   -0.392359  |
 |-----------------------------------------------------|
 |    exci. | 3 1 1 1 |   1   1   2   2 |   -0.021184  |
 |    exci. | 3 1 1 1 |   1   1   3   2 |   -0.026491  |
 |    exci. | 3 1 1 1 |   1   1   2   3 |   -0.042417  |
 |    exci. | 3 1 1 1 |   1   1   3   3 |   -0.051398  |
 |    exci. | 1 1 3 1 |   1   1   1   3 |    0.054596  |
 |    exci. | 3 3 1 3 |   1   1   2   1 |    0.040073  |
 |    exci. | 1 3 3 3 |   1   1   1   1 |   -0.063951  |
 |    exci. | 3 1 2 2 |   1   1   1   1 |   -0.025943  |
 |=====================================================|

 Printed all single excitation amplitudes greater than 0.100000
 Printed all double excitation amplitudes greater than 0.020000

 --------------------------------------------------------------

                 Singlet Excitation Energies

 --------------------------------------------------------------
 Excitation symmetry  3, state no.  3

 SOPPA(CC2) excitation energy :   1.5058358     au
                                   40.975876     eV
                                   330492.75     cm-1
                                   3953.5712     kj / mole

 1p-1h + 1h-1p excitation weight:  96.17 + -0.04  =  96.14 %
 2p-2h + 2h-2p excitation weight:   3.86 + -0.00  =   3.86 %

 |=====================================================|
 |          | Symmetry|  Orbital index  |   Amplitude  |
 |          | index   |   a   b   i   j |              |
 |=====================================================|
 |    exci. | 3   1   |   1       2     |    0.984851  |
 |-----------------------------------------------------|
 |    exci. | 1 1 3 1 |   1   1   1   3 |   -0.199691  |
 |    exci. | 3 1 2 2 |   1   1   1   1 |   -0.127733  |
 |=====================================================|

 Printed all single excitation amplitudes greater than 0.100000
 Printed all double excitation amplitudes greater than 0.100000

 --------------------------------------------------------------

                 Singlet Excitation Energies

 --------------------------------------------------------------
 Excitation symmetry  3, state no.  4

 SOPPA(CC2) excitation energy :   2.1411938     au
                                   58.264847     eV
                                   469937.72     cm-1
                                   5621.7035     kj / mole

 1p-1h + 1h-1p excitation weight:   0.78 + -0.00  =   0.78 %
 2p-2h + 2h-2p excitation weight:  99.22 + -0.00  =  99.22 %

 |=====================================================|
 |          | Symmetry|  Orbital index  |   Amplitude  |
 |          | index   |   a   b   i   j |              |
 |=====================================================|
 |    exci. | 3   1   |   1       2     |   -0.086576  |
 |-----------------------------------------------------|
 |    exci. | 3 1 2 2 |   1   1   1   1 |   -1.407768  |
 |=====================================================|

 Printed all single excitation amplitudes greater than 0.020000
 Printed all double excitation amplitudes greater than 0.100000

 --------------------------------------------------------------

 YDIPLEN  SOPPA(CC2) transition moments for excitation symmetry  3
 ===================================================================
 Exci.    1p-1h        1h-1p        Total
 -------------------------------------------------------------------
   1     0.43705 +   -0.02977 =    0.40727
   2     1.46952 +   -0.08437 =    1.38515
   3     0.15562 +   -0.00385 =    0.15176
   4     0.00912 +    0.00112 =    0.01025
 ===================================================================

 YDIPVEL  SOPPA(CC2) transition moments for excitation symmetry  3
 ===================================================================
 Exci.    1p-1h        1h-1p        Total
 -------------------------------------------------------------------
   1    -0.20500 +   -0.01601 =   -0.22101
   2    -0.86113 +   -0.04886 =   -0.90999
   3    -0.18920 +   -0.00356 =   -0.19276
   4     0.03140 +    0.00073 =    0.03213
 ===================================================================

 XANGMOM  SOPPA(CC2) transition moments for excitation symmetry  3
 ===================================================================
 Exci.    1p-1h        1h-1p        Total
 -------------------------------------------------------------------
   1    -0.70473 +   -0.02074 =   -0.72547
   2     0.03674 +   -0.00664 =    0.03010
   3    -0.14263 +    0.00308 =   -0.13955
   4     0.00972 +   -0.00019 =    0.00954
 ===================================================================

 YZSECMOM SOPPA(CC2) transition moments for excitation symmetry  3
 ===================================================================
 Exci.    1p-1h        1h-1p        Total
 -------------------------------------------------------------------
   1    -0.15799 +    0.01484 =   -0.14315
   2    -1.36505 +    0.07733 =   -1.28771
   3    -0.77461 +    0.01657 =   -0.75804
   4     0.03388 +   -0.00201 =    0.03187
 ===================================================================

 -----------------------------------
 SOPPA(CC2):
 Perturbation symmetry     :       4
 p-h variables             :       2
 2p-2h variables           :      16
 Total number of variables :      18
 -----------------------------------
 SO_RSPLEX: Adjusting LMXRED

  ******************************************************************
            SOPPA(CC2)  iterations, Excitation symmetry 4
  ******************************************************************

  ==================================================================
             1. SOPPA(CC2)  iteration, Excitation symmetry 4
  ==================================================================

            --------------------------------------------------
            Excitation   Energy (au)     Residual    Converged
            --------------------------------------------------
                 1       0.57134343     2.1612D-01       no
                 2       2.20391157     1.5852D-15      yes
                 3       2.20876247     1.1314D-02       no
                 4       2.24037710     8.9819D-03       no
            --------------------------------------------------

  ==================================================================
             2. SOPPA(CC2)  iteration, Excitation symmetry 4
  ==================================================================

            --------------------------------------------------
            Excitation   Energy (au)     Residual    Converged
            --------------------------------------------------
                 1       0.56049644     1.0648D-14      yes
                 2       2.20391157     3.0802D-15      yes
                 3       2.20862310     8.4615D-15      yes
                 4       2.24028215     5.1510D-15      yes
            --------------------------------------------------

 -------------------------------------------------------------
 Iterations stopped since: 
 -------------------------
 All of the excitations are converged.
 -------------------------------------------------------------


 --------------------------------------------------------------

                 Singlet Excitation Energies

 --------------------------------------------------------------
 Excitation symmetry  4, state no.  1

 SOPPA(CC2) excitation energy :  0.56049644     au
                                   15.251884     eV
                                   123014.75     cm-1
                                   1471.5832     kj / mole

 1p-1h + 1h-1p excitation weight:  99.08 + -0.02  =  99.06 %
 2p-2h + 2h-2p excitation weight:   0.94 + -0.00  =   0.94 %

 |=====================================================|
 |          | Symmetry|  Orbital index  |   Amplitude  |
 |          | index   |   a   b   i   j |              |
 |=====================================================|
 |    exci. | 3   2   |   1       1     |    0.999013  |
 |-----------------------------------------------------|
 |    exci. | 3 1 1 2 |   1   1   2   1 |   -0.037641  |
 |    exci. | 3 1 1 2 |   1   1   3   1 |    0.046232  |
 |    exci. | 1 1 3 2 |   1   1   1   1 |   -0.050041  |
 |    exci. | 3 1 2 1 |   1   1   1   2 |   -0.047515  |
 |    exci. | 3 1 2 1 |   1   1   1   3 |    0.062037  |
 |    exci. | 3 3 2 3 |   1   1   1   1 |   -0.079072  |
 |=====================================================|

 Printed all single excitation amplitudes greater than 0.100000
 Printed all double excitation amplitudes greater than 0.020000

 --------------------------------------------------------------

                 Singlet Excitation Energies

 --------------------------------------------------------------
 Excitation symmetry  4, state no.  2

 SOPPA(CC2) excitation energy :   2.2039116     au
                                   59.971485     eV
                                   483702.68     cm-1
                                   5786.3689     kj / mole

 1p-1h + 1h-1p excitation weight:   0.00 + -0.00  =   0.00 %
 2p-2h + 2h-2p excitation weight: 100.00 + -0.00  = 100.00 %

 |=====================================================|
 |          | Symmetry|  Orbital index  |   Amplitude  |
 |          | index   |   a   b   i   j |              |
 |=====================================================|
 |-----------------------------------------------------|
 |    exci. | 3 1 1 2 |   1   1   3   1 |    0.804876  |
 |    exci. | 3 1 2 1 |   1   1   1   3 |   -0.314591  |
 |=====================================================|

 Printed all single excitation amplitudes greater than 0.000032
 Printed all double excitation amplitudes greater than 0.100000

 --------------------------------------------------------------

                 Singlet Excitation Energies

 --------------------------------------------------------------
 Excitation symmetry  4, state no.  3

 SOPPA(CC2) excitation energy :   2.2086231     au
                                   60.099692     eV
                                   484736.74     cm-1
                                   5798.7391     kj / mole

 1p-1h + 1h-1p excitation weight:   0.26 + -0.00  =   0.26 %
 2p-2h + 2h-2p excitation weight:  99.74 + -0.00  =  99.74 %

 |=====================================================|
 |          | Symmetry|  Orbital index  |   Amplitude  |
 |          | index   |   a   b   i   j |              |
 |=====================================================|
 |    exci. | 3   2   |   1       1     |    0.050942  |
 |-----------------------------------------------------|
 |    exci. | 3 1 1 2 |   1   1   3   1 |   -0.822293  |
 |    exci. | 1 1 3 2 |   1   1   1   1 |   -0.146257  |
 |    exci. | 3 1 2 1 |   1   1   1   3 |   -1.103424  |
 |=====================================================|

 Printed all single excitation amplitudes greater than 0.020000
 Printed all double excitation amplitudes greater than 0.100000

 --------------------------------------------------------------

                 Singlet Excitation Energies

 --------------------------------------------------------------
 Excitation symmetry  4, state no.  4

 SOPPA(CC2) excitation energy :   2.2402821     au
                                   60.961178     eV
                                   491685.09     cm-1
                                   5881.8599     kj / mole

 1p-1h + 1h-1p excitation weight:   0.16 + -0.00  =   0.16 %
 2p-2h + 2h-2p excitation weight:  99.84 + -0.00  =  99.84 %

 |=====================================================|
 |          | Symmetry|  Orbital index  |   Amplitude  |
 |          | index   |   a   b   i   j |              |
 |=====================================================|
 |    exci. | 3   2   |   1       1     |    0.040050  |
 |-----------------------------------------------------|
 |    exci. | 1 1 3 2 |   1   1   1   1 |    1.405638  |
 |    exci. | 3 1 2 1 |   1   1   1   3 |   -0.112379  |
 |=====================================================|

 Printed all single excitation amplitudes greater than 0.020000
 Printed all double excitation amplitudes greater than 0.100000

 --------------------------------------------------------------

 ZANGMOM  SOPPA(CC2) transition moments for excitation symmetry  4
 ===================================================================
 Exci.    1p-1h        1h-1p        Total
 -------------------------------------------------------------------
   1    -0.69478 +   -0.01020 =   -0.70499
   2     0.01019 +   -0.00000 =    0.01019
   3     0.01157 +   -0.00021 =    0.01136
   4    -0.01397 +   -0.00016 =   -0.01414
 ===================================================================

 XYSECMOM SOPPA(CC2) transition moments for excitation symmetry  4
 ===================================================================
 Exci.    1p-1h        1h-1p        Total
 -------------------------------------------------------------------
   1    -0.09879 +    0.00144 =   -0.09735
   2     0.00356 +   -0.00000 =    0.00356
   3     0.00946 +    0.00003 =    0.00949
   4     0.01789 +    0.00002 =    0.01791
 ===================================================================

 |=====================================================| 
 |     Memory statistics for AO-SOPPA subroutines      |
 |=====================================================| 
 |   Routine                  in Words         in MB   |
 |-----------------------------------------------------| 
 |  START                            0           0.0   |
 |  SO_EXCIT1.1                     47           0.0   |
 |  SO_PRPINT                    13548           0.1   |
 |=====================================================| 

 |=====================================================| 
 |           Timings for AO-SOPPA subroutines          |
 |=====================================================| 
 |   Routine            cpu time   of total        sum |
 |-----------------------------------------------------| 
 |   SO_OPTVEC           0:00:01     96.1 %     96.1 % |
 |   SO_INCRED           0:00:00      1.1 %     97.2 % |
 |   CCRDAO              0:00:00      0.6 %     97.8 % |
 |   SO_RES_A            0:00:00      0.6 %     98.3 % |
 |   SO_SRES             0:00:00      0.6 %     98.9 % |
 |   SO_ERES             0:00:00      0.6 %     99.4 % |
 |-----------------------------------------------------| 
 |  Total CPU time       0:00:01                       |
 |=====================================================| 

 |-----------------------------------------------------| 
 |   SO_READ             0: 0: 0      0.0 %            |
 |   SO_WRITE            0: 0: 0      1.7 %            |
 |   SO_OPEN             0: 0: 0      0.0 %            |
 |   SO_CLOSE            0: 0: 0      0.0 %            |
 |-----------------------------------------------------| 

 |=====================================================| 
 |        Wall timings for AO-SOPPA subroutines        |
 |=====================================================| 
 |   Routine           wall time   of total       sum  |
 |-----------------------------------------------------| 
 |   SO_ERES             0:00:00      4.5 %      4.5 % |
 |   SO_SRES             0:00:00      0.3 %      4.8 % |
 |   SO_REDEV            0:00:01     93.7 %     98.5 % |
 |   SO_TRIAL2           0:00:00      0.4 %     98.9 % |
 |-----------------------------------------------------| 
 |   Total wall time     0: 0: 1                       |
 |=====================================================| 
  Time used in EXCITA     is       0.72 seconds


   ***************************************************************************
   ************************ FINAL RESULTS from ABACUS ************************
   ***************************************************************************


 
     Date and time (Linux)  : Mon Jul 25 11:07:03 2016
     Host name              : spasnode101                             


                             Molecular geometry (au)
                             -----------------------

 O          0.0000000000            0.0000000000            0.1241444240
 H   _1     0.0000000000            1.4315300000           -0.9852655760
 H   _2     0.0000000000           -1.4315300000           -0.9852655760





                        Molecular wave function and energy
                        ----------------------------------

     Spatial symmetry   1 ( A1  )
     Spin multiplicity  1
     2 * M_S            0
     State number       1
     Total charge       0

     Total energy        -72.7390123807 au (Hartrees)
                         -1979.32921294 eV
                           -190976.2476 kJ/mol
                            -45644.4186 kcal/mol


 ======================================================================
                               SOPPA(CC2) results:
 ----------------------------------------------------------------------


@               Singlet electronic excitation energies
                --------------------------------------

               ========================================
                 Sym.   Mode   Frequency    Frequency
                ex. st.  No.      (au)         (eV)
               ----------------------------------------
                   1      1     0.618471    16.829440
                   1      2     1.084183    29.502116
                   1      3     1.448216    39.407965
                   1      4     2.003048    54.505719
               ----------------------------------------
                   2      1     0.470615    12.806085
                   2      2     2.062527    56.124213
                   2      3     2.349258    63.926574
                   2      4     2.382168    64.822080
               ----------------------------------------
                   3      1     0.724557    19.716203
                   3      2     0.841475    22.897688
                   3      3     1.505836    40.975876
                   3      4     2.141194    58.264847
               ----------------------------------------
                   4      1     0.560496    15.251884
                   4      2     2.203912    59.971485
                   4      3     2.208623    60.099692
                   4      4     2.240282    60.961178
               ========================================


@               Electric transition dipole moments (au)
                ---------------------------------------

@        Mode    Frequency       Velocity/Frequency              Length
@         No.      (au)          x       y       z         x       y       z
@==============================================================================
@  Symmetry of excited state: 1  ( A1 )
@           1     0.618471     0.0000  0.0000  0.6799    0.0000  0.0000  0.4419
@           2     1.084183     0.0000  0.0000  0.5948    0.0000  0.0000  0.8749
@           3     1.448216     0.0000  0.0000 -0.2329    0.0000  0.0000 -0.2635
@           4     2.003048     0.0000  0.0000  0.0192    0.0000  0.0000 -0.0132
@------------------------------------------------------------------------------
@  Symmetry of excited state: 2  ( B1 )
@           1     0.470615     0.3442  0.0000  0.0000   -0.1101  0.0000  0.0000
@           2     2.062527     0.0007  0.0000  0.0000    0.0016  0.0000  0.0000
@           3     2.349258     0.0048  0.0000  0.0000   -0.0192  0.0000  0.0000
@           4     2.382168    -0.0005  0.0000  0.0000    0.0028  0.0000  0.0000
@------------------------------------------------------------------------------
@  Symmetry of excited state: 3  ( B2 )
@           1     0.724557     0.0000  0.3050  0.0000    0.0000  0.4073  0.0000
@           2     0.841475     0.0000  1.0814  0.0000    0.0000  1.3852  0.0000
@           3     1.505836     0.0000  0.1280  0.0000    0.0000  0.1518  0.0000
@           4     2.141194     0.0000 -0.0150  0.0000    0.0000  0.0102  0.0000
@------------------------------------------------------------------------------
@  Symmetry of excited state: 4  ( A2 )
@           1     0.560496     0.0000  0.0000  0.0000    0.0000  0.0000  0.0000
@           2     2.203912     0.0000  0.0000  0.0000    0.0000  0.0000  0.0000
@           3     2.208623     0.0000  0.0000  0.0000    0.0000  0.0000  0.0000
@           4     2.240282     0.0000  0.0000  0.0000    0.0000  0.0000  0.0000
@------------------------------------------------------------------------------


@               Magnetic transition dipole moments (au)
                ---------------------------------------

  ( mu_B*<0|l_i|n>, where mu_B = 0.5 is the Bohr magneton)

 Symm.  Mode   Frequency         Conventional                  London
 ex.st.  No.     (eV)        x        y       z         x        y        z
 ==============================================================================
   1      1    16.8294   -0.00000 -0.00000 -0.00000  -0.00000 -0.00000 -0.00000
   1      2    29.5021   -0.00000 -0.00000 -0.00000  -0.00000 -0.00000 -0.00000
   1      3    39.4080   -0.00000 -0.00000 -0.00000  -0.00000 -0.00000 -0.00000
   1      4    54.5057   -0.00000 -0.00000 -0.00000  -0.00000 -0.00000 -0.00000
 ------------------------------------------------------------------------------
   2      1    12.8061   -0.00000 -0.27539 -0.00000  -0.00000 -0.00000 -0.00000
   2      2    56.1242   -0.00000 -0.00005 -0.00000  -0.00000 -0.00000 -0.00000
   2      3    63.9266   -0.00000  0.00292 -0.00000  -0.00000 -0.00000 -0.00000
   2      4    64.8221   -0.00000  0.00087 -0.00000  -0.00000 -0.00000 -0.00000
 ------------------------------------------------------------------------------
   3      1    19.7162   -0.36273 -0.00000 -0.00000  -0.00000 -0.00000 -0.00000
   3      2    22.8977    0.01505 -0.00000 -0.00000  -0.00000 -0.00000 -0.00000
   3      3    40.9759   -0.06978 -0.00000 -0.00000  -0.00000 -0.00000 -0.00000
   3      4    58.2648    0.00477 -0.00000 -0.00000  -0.00000 -0.00000 -0.00000
 ------------------------------------------------------------------------------
   4      1    15.2519   -0.00000 -0.00000 -0.35249  -0.00000 -0.00000 -0.00000
   4      2    59.9715   -0.00000 -0.00000  0.00510  -0.00000 -0.00000 -0.00000
   4      3    60.0997   -0.00000 -0.00000  0.00568  -0.00000 -0.00000 -0.00000
   4      4    60.9612   -0.00000 -0.00000 -0.00707  -0.00000 -0.00000 -0.00000
 ------------------------------------------------------------------------------


@                  Oscillator and Scalar Rotational Strengths
                   ------------------------------------------

@   Units: 10**(-40) (esu**2)*(cm**2) (rotational strength)
@          dimensionless              (oscillator strength)

@ Symm.  Mode   Frequency    Oscillator-strength      Rotational-strength   
@ ex.st.  No.     (eV)        velocity  length     velocity  length   London
@ ==========================================================================
@  1      1    16.8294        0.1906   0.0805      -0.000   -0.000   -0.000
@  1      2    29.5021        0.2557   0.5533      -0.000   -0.000   -0.000
@  1      3    39.4080        0.0524   0.0670      -0.000   -0.000   -0.000
@  1      4    54.5057        0.0005   0.0002      -0.000   -0.000   -0.000
@ --------------------------------------------------------------------------
@  2      1    12.8061        0.0372   0.0038      -0.000   -0.000   -0.000
@  2      2    56.1242        0.0000   0.0000      -0.000   -0.000   -0.000
@  2      3    63.9266        0.0000   0.0006      -0.000   -0.000   -0.000
@  2      4    64.8221        0.0000   0.0000      -0.000   -0.000   -0.000
@ --------------------------------------------------------------------------
@  3      1    19.7162        0.0449   0.0801      -0.000   -0.000   -0.000
@  3      2    22.8977        0.6561   1.0763      -0.000   -0.000   -0.000
@  3      3    40.9759        0.0164   0.0231      -0.000   -0.000   -0.000
@  3      4    58.2648        0.0003   0.0001      -0.000   -0.000   -0.000
@ --------------------------------------------------------------------------
@  4      1    15.2519        0.0000   0.0000      -0.000   -0.000   -0.000
@  4      2    59.9715        0.0000   0.0000      -0.000   -0.000   -0.000
@  4      3    60.0997        0.0000   0.0000      -0.000   -0.000   -0.000
@  4      4    60.9612        0.0000   0.0000      -0.000   -0.000   -0.000
@ --------------------------------------------------------------------------


          Bethe sum rule                   
          --------------

  Q value      X Component    Y Component    Z Component
  ------------------------------------------------------
 LQ=   0 QMAX= 0.000     QMIN= 0.000     QSTEP= 0.000    


          Stopping Power                 
          --------------

  Velocity     X Component    Y Component    Z Component
  ------------------------------------------------


   Interatomic separations (in Angstrom):
   --------------------------------------

            O           H   _1      H   _2
            ------      ------      ------
 O     :    0.000000
 H   _1:    0.958391    0.000000
 H   _2:    0.958391    1.515066    0.000000


  Max    interatomic separation is    1.5151 Angstrom (    2.8631 Bohr)
  between atoms    3 and    2, "H   _2" and "H   _1".

  Min HX interatomic separation is    0.9584 Angstrom (    1.8111 Bohr)


  Bond distances (Angstrom):
  --------------------------

                  atom 1     atom 2       distance
                  ------     ------       --------
  bond distance:  H   _1     O            0.958391
  bond distance:  H   _2     O            0.958391


  Bond angles (degrees):
  ----------------------

                  atom 1     atom 2     atom 3         angle
                  ------     ------     ------         -----
  bond angle:     H   _1     O          H   _2       104.450




 CPU time statistics for ABACUS
 ------------------------------




  Total CPU  time used in ABACUS:   0.72 seconds
  Total wall time used in ABACUS:   0.72 seconds


                   .-------------------------------------------.
                   | End of Static Property Section (ABACUS) - |
                   `-------------------------------------------'

  Total CPU  time used in DALTON:   0.75 seconds
  Total wall time used in DALTON:   0.90 seconds

 
     Date and time (Linux)  : Mon Jul 25 11:07:03 2016
     Host name              : spasnode101                             
