

     ************************************************************************
     *************** Dalton - An Electronic Structure Program ***************
     ************************************************************************

    This is output from DALTON (Release Dalton2013 patch 0)
   ----------------------------------------------------------------------------
    NOTE:
     
    Dalton is an experimental code for the evaluation of molecular
    properties using (MC)SCF, DFT, CI, and CC wave functions.
    The authors accept no responsibility for the performance of
    the code or for the correctness of the results.
     
    The code (in whole or part) is provided under a licence and
    is not to be reproduced for further distribution without
    the written permission of the authors or their representatives.
     
    See the home page "http://daltonprogram.org" for further information.
     
    If results obtained with this code are published,
    the appropriate citations would be both of:
     
       K. Aidas, C. Angeli, K. L. Bak, V. Bakken, R. Bast,
       L. Boman, O. Christiansen, R. Cimiraglia, S. Coriani,
       P. Dahle, E. K. Dalskov, U. Ekstroem, T. Enevoldsen,
       J. J. Eriksen, P. Ettenhuber, B. Fernandez, L. Ferrighi,
       H. Fliegl, L. Frediani, K. Hald, A. Halkier, C. Haettig,
       H. Heiberg, T. Helgaker, A. C. Hennum, H. Hettema,
       E. Hjertenaes, S. Hoest, I.-M. Hoeyvik, M. F. Iozzi,
       B. Jansik, H. J. Aa. Jensen, D. Jonsson, P. Joergensen,
       J. Kauczor, S. Kirpekar, T. Kjaergaard, W. Klopper,
       S. Knecht, R. Kobayashi, H. Koch, J. Kongsted, A. Krapp,
       K. Kristensen, A. Ligabue, O. B. Lutnaes, J. I. Melo,
       K. V. Mikkelsen, R. H. Myhre, C. Neiss, C. B. Nielsen,
       P. Norman, J. Olsen, J. M. H. Olsen, A. Osted,
       M. J. Packer, F. Pawlowski, T. B. Pedersen, P. F. Provasi,
       S. Reine, Z. Rinkevicius, T. A. Ruden, K. Ruud, V. Rybkin,
       P. Salek, C. C. M. Samson, A. Sanchez de Meras, T. Saue,
       S. P. A. Sauer, B. Schimmelpfennig, K. Sneskov,
       A. H. Steindal, K. O. Sylvester-Hvid, P. R. Taylor,
       A. M. Teale, E. I. Tellgren, D. P. Tew, A. J. Thorvaldsen,
       L. Thoegersen, O. Vahtras, M. A. Watson, D. J. D. Wilson,
       M. Ziolkowski and H. Agren.
       The Dalton quantum chemistry program system.
       WIREs Comput. Mol. Sci. 2013. doi: 10.1002/wcms.1172
    
    and
    
       Dalton, a Molecular Electronic Structure Program,
       Release DALTON2013.0 (2013), see http://daltonprogram.org
   ----------------------------------------------------------------------------

    Authors in alphabetical order (major contribution(s) in parenthesis):

  Kestutis Aidas,           Vilnius University,           Lithuania   (QM/MM)
  Celestino Angeli,         University of Ferrara,        Italy       (NEVPT2)
  Keld L. Bak,              UNI-C,                        Denmark     (AOSOPPA, non-adiabatic coupling, magnetic properties)
  Vebjoern Bakken,          University of Oslo,           Norway      (DALTON; geometry optimizer, symmetry detection)
  Radovan Bast,             KTH Stockholm                 Sweden      (DALTON installation and execution frameworks)
  Linus Boman,              NTNU,                         Norway      (Cholesky decomposition and subsystems)
  Ove Christiansen,         Aarhus University,            Denmark     (CC module)
  Renzo Cimiraglia,         University of Ferrara,        Italy       (NEVPT2)
  Sonia Coriani,            University of Trieste,        Italy       (CC module, MCD in RESPONS)
  Paal Dahle,               University of Oslo,           Norway      (Parallelization)
  Erik K. Dalskov,          UNI-C,                        Denmark     (SOPPA)
  Thomas Enevoldsen,        Univ. of Southern Denmark,    Denmark     (SOPPA)
  Janus J. Eriksen,         Aarhus University,            Denmark     (PE-MP2/SOPPA, TDA)
  Berta Fernandez,          U. of Santiago de Compostela, Spain       (doublet spin, ESR in RESPONS)
  Lara Ferrighi,            Aarhus University,            Denmark     (PCM Cubic response)
  Heike Fliegl,             University of Oslo,           Norway      (CCSD(R12))
  Luca Frediani,            UiT The Arctic U. of Norway,  Norway      (PCM)
  Bin Gao,                  UiT The Arctic U. of Norway,  Norway      (Gen1Int library)
  Christof Haettig,         Ruhr-University Bochum,       Germany     (CC module)
  Kasper Hald,              Aarhus University,            Denmark     (CC module)
  Asger Halkier,            Aarhus University,            Denmark     (CC module)
  Hanne Heiberg,            University of Oslo,           Norway      (geometry analysis, selected one-electron integrals)
  Trygve Helgaker,          University of Oslo,           Norway      (DALTON; ABACUS, ERI, DFT modules, London, and much more)
  Alf Christian Hennum,     University of Oslo,           Norway      (Parity violation)
  Hinne Hettema,            University of Auckland,       New Zealand (quadratic response in RESPONS; SIRIUS supersymmetry)
  Eirik Hjertenaes,         NTNU,                         Norway      (Cholesky decomposition)
  Maria Francesca Iozzi,    University of Oslo,           Norway      (RPA)
  Brano Jansik              Technical Univ. of Ostrava    Czech Rep.  (DFT cubic response)
  Hans Joergen Aa. Jensen,  Univ. of Southern Denmark,    Denmark     (DALTON; SIRIUS, RESPONS, ABACUS modules, London, and much more)
  Dan Jonsson,              UiT The Arctic U. of Norway,  Norway      (cubic response in RESPONS module)
  Poul Joergensen,          Aarhus University,            Denmark     (RESPONS, ABACUS, and CC modules)
  Joanna Kauczor,           Linkoeping University,        Sweden      (Complex polarization propagator (CPP) module)
  Sheela Kirpekar,          Univ. of Southern Denmark,    Denmark     (Mass-velocity & Darwin integrals)
  Wim Klopper,              KIT Karlsruhe,                Germany     (R12 code in CC, SIRIUS, and ABACUS modules)
  Stefan Knecht,            ETH Zurich,                   Switzerland (Parallel CI and MCSCF)
  Rika Kobayashi,           Australian National Univ.,    Australia   (DIIS in CC, London in MCSCF)
  Henrik Koch,              NTNU,                         Norway      (CC module, Cholesky decomposition)
  Jacob Kongsted,           Univ. of Southern Denmark,    Denmark     (Polarizable embedding, QM/MM)
  Andrea Ligabue,           University of Modena,         Italy       (CTOCD, AOSOPPA)
  Ola B. Lutnaes,           University of Oslo,           Norway      (DFT Hessian)
  Juan I. Melo,             University of Buenos Aires,   Argentina   (LRESC, Relativistic Effects on NMR Shieldings)
  Kurt V. Mikkelsen,        University of Copenhagen,     Denmark     (MC-SCRF and QM/MM)
  Rolf H. Myhre,            NTNU,                         Norway      (Cholesky, subsystems and ECC2)
  Christian Neiss,          Univ. Erlangen-Nuernberg,     Germany     (CCSD(R12))
  Christian B. Nielsen,     University of Copenhagen,     Denmark     (QM/MM)
  Patrick Norman,           Linkoeping University,        Sweden      (Cubic response and complex response in RESPONS)
  Jeppe Olsen,              Aarhus University,            Denmark     (SIRIUS CI/density modules)
  Jogvan Magnus H. Olsen,   Univ. of Southern Denmark,    Denmark     (Polarizable embedding, PE library, QM/MM)
  Anders Osted,             Copenhagen University,        Denmark     (QM/MM)
  Martin J. Packer,         University of Sheffield,      UK          (SOPPA)
  Filip Pawlowski,          Kazimierz Wielki University   Poland      (CC3)
  Thomas B. Pedersen,       University of Oslo,           Norway      (Cholesky decomposition)
  Patricio F. Provasi,      University of Northeastern,   Argentina   (Analysis of coupling constants in localized orbitals)
  Zilvinas Rinkevicius,     KTH Stockholm,                Sweden      (open-shell DFT, ESR)
  Elias Rudberg,            KTH Stockholm,                Sweden      (DFT grid and basis info)
  Torgeir A. Ruden,         University of Oslo,           Norway      (Numerical derivatives in ABACUS)
  Kenneth Ruud,             UiT The Arctic U. of Norway,  Norway      (DALTON; ABACUS magnetic properties and  much more)
  Pawel Salek,              KTH Stockholm,                Sweden      (DALTON; DFT code)
  Claire C. M. Samson       University of Karlsruhe       Germany     (Boys localization, r12 integrals in ERI)
  Alfredo Sanchez de Meras, University of Valencia,       Spain       (CC module, Cholesky decomposition)
  Trond Saue,               Paul Sabatier University,     France      (direct Fock matrix construction)
  Stephan P. A. Sauer,      University of Copenhagen,     Denmark     (SOPPA(CCSD), SOPPA prop., AOSOPPA, vibrational g-factors)
  Bernd Schimmelpfennig,    Forschungszentrum Karlsruhe,  Germany     (AMFI module)
  Kristian Sneskov,         Aarhus University,            Denmark     (QM/MM, PE-CC)
  Arnfinn H. Steindal,      UiT The Arctic U. of Norway,  Norway      (parallel QM/MM)
  K. O. Sylvester-Hvid,     University of Copenhagen,     Denmark     (MC-SCRF)
  Peter R. Taylor,          VLSCI/Univ. of Melbourne,     Australia   (Symmetry handling ABACUS, integral transformation)
  Andrew M. Teale,          University of Nottingham,     England     (DFT-AC, DFT-D)
  David P. Tew,             University of Bristol,        England     (CCSD(R12))
  Olav Vahtras,             KTH Stockholm,                Sweden      (triplet response, spin-orbit, ESR, TDDFT, open-shell DFT)
  David J. Wilson,          La Trobe University,          Australia   (DFT Hessian and DFT magnetizabilities)
  Hans Agren,               KTH Stockholm,                Sweden      (SIRIUS module, RESPONS, MC-SCRF solvation model)
 --------------------------------------------------------------------------------

     Date and time (Linux)  : Sun Sep  8 20:42:29 2013
     Host name              : lpqlx131.ups-tlse.fr                    

 * Work memory size             :    64000000 =  488.28 megabytes.

 * Directories for basis set searches:
   1) /home/bast/DALTON-2013.0-Source/build/test_cc_rsp_gamma3
   2) /home/bast/DALTON-2013.0-Source/build/basis


Compilation information
-----------------------

 Who compiled             | bast
 Host                     | lpqlx131.ups-tlse.fr
 System                   | Linux-3.8.5-201.fc18.x86_64
 CMake generator          | Unix Makefiles
 Processor                | x86_64
 64-bit integers          | OFF
 MPI                      | OFF
 Fortran compiler         | /usr/bin/gfortran
 Fortran compiler version | GNU Fortran (GCC) 4.7.2 20121109 (Red Hat 4.7.2-8)
 C compiler               | /usr/bin/gcc
 C compiler version       | gcc (GCC) 4.7.2 20121109 (Red Hat 4.7.2-8)
 C++ compiler             | /usr/bin/g++
 C++ compiler version     | g++ (GCC) 4.7.2 20121109 (Red Hat 4.7.2-8)
 Static linking           | OFF
 Last Git revision        | f34203295a86316e27f9e7b44f9b6769c4a046c0
 Configuration time       | 2013-09-08 20:31:27.952056


   Content of the .dal input file
 ----------------------------------

**DALTON INPUT                                    
.RUN WAVE FUNCTION                                
**INTEGRALS                                       
.DIPLEN                                           
**WAVE FUNCTIONS                                  
.CC                                               
*SCF INPUT                                        
.THRESHOLD                                        
 1D-10                                            
*CC INPUT                                         
.CC2                                              
.PRINT                                            
 3                                                
.FREEZE                                           
 2 0                                              
.THRENR                                           
 1.0D-14                                          
.THRLEQ                                           
 1.0D-12                                          
.MAX IT                                           
 100                                              
*CCCR                                             
.AVERAG                                           
GAMMA_ISO                                         
LINEAR                                            
**END OF DALTON INPUT                             


   Content of the .mol file
 ----------------------------

BASIS                                                                          
cc-pVDZ                                                                        
N2                                                                             
                                                                               
    1  0 3  X  Y  Z  0.10D-14                                                  
        7.    1                                                                
N        0.0000000000000     0.0000000000000     1.0371572000000       *       


       *******************************************************************
       *********** Output from DALTON general input processing ***********
       *******************************************************************

 --------------------------------------------------------------------------------
   Overall default print level:    0
   Print level for DALTON.STAT:    1

    HERMIT 1- and 2-electron integral sections will be executed
    "Old" integral transformation used (limited to max 255 basis functions)
    Wave function sections will be executed (SIRIUS module)
 --------------------------------------------------------------------------------


   ****************************************************************************
   *************** Output of molecule and basis set information ***************
   ****************************************************************************


    The two title cards from your ".mol" input:
    ------------------------------------------------------------------------
 1: N2                                                                      
 2:                                                                         
    ------------------------------------------------------------------------

  Atomic type no.    1
  --------------------
  Nuclear charge:   7.00000
  Number of symmetry independent centers:    1
  Number of basis sets to read;    2
  Basis set file used for this atomic type with Z =   7 :
     "/home/bast/DALTON-2013.0-Source/build/basis/cc-pVDZ"


                         SYMGRP: Point group information
                         -------------------------------

Point group: D2h

   * The point group was generated by:

      Reflection in the yz-plane
      Reflection in the xz-plane
      Reflection in the xy-plane

   * Group multiplication table

        |  E   C2z  C2y  C2x   i   Oxy  Oxz  Oyz
   -----+----------------------------------------
     E  |  E   C2z  C2y  C2x   i   Oxy  Oxz  Oyz
    C2z | C2z   E   C2x  C2y  Oxy   i   Oyz  Oxz
    C2y | C2y  C2x   E   C2z  Oxz  Oyz   i   Oxy
    C2x | C2x  C2y  C2z   E   Oyz  Oxz  Oxy   i 
     i  |  i   Oxy  Oxz  Oyz   E   C2z  C2y  C2x
    Oxy | Oxy   i   Oyz  Oxz  C2z   E   C2x  C2y
    Oxz | Oxz  Oyz   i   Oxy  C2y  C2x   E   C2z
    Oyz | Oyz  Oxz  Oxy   i   C2x  C2y  C2z   E 

   * Character table

        |  E   C2z  C2y  C2x   i   Oxy  Oxz  Oyz
   -----+----------------------------------------
    Ag  |   1    1    1    1    1    1    1    1
    B3u |   1   -1   -1    1   -1    1    1   -1
    B2u |   1   -1    1   -1   -1    1   -1    1
    B1g |   1    1   -1   -1    1    1   -1   -1
    B1u |   1    1   -1   -1   -1   -1    1    1
    B2g |   1   -1    1   -1    1   -1    1   -1
    B3g |   1   -1   -1    1    1   -1   -1    1
    Au  |   1    1    1    1   -1   -1   -1   -1

   * Direct product table

        | Ag   B3u  B2u  B1g  B1u  B2g  B3g  Au 
   -----+----------------------------------------
    Ag  | Ag   B3u  B2u  B1g  B1u  B2g  B3g  Au 
    B3u | B3u  Ag   B1g  B2u  B2g  B1u  Au   B3g
    B2u | B2u  B1g  Ag   B3u  B3g  Au   B1u  B2g
    B1g | B1g  B2u  B3u  Ag   Au   B3g  B2g  B1u
    B1u | B1u  B2g  B3g  Au   Ag   B3u  B2u  B1g
    B2g | B2g  B1u  Au   B3g  B3u  Ag   B1g  B2u
    B3g | B3g  Au   B1u  B2g  B2u  B1g  Ag   B3u
    Au  | Au   B3g  B2g  B1u  B1g  B2u  B3u  Ag 


                                 Isotopic Masses
                                 ---------------

                           N   _1     14.003074
                           N   _2     14.003074

                       Total mass:    28.006148 amu
                       Natural abundance:  99.261 %

 Center-of-mass coordinates (a.u.):    0.000000    0.000000    0.000000


  Atoms and basis sets
  --------------------

  Number of atom types :    1
  Total number of atoms:    2

  Basis set used is "cc-pVDZ" from the basis set library.

  label    atoms   charge   prim   cont     basis
  ----------------------------------------------------------------------
  N           2    7.0000    26    14      [9s4p1d|3s2p1d]                                    
  ----------------------------------------------------------------------
  total:      2   14.0000    52    28
  ----------------------------------------------------------------------
  Spherical harmonic basis used.

  Threshold for neglecting AO integrals:  1.00D-15


  Cartesian Coordinates (a.u.)
  ----------------------------

  Total number of coordinates:    6
  N   / 1 :     1  x   0.0000000000    2  y   0.0000000000    3  z   1.0371572000
  N   / 2 :     4  x   0.0000000000    5  y   0.0000000000    6  z  -1.0371572000


  Symmetry Coordinates
  --------------------

  Number of coordinates in each symmetry:     1    1    1    0    1    1    1    0

  Symmetry  Ag  ( 1)

    1   N     z    [  3  -    6 ]/2

  Symmetry  B3u ( 2)

    2   N     x    [  1  +    4 ]/2

  Symmetry  B2u ( 3)

    3   N     y    [  2  +    5 ]/2

  Symmetry  B1u ( 5)

    4   N     z    [  3  +    6 ]/2

  Symmetry  B2g ( 6)

    5   N     x    [  1  -    4 ]/2

  Symmetry  B3g ( 7)

    6   N     y    [  2  -    5 ]/2


   Interatomic separations (in Angstrom):
   --------------------------------------

            N   _1      N   _2
            ------      ------
 N   _1:    0.000000
 N   _2:    1.097680    0.000000


  Max    interatomic separation is    1.0977 Angstrom (    2.0743 Bohr)
  between atoms    2 and    1, "N   _2" and "N   _1".

  Min YX interatomic separation is    1.0977 Angstrom (    2.0743 Bohr)


  Bond distances (Angstrom):
  --------------------------

                  atom 1     atom 2       distance
                  ------     ------       --------
  bond distance:  N   _2     N   _1       1.097680




 Principal moments of inertia (u*A**2) and principal axes
 --------------------------------------------------------

   IA       0.000000          0.000000    0.000000    1.000000
   IB       8.436160          0.000000    1.000000    0.000000
   IC       8.436160          1.000000    0.000000    0.000000


 Rotational constants
 --------------------

 The molecule is linear.

               B =        59906.28 MHz     (    1.998259 cm-1)


@  Nuclear repulsion energy :   23.622262854657 Hartree


  Symmetry Orbitals
  -----------------

  Number of orbitals in each symmetry:           7    3    3    1    7    3    3    1


  Symmetry  Ag ( 1)

    1     N        1s         1 +    2
    2     N        1s         3 +    4
    3     N        1s         5 +    6
    4     N        2pz       11 -   12
    5     N        2pz       17 -   18
    6     N        3d0       23 +   24
    7     N        3d2+      27 +   28


  Symmetry  B3u( 2)

    8     N        2px        7 +    8
    9     N        2px       13 +   14
   10     N        3d1+      25 -   26


  Symmetry  B2u( 3)

   11     N        2py        9 +   10
   12     N        2py       15 +   16
   13     N        3d1-      21 -   22


  Symmetry  B1g( 4)

   14     N        3d2-      19 +   20


  Symmetry  B1u( 5)

   15     N        1s         1 -    2
   16     N        1s         3 -    4
   17     N        1s         5 -    6
   18     N        2pz       11 +   12
   19     N        2pz       17 +   18
   20     N        3d0       23 -   24
   21     N        3d2+      27 -   28


  Symmetry  B2g( 6)

   22     N        2px        7 -    8
   23     N        2px       13 -   14
   24     N        3d1+      25 +   26


  Symmetry  B3g( 7)

   25     N        2py        9 -   10
   26     N        2py       15 -   16
   27     N        3d1-      21 +   22


  Symmetry  Au ( 8)

   28     N        3d2-      19 -   20

  Symmetries of electric field:  B3u(2)  B2u(3)  B1u(5)

  Symmetries of magnetic field:  B3g(7)  B2g(6)  B1g(4)


                     .---------------------------------------.
                     | Starting in Integral Section (HERMIT) |
                     `---------------------------------------'



    *************************************************************************
    ****************** Output from HERMIT input processing ******************
    *************************************************************************


 Default print level:        1

 * Nuclear model: Point charge

 Calculation of one- and two-electron Hamiltonian integrals.

 The following one-electron property integrals are calculated as requested:
          - overlap integrals
          - dipole length integrals

 Center of mass  (bohr):      0.000000000000      0.000000000000      0.000000000000
 Operator center (bohr):      0.000000000000      0.000000000000      0.000000000000
 Gauge origin    (bohr):      0.000000000000      0.000000000000      0.000000000000
 Dipole origin   (bohr):      0.000000000000      0.000000000000      0.000000000000


     ************************************************************************
     ************************** Output from HERINT **************************
     ************************************************************************


 Threshold for neglecting two-electron integrals:  1.00D-15
 Number of two-electron integrals written:       10381 ( 12.6% )
 Megabytes written:                              0.124

 >>>> Total CPU  time used in HERMIT:   0.03 seconds
 >>>> Total wall time used in HERMIT:   0.03 seconds


                        .----------------------------------.
                        | End of Integral Section (HERMIT) |
                        `----------------------------------'



                   .--------------------------------------------.
                   | Starting in Wave Function Section (SIRIUS) |
                   `--------------------------------------------'


 *** Output from Huckel module :

     Using EWMO model:          F
     Using EHT  model:          T
     Number of Huckel orbitals each symmetry:    3    1    1    0    3    1    1    0

 Huckel EHT eigenvalues for symmetry :  1
          -15.703205      -1.363954      -0.476808

 Huckel EHT eigenvalues for symmetry :  2
           -0.648566

 Huckel EHT eigenvalues for symmetry :  3
           -0.648566

 Huckel EHT eigenvalues for symmetry :  5
          -15.694743      -0.814285      -0.224605

 Huckel EHT eigenvalues for symmetry :  6
           -0.368834

 Huckel EHT eigenvalues for symmetry :  7
           -0.368834

 **********************************************************************
 *SIRIUS* a direct, restricted step, second order MCSCF program       *
 **********************************************************************

 
     Date and time (Linux)  : Sun Sep  8 20:42:29 2013
     Host name              : lpqlx131.ups-tlse.fr                    

 Title lines from ".mol" input file:
     N2                                                                      
                                                                             

 Print level on unit LUPRI =   2 is   0
 Print level on unit LUW4  =   2 is   5

@    (Integral direct) CC calculation.

@    This is a combination run starting with
@              a restricted, closed shell Hartree-Fock calculation


 Initial molecular orbitals are obtained according to
 ".MOSTART EHT   " input option

     Wave function specification
     ============================

     For the specification of the Coupled Cluster: see later.

@    For the wave function of type :      >>> CC <<<
@    Number of closed shell electrons          14
@    Number of electrons in active shells       0
@    Total charge of the molecule               0

@    Spin multiplicity and 2 M_S                1         0
     Total number of symmetries                 8
@    Reference state symmetry                   1

     Orbital specifications
     ======================
     Abelian symmetry species          All |    1    2    3    4    5    6    7    8
                                       --- |  ---  ---  ---  ---  ---  ---  ---  ---
     Total number of orbitals           28 |    7    3    3    1    7    3    3    1
     Number of basis functions          28 |    7    3    3    1    7    3    3    1

      ** Automatic occupation of RHF orbitals **

      -- Initial occupation of symmetries is determined from extended Huckel guess.           
      -- Initial occupation of symmetries is :
@    Occupied SCF orbitals               7 |    3    1    1    0    2    0    0    0

     Maximum number of Fock   iterations      0
     Maximum number of DIIS   iterations     60
     Maximum number of QC-SCF iterations     60
     Threshold for SCF convergence     1.00D-10


 Changes of defaults for CC:
 ---------------------------


 -Implicit frozen core calculation
 -Cubic response properties calculated
  


 >>>>> DIIS optimization of Hartree-Fock <<<<<

 C1-DIIS algorithm; max error vectors =   10

 Automatic occupation of symmetries with  14 electrons.

 Iter     Total energy    Error norm  Delta(E)    SCF occupation
 -----------------------------------------------------------------------------
     (Precalculated two-electron integrals are transformed to P-supermatrix elements.
      Threshold for discarding integrals :  1.00D-15 )
@  1  -108.635123202       2.71D+00  -1.09D+02     3   1   1   0   2   0   0   0
      Virial theorem: -V/T =      2.012314
@      MULPOP N   _1  0.00; N   _2  0.00; 
 -----------------------------------------------------------------------------
@  2  -108.940323980       4.98D-01  -3.05D-01     3   1   1   0   2   0   0   0
      Virial theorem: -V/T =      1.996097
@      MULPOP N   _1 -0.00; N   _2 -0.00; 
 -----------------------------------------------------------------------------
@  3  -108.953672188       7.91D-02  -1.33D-02     3   1   1   0   2   0   0   0
      Virial theorem: -V/T =      2.002836
@      MULPOP N   _1  0.00; N   _2  0.00; 
 -----------------------------------------------------------------------------
@  4  -108.954115796       1.36D-02  -4.44D-04     3   1   1   0   2   0   0   0
      Virial theorem: -V/T =      2.002130
@      MULPOP N   _1 -0.00; N   _2 -0.00; 
 -----------------------------------------------------------------------------
@  5  -108.954130636       1.30D-03  -1.48D-05     3   1   1   0   2   0   0   0
      Virial theorem: -V/T =      2.002200
@      MULPOP N   _1 -0.00; N   _2 -0.00; 
 -----------------------------------------------------------------------------
@  6  -108.954130766       9.19D-05  -1.31D-07     3   1   1   0   2   0   0   0
      Virial theorem: -V/T =      2.002196
@      MULPOP N   _1  0.00; N   _2  0.00; 
 -----------------------------------------------------------------------------
@  7  -108.954130767       6.62D-06  -5.21D-10     3   1   1   0   2   0   0   0
      Virial theorem: -V/T =      2.002197
@      MULPOP N   _1 -0.00; N   _2 -0.00; 
 -----------------------------------------------------------------------------
@  8  -108.954130767       5.75D-07  -3.98D-12     3   1   1   0   2   0   0   0
      Virial theorem: -V/T =      2.002197
@      MULPOP N   _1 -0.00; N   _2 -0.00; 
 -----------------------------------------------------------------------------
@  9  -108.954130767       6.43D-08   0.00D+00     3   1   1   0   2   0   0   0
      Virial theorem: -V/T =      2.002197
@      MULPOP N   _1 -0.00; N   _2 -0.00; 
 -----------------------------------------------------------------------------
@ 10  -108.954130767       3.44D-09  -2.84D-14     3   1   1   0   2   0   0   0
      Virial theorem: -V/T =      2.002197
@      MULPOP N   _1  0.00; N   _2  0.00; 
 -----------------------------------------------------------------------------
@ 11  -108.954130767       5.72D-10  -2.84D-14     3   1   1   0   2   0   0   0
      Virial theorem: -V/T =      2.002197
@      MULPOP N   _1 -0.00; N   _2 -0.00; 
 -----------------------------------------------------------------------------
@ 12  -108.954130767       3.91D-11   5.68D-14     3   1   1   0   2   0   0   0

@ *** DIIS converged in  12 iterations !
@     Converged SCF energy, gradient:   -108.954130766747    3.91D-11
    - total time used in SIRFCK :              0.00 seconds


 *** SCF orbital energy analysis ***

 Only the five lowest virtual orbital energies printed in each symmetry.

 Number of electrons :   14
 Orbital occupations :    3    1    1    0    2    0    0    0

 Sym       Hartree-Fock orbital energies

  1    -15.68643302    -1.47120859    -0.62622749     0.82008402     0.99224378
         1.75739121     2.87449467

  2     -0.60815945     0.87221405     1.88205530

  3     -0.60815945     0.87221405     1.88205530

  4      1.75739121

  5    -15.68303014    -0.77409691     0.59463530     1.14441040     1.64322976
         2.29898758     3.28384200

  6      0.17565814     1.05104251     2.99647723

  7      0.17565814     1.05104251     2.99647723

  8      2.29898758

    E(LUMO) :     0.17565814 au (symmetry 6)
  - E(HOMO) :    -0.60815945 au (symmetry 2)
  ------------------------------------------
    gap     :     0.78381760 au

 >>> Writing SIRIFC interface file <<<

 >>>> CPU and wall time for SCF :       0.006       0.006


                       .-----------------------------------.
                       | >>> Final results from SIRIUS <<< |
                       `-----------------------------------'


@    Spin multiplicity:           1
@    Spatial symmetry:            1
@    Total charge of molecule:    0

@    Final HF energy:            -108.954130766747                 
@    Nuclear repulsion:            23.622262854657
@    Electronic energy:          -132.576393621403

@    Final gradient norm:           0.000000000039

 
     Date and time (Linux)  : Sun Sep  8 20:42:29 2013
     Host name              : lpqlx131.ups-tlse.fr                    

 (Only coefficients >0.0100 are printed.)

 Molecular orbitals for symmetry species  1
 ------------------------------------------

    Orbital         1        2        3        4        5
   1 N   :1s     0.7069  -0.0087  -0.0114   0.1577  -0.4269
   2 N   :1s     0.0008   0.6660   0.1916   0.6015  -2.0701
   3 N   :1s    -0.0000  -0.1914   0.2197  -0.3502   2.1305
   4 N   :2pz   -0.0020  -0.3214   0.6703  -0.6790  -0.3971
   5 N   :2pz    0.0015   0.1123  -0.0966   1.2599   0.3650
   6 N   :3d0    0.0004   0.0285  -0.0250   0.0714  -0.0636

 Molecular orbitals for symmetry species  2
 ------------------------------------------

    Orbital         1        2        3
   1 N   :2px    0.6293  -0.9478   0.4272
   2 N   :2px   -0.0339   1.0580  -0.2665
   3 N   :3d1+  -0.0475   0.1034   0.5954

 Molecular orbitals for symmetry species  3
 ------------------------------------------

    Orbital         1        2        3
   1 N   :2py    0.6293  -0.9478   0.4272
   2 N   :2py   -0.0339   1.0580  -0.2665
   3 N   :3d1-  -0.0475   0.1034   0.5954

 Molecular orbitals for symmetry species  4
 ------------------------------------------

    Orbital         1
   1 N   :3d2-   0.6530

 Molecular orbitals for symmetry species  5
 ------------------------------------------

    Orbital         1        2        3        4
   1 N   :1s     0.7080   0.0035   0.0307   0.1454
   2 N   :1s     0.0033   0.6527  -0.3363   0.4514
   3 N   :1s    -0.0045   0.0441  -3.7484  -0.9095
   4 N   :2pz   -0.0035   0.3186   0.0889   1.1151
   5 N   :2pz    0.0030  -0.0331   2.5926  -0.7022
   6 N   :3d0    0.0012  -0.0134  -0.0539   0.2305

 Molecular orbitals for symmetry species  6
 ------------------------------------------

    Orbital         1        2
   1 N   :2px    0.6312   1.0812
   2 N   :2px    0.3857  -1.6571
   3 N   :3d1+   0.0130   0.0688

 Molecular orbitals for symmetry species  7
 ------------------------------------------

    Orbital         1        2
   1 N   :2py    0.6312   1.0812
   2 N   :2py    0.3857  -1.6571
   3 N   :3d1-   0.0130   0.0688

 Molecular orbitals for symmetry species  8
 ------------------------------------------

    Orbital         1
   1 N   :3d2-   0.7773



 >>>> Total CPU  time used in SIRIUS :      0.01 seconds
 >>>> Total wall time used in SIRIUS :      0.01 seconds

 
     Date and time (Linux)  : Sun Sep  8 20:42:29 2013
     Host name              : lpqlx131.ups-tlse.fr                    


                     .---------------------------------------.
                     | End of Wave Function Section (SIRIUS) |
                     `---------------------------------------'



                    .------------------------------------------.
                    | Starting in Coupled Cluster Section (CC) |
                    `------------------------------------------'

  

 *******************************************************************************
 *******************************************************************************
 *                                                                             *
 *                                                                             *
 *                    START OF COUPLED CLUSTER CALCULATION                     *
 *                                                                             *
 *                                                                             *
 *******************************************************************************
 *******************************************************************************


  I am freezing!
  >> output from FNDMN3 <<
  NUMBER OF ELEMENTS OBTAINED IN FNDMN3            2
  FROM FNDMN3 : 
    PLACES OF LOWEST ELEMENTS 
     1 :      1     15
  MIN AND MAX IN SELECTED SUPSPACE   -15.686433024023628       -15.683030137285670     
 Freezing HF-orbital   1 of symmetry   1 and with orbital energy  -15.6864
 Freezing HF-orbital  15 of symmetry   5 and with orbital energy  -15.6830
 In total frozen-core per symmetry-class:  1  0  0  0  1  0  0  0
 


 CCR12 ANSATZ =   0

 CCR12 APPROX =   0

   

 *******************************************************************
 *                                                                 *
 *<<<<<<<<<<                                             >>>>>>>>>>*
 *<<<<<<<<<< OUTPUT FROM COUPLED CLUSTER ENERGY PROGRAM  >>>>>>>>>>*
 *<<<<<<<<<<                                             >>>>>>>>>>*
 *                                                                 *
 *******************************************************************


             The Direct Coupled Cluster Energy Program
             -----------------------------------------


          Number of t1 amplitudes                 :        17
          Number of t2 amplitudes                 :       802
          Total number of amplitudes in ccsd      :       819

 Iter.  1: Coupled cluster MP2   energy :    -109.2604217705885077
     Conventional correlation energy:    -0.3062910038420057

       Iteration no.:  1
       -----------------

       Time used in   RHS - TOTAL  :       0.00 seconds
       Norm^2 of omega1 after ccvec:        0.4160573612D-02
       Norm^2 of omega2 after ccvec:        0.8318444615D-28
 Iter.  1: Coupled cluster CC2   energy :    -109.2602800889353460
     Conventional correlation energy:    -0.3061493221888441

       Iteration no.:  2
       -----------------

       Time used in   RHS - TOTAL  :       0.00 seconds
       Norm^2 of omega1 after ccvec:        0.9787128254D-04
       Norm^2 of omega2 after ccvec:        0.2837637028D-03
 Iter.  2: Coupled cluster CC2   energy :    -109.2648578824331906
     Conventional correlation energy:    -0.3107271156866886

       Iteration no.:  3
       -----------------

       Time used in   RHS - TOTAL  :       0.00 seconds
       Norm^2 of omega1 after ccvec:        0.2123847162D-04
       Norm^2 of omega2 after ccvec:        0.1779927897D-05
 Iter.  3: Coupled cluster CC2   energy :    -109.2654671014607430
     Conventional correlation energy:    -0.3113363347142410

       Iteration no.:  4
       -----------------

       Time used in   RHS - TOTAL  :       0.00 seconds
       Norm^2 of omega1 after ccvec:        0.8828424771D-07
       Norm^2 of omega2 after ccvec:        0.9569594597D-07
 Iter.  4: Coupled cluster CC2   energy :    -109.2654599603108920
     Conventional correlation energy:    -0.3113291935643900

       Iteration no.:  5
       -----------------

       Time used in   RHS - TOTAL  :       0.00 seconds
       Norm^2 of omega1 after ccvec:        0.3360054442D-08
       Norm^2 of omega2 after ccvec:        0.1814751097D-08
 Iter.  5: Coupled cluster CC2   energy :    -109.2654617620209621
     Conventional correlation energy:    -0.3113309952744601

       Iteration no.:  6
       -----------------

       Time used in   RHS - TOTAL  :       0.00 seconds
       Norm^2 of omega1 after ccvec:        0.1253601978D-09
       Norm^2 of omega2 after ccvec:        0.1381955107D-09
 Iter.  6: Coupled cluster CC2   energy :    -109.2654618616694506
     Conventional correlation energy:    -0.3113310949229486

       Iteration no.:  7
       -----------------

       Time used in   RHS - TOTAL  :       0.00 seconds
       Norm^2 of omega1 after ccvec:        0.2917219797D-11
       Norm^2 of omega2 after ccvec:        0.1576047176D-11
 Iter.  7: Coupled cluster CC2   energy :    -109.2654618646703710
     Conventional correlation energy:    -0.3113310979238690

       Iteration no.:  8
       -----------------

       Time used in   RHS - TOTAL  :       0.00 seconds
       Norm^2 of omega1 after ccvec:        0.1438539544D-12
       Norm^2 of omega2 after ccvec:        0.9181921760D-13
 Iter.  8: Coupled cluster CC2   energy :    -109.2654618644212121
     Conventional correlation energy:    -0.3113310976747101

       Iteration no.:  9
       -----------------

       Time used in   RHS - TOTAL  :       0.00 seconds
       Norm^2 of omega1 after ccvec:        0.3207822348D-14
       Norm^2 of omega2 after ccvec:        0.1536259079D-14
 Iter.  9: Coupled cluster CC2   energy :    -109.2654618631181052
     Conventional correlation energy:    -0.3113310963716032

       Iteration no.: 10
       -----------------

       Time used in   RHS - TOTAL  :       0.00 seconds
       Norm^2 of omega1 after ccvec:        0.7477115069D-16
       Norm^2 of omega2 after ccvec:        0.3261336897D-15
 Iter. 10: Coupled cluster CC2   energy :    -109.2654618635313284
     Conventional correlation energy:    -0.3113310967848264

       Iteration no.: 11
       -----------------

       Time used in   RHS - TOTAL  :       0.00 seconds
       Norm^2 of omega1 after ccvec:        0.2469582335D-16
       Norm^2 of omega2 after ccvec:        0.4308148095D-17
 Iter. 11: Coupled cluster CC2   energy :    -109.2654618635477135
     Conventional correlation energy:    -0.3113310968012115

       Iteration no.: 12
       -----------------

       Time used in   RHS - TOTAL  :       0.00 seconds
       Norm^2 of omega1 after ccvec:        0.2285964370D-18
       Norm^2 of omega2 after ccvec:        0.2628103615D-18
 Iter. 12: Coupled cluster CC2   energy :    -109.2654618635438908
     Conventional correlation energy:    -0.3113310967973888

       Iteration no.: 13
       -----------------

       Time used in   RHS - TOTAL  :       0.00 seconds
       Norm^2 of omega1 after ccvec:        0.2570169276D-19
       Norm^2 of omega2 after ccvec:        0.5717383085D-20
 Iter. 13: Coupled cluster CC2   energy :    -109.2654618635520904
     Conventional correlation energy:    -0.3113310968055885

       Iteration no.: 14
       -----------------

       Time used in   RHS - TOTAL  :       0.00 seconds
       Norm^2 of omega1 after ccvec:        0.1003665725D-21
       Norm^2 of omega2 after ccvec:        0.1626486156D-21
 Iter. 14: Coupled cluster CC2   energy :    -109.2654618635505273
     Conventional correlation energy:    -0.3113310968040253

       Iteration no.: 15
       -----------------

       Time used in   RHS - TOTAL  :       0.00 seconds
       Norm^2 of omega1 after ccvec:        0.4862599143D-23
       Norm^2 of omega2 after ccvec:        0.2449233598D-23
 Iter. 15: Coupled cluster CC2   energy :    -109.2654618635506978
     Conventional correlation energy:    -0.3113310968041958

       Iteration no.: 16
       -----------------

       Time used in   RHS - TOTAL  :       0.00 seconds
       Norm^2 of omega1 after ccvec:        0.1280786912D-24
       Norm^2 of omega2 after ccvec:        0.6421776160D-25
 Iter. 16: Coupled cluster CC2   energy :    -109.2654618635506978
     Conventional correlation energy:    -0.3113310968041958

 CC2   energy converged to within   0.10D-13 is         -109.265461863551
 Final 2-norm of the CC vector function:  4.38516194D-13


                    +------------------------------------------+
                    ! Largest amplitudes in converged solution !
                    +------------------------------------------+



          CC_PRAM:Overall Contribution of the Different Components
          --------------------------------------------------------



          Single Excitation Contribution :               3.0685 %

          Double Excitation Contribution :              96.9315 %

          ||T1||/||T2||                  :               0.1779

          Tau1 diagnostic                :               0.0132

          Norm of Total Amplitude Vector :               0.2390


 +=============================================================================+
 | symmetry|  orbital index  |   Excitation Numbers             |   Amplitude  |
 |  Index  |   a   b   i   j |      NAI      NBJ |     NAIBJ    |              |
 +=============================================================================+
 | 1   1   |   2       2     |        6          |              |    0.005859  |
 | 2   2   |   1       1     |        9          |              |   -0.022892  |
 | 2   2   |   2       1     |       10          |              |    0.015154  |
 | 3   3   |   1       1     |       11          |              |   -0.022892  |
 | 3   3   |   2       1     |       12          |              |    0.015154  |
 | 5   5   |   2       1     |       14          |              |   -0.011266  |
 +-----------------------------------------------------------------------------+
 | 6 6 5 5 |   1   1   1   1 |       10       10 |          208 |   -0.038206  |
 | 7 7 5 5 |   1   1   1   1 |       10       10 |          286 |   -0.038206  |
 | 5 5 1 1 |   2   2   2   2 |        7        7 |          365 |   -0.033198  |
 | 6 6 2 2 |   1   1   1   1 |       11       11 |          403 |   -0.090120  |
 | 7 6 3 2 |   1   1   1   1 |       14       11 |          439 |   -0.072299  |
 | 7 7 3 3 |   1   1   1   1 |       14       14 |          442 |   -0.090120  |
 +=============================================================================+


          Norm of Printed Amplitude Vector :             0.1648

          Printed all single excitations greater than 0.005839

          Printed all double excitations greater than 0.032818





             +-------------------------------------------------------+
             ! Final results from the Coupled Cluster energy program !
             +-------------------------------------------------------+



            Total SCF   energy:                  -108.9541307667

            Total MP2   energy:                  -109.2604217706

            Total CC2   energy:                  -109.2654618636




                   +--------------------------------------------+
                   ! Calculating singlet intermediates for CCLR !
                   +--------------------------------------------+



       Time used in   RHS - TOTAL  :       0.00 seconds


            E-intermediates calculated 
            Fock-intermediate calculated 


   

 *******************************************************************
 *                                                                 *
 *<<<<<<<<<<<<< OUTPUT FROM COUPLED CLUSTER RESPONSE  >>>>>>>>>>>>>*
 *                                                                 *
 *******************************************************************



                         +-------------------------------+
                         ! Coupled Cluster model is: CC2 !
                         +-------------------------------+


 Solving   1 response equations:
 L0 :
 RPA: call cceq_str
     Start vector generated from gradient
 RPA: exit cceq_str



 >>>>> COUPLED CLUSTER RESPONSE SOLVER <<<<<

    Iter  #Vectors  time (min)   residual
    --------------------------------------
  
 ROOT:  1 RESIDUAL TOT: 1.97365D-01
      1       1         0.00     0.20E+00
 Dimension of the reduced space:     2
 >>> TIME USED IN THIS MICRO ITERATION        0.00

  
 ROOT:  1 RESIDUAL TOT: 8.06250D-02
      2       1         0.00     0.81E-01
 Dimension of the reduced space:     3
 >>> TIME USED IN THIS MICRO ITERATION        0.00

  
 ROOT:  1 RESIDUAL TOT: 6.84388D-03
      3       1         0.00     0.68E-02
 Dimension of the reduced space:     4
 >>> TIME USED IN THIS MICRO ITERATION        0.00

  
 ROOT:  1 RESIDUAL TOT: 1.50865D-03
      4       1         0.00     0.15E-02
 Dimension of the reduced space:     5
 >>> TIME USED IN THIS MICRO ITERATION        0.00

  
 ROOT:  1 RESIDUAL TOT: 1.89643D-04
      5       1         0.00     0.19E-03
 Dimension of the reduced space:     6
 >>> TIME USED IN THIS MICRO ITERATION        0.00

  
 ROOT:  1 RESIDUAL TOT: 4.31406D-05
      6       1         0.00     0.43E-04
 Dimension of the reduced space:     7
 >>> TIME USED IN THIS MICRO ITERATION        0.00

  
 ROOT:  1 RESIDUAL TOT: 6.87477D-06
      7       1         0.00     0.69E-05
 Dimension of the reduced space:     8
 >>> TIME USED IN THIS MICRO ITERATION        0.00

  
 ROOT:  1 RESIDUAL TOT: 1.06584D-06
      8       1         0.00     0.11E-05
 Dimension of the reduced space:     9
 >>> TIME USED IN THIS MICRO ITERATION        0.00

  
 ROOT:  1 RESIDUAL TOT: 1.42876D-07
      9       1         0.00     0.14E-06
 Dimension of the reduced space:    10
 >>> TIME USED IN THIS MICRO ITERATION        0.00

  
 ROOT:  1 RESIDUAL TOT: 2.94105D-08
     10       1         0.00     0.29E-07
 Dimension of the reduced space:    11
 >>> TIME USED IN THIS MICRO ITERATION        0.00

  
 ROOT:  1 RESIDUAL TOT: 3.91864D-09
     11       1         0.00     0.39E-08
 Dimension of the reduced space:    12
 >>> TIME USED IN THIS MICRO ITERATION        0.00

  
 ROOT:  1 RESIDUAL TOT: 6.93320D-10
     12       1         0.00     0.69E-09
 Dimension of the reduced space:    13
 >>> TIME USED IN THIS MICRO ITERATION        0.00

  
 ROOT:  1 RESIDUAL TOT: 1.24264D-10
     13       1         0.00     0.12E-09
 Dimension of the reduced space:    14
 >>> TIME USED IN THIS MICRO ITERATION        0.00

  
 ROOT:  1 RESIDUAL TOT: 1.63011D-11
     14       1         0.00     0.16E-10
 Dimension of the reduced space:    15
 >>> TIME USED IN THIS MICRO ITERATION        0.00

  
 ROOT:  1 RESIDUAL TOT: 2.39013D-12
     15       1         0.00     0.24E-11
 Dimension of the reduced space:    16
 >>> TIME USED IN THIS MICRO ITERATION        0.00

  
 ROOT:  1 RESIDUAL TOT: 3.03477D-13
 ROOT:  1 HAS CONVERGED. RESIDUAL TOT: 3.03477D-13
     16       1         0.00     0.30E-12
 Dimension of the reduced space:    16
 >>> TIME USED IN THIS MICRO ITERATION        0.00

    --------------------------------------
    converged in 16 iterations
    threshold:    0.10E-11


         Routine          Time (min)
         ---------------------------
         CC_TRDRV            0.00
         CCRED               0.00
         CCNEX               0.00
         ---------------------------
         Total time          0.00


 >>>> Total CPU  time used in CCEQ_SOLV:   0.04 seconds
 >>>> Total wall time used in CCEQ_SOLV:   0.07 seconds


 >>>>>>>>>>>>>>>>>>>>> <<<<<<<<<<<<<<<<<<<<<



 Analysis of CC Response/Cauchy vector:
 --------------------------------------


          CC_PRAM:Overall Contribution of the Different Components
          --------------------------------------------------------



          Single Excitation Contribution :               1.3897 %

          Double Excitation Contribution :              98.6103 %

          ||T1||/||T2||                  :               0.1187

          Norm of Total Amplitude Vector :               0.6821


 +=============================================================================+
 | symmetry|  orbital index  |   Excitation Numbers             |   Amplitude  |
 |  Index  |   a   b   i   j |      NAI      NBJ |     NAIBJ    |              |
 +=============================================================================+
 | 2   2   |   1       1     |        9          |              |   -0.041381  |
 | 2   2   |   2       1     |       10          |              |    0.029890  |
 | 3   3   |   1       1     |       11          |              |   -0.041381  |
 | 3   3   |   2       1     |       12          |              |    0.029890  |
 | 5   5   |   2       1     |       14          |              |   -0.026220  |
 +-----------------------------------------------------------------------------+
 | 6 6 2 2 |   1   1   1   1 |       11       11 |          403 |   -0.179692  |
 | 7 6 3 2 |   1   1   1   1 |       14       11 |          439 |   -0.270517  |
 | 7 7 3 3 |   1   1   1   1 |       14       14 |          442 |   -0.179692  |
 +=============================================================================+


          Norm of Printed Amplitude Vector :             0.3790

          Printed all single excitations greater than 0.019648

          Printed all double excitations greater than 0.165504
            Norm of singles part:        0.8040534912E-01
            Norm of doubles part:        0.6772947614E+00
  

 *******************************************************************

 Ground state energy is target 

 Ecorr =                   -109.26546186355069778529

 *******************************************************************
     

   *******************************************************************
   *                                                                 *
   *<<<<<<<<   OUTPUT FROM PROPERTY AND SYMMETRY ANALYSIS   >>>>>>>>>*
   *                                                                 *
   *******************************************************************



                         +-------------------------------+
                         ! REQUESTED PROPERTY OPERATORS: !
                         +-------------------------------+

             Index   Oper. Label  Symmetry  Transp.  PDBS  Atom
             --------------------------------------------------
                1     HAM0            1        1      T      0
                2     XDIPLEN         2        1      F      0
                3     YDIPLEN         3        1      F      0
                4     ZDIPLEN         5        1      F      0
             --------------------------------------------------




                         +-------------------------------+
                         ! REQUESTED EXPECTATION VALUES: !
                         +-------------------------------+

                       Index   Oper. Label  Symmetry
                       -----------------------------
                       -----------------------------




                       +------------------------------------+
                       ! REQUESTED EFFECTIVE FOCK MATRICES: !
                       +------------------------------------+

                       Index   Oper. Label  Symmetry
                       -----------------------------
                       -----------------------------




                       +-----------------------------------+
                       ! REQUESTED FIRST ORDER XI VECTORS: !
                       +-----------------------------------+

             Index   Oper. Label  relaxed  Sym.     Frequency
             --------------------------------------------------
                1      XDIPLEN        F     2      0.000000D+00
                2      YDIPLEN        F     3      0.000000D+00
                3      ZDIPLEN        F     5      0.000000D+00
             --------------------------------------------------




                        +----------------------------------+
                        ! REQUESTED FIRST ORDER T VECTORS: !
                        +----------------------------------+

             Index   Oper. Label  relaxed  Sym.     Frequency
             --------------------------------------------------
                1      XDIPLEN        F     2      0.000000D+00
                2      YDIPLEN        F     3      0.000000D+00
                3      ZDIPLEN        F     5     -0.000000D+00
             --------------------------------------------------




                       +------------------------------------+
                       ! REQUESTED FIRST ORDER ETA VECTORS: !
                       +------------------------------------+

             Index   Oper. Label  relaxed  Sym.     Frequency
             --------------------------------------------------
                1      XDIPLEN        F     2      0.000000D+00
                2      YDIPLEN        F     3      0.000000D+00
                3      ZDIPLEN        F     5      0.000000D+00
             --------------------------------------------------




                      +-------------------------------------+
                      ! REQUESTED FIRST ORDER ZETA VECTORS: !
                      +-------------------------------------+

             Index   Oper. Label  relaxed  Sym.     Frequency
             --------------------------------------------------
                1      XDIPLEN        F     2      0.000000D+00
                2      YDIPLEN        F     3      0.000000D+00
                3      ZDIPLEN        F     5     -0.000000D+00
             --------------------------------------------------




                      +--------------------------------------+
                      ! REQUESTED SECOND-ORDER XKSI VECTORS: !
                      +--------------------------------------+

     Index    Oper. Label  Symmetry  Frequency   Oper. Label  Symmetry  Frequency  Symmetry
     ----------------------------------------------------------------------
    1   XDIPLEN   2     0.000000D+00   XDIPLEN   2     0.000000D+00  1
    2   YDIPLEN   3     0.000000D+00   YDIPLEN   3     0.000000D+00  1
    3   ZDIPLEN   5    -0.000000D+00   ZDIPLEN   5     0.000000D+00  1
    4   XDIPLEN   2    -0.000000D+00   YDIPLEN   3     0.000000D+00  4
    5   ZDIPLEN   5    -0.000000D+00   XDIPLEN   2     0.000000D+00  6
     ----------------------------------------------------------------------




                       +-----------------------------------+
                       ! REQUESTED SECOND-ORDER T VECTORS: !
                       +-----------------------------------+

     Index    Oper. Label  Symmetry  Frequency   Oper. Label  Symmetry  Frequency  Symmetry
     ----------------------------------------------------------------------
    1   XDIPLEN   2     0.000000D+00   XDIPLEN   2     0.000000D+00  1
    2   YDIPLEN   3     0.000000D+00   YDIPLEN   3     0.000000D+00  1
    3   ZDIPLEN   5    -0.000000D+00   ZDIPLEN   5     0.000000D+00  1
    4   XDIPLEN   2    -0.000000D+00   YDIPLEN   3     0.000000D+00  4
    5   ZDIPLEN   5    -0.000000D+00   XDIPLEN   2     0.000000D+00  6
     ----------------------------------------------------------------------


      

    *******************************************************************
    *          SOLVING COUPLED CLUSTER RESPONSE EQUATIONS             *
    *******************************************************************



 
 +======================================================================+
 !                     RHS & ETA VECTORS TO COMPUTE:                    !
 +======================================================================+
 | TYPE | # VEC. |  NEEDED FOR:                                         |
 +----------------------------------------------------------------------+
 |  O1  |    3   |  first-order amplitude equations                     |
 |  X1  |    3   |  first-order multipliers equations                   |
 |  O2  |    5   |  second-order amplitude equations                    |
 +======================================================================+



 +======================================================================+
 !                       LINEAR EQUATIONS TO SOLVE:                     !
 +======================================================================+
 | TYPE | # VEC. |  EQUATION:                                           |
 +----------------------------------------------------------------------+
 |  R1  |    3   |  first-order amplitude response                      |
 |  L1  |    3   |  first-order multiplier response                     |
 |  R2  |    5   |  second-order amplitude response                     |
 +======================================================================+



 +======================================================================+
 !                F MATRIX TRANSFORMATIONS TO COMPUTE:                  !
 +======================================================================+
 | TYPE | # VEC. |  TRANSFORMED:                                        |
 +----------------------------------------------------------------------+
 |  F1  |    3   |  first-order amplitude response (R1) vector          |
 +======================================================================+




 -------------------------------------------------------------------
 |          OUTPUT FROM AMPLITUDE RHS VECTOR SECTION               |
 -------------------------------------------------------------------



   For the requested  3 1th.-order amplitude rhs vectors "O1 ".
         -   0 D matrix transformations 
         -   0 C matrix transformations 
         -   0 B matrix transformations 
         -   0 C{O} matrix transformations 
         -   0 B{O} matrix transformations 
         -   0 A{O} matrix transformations 
         -   3Xi{O} vector calculations    
   will be performed.



 Solving   1 response equations:
 R1 :XDIPLEN   0.000000  2
 RPA: call cceq_str

 Finding gradient for 
 Frequency  0.000000 and label: XDIPLEN  and symmetry:   2
     R1  start vector nr.  1 of symmetry  2 generated from gradient
 RPA: exit cceq_str



 >>>>> COUPLED CLUSTER RESPONSE SOLVER <<<<<

    Iter  #Vectors  time (min)   residual
    --------------------------------------

 Finding gradient for 
 Frequency  0.000000 and label: XDIPLEN  and symmetry:   2

 Finding gradient for 
 Frequency  0.000000 and label: XDIPLEN  and symmetry:   2
  
 ROOT:  1 RESIDUAL TOT: 4.32646D-01
      1       1         0.00     0.43E+00
 Dimension of the reduced space:     2
 >>> TIME USED IN THIS MICRO ITERATION        0.00


 Finding gradient for 
 Frequency  0.000000 and label: XDIPLEN  and symmetry:   2

 Finding gradient for 
 Frequency  0.000000 and label: XDIPLEN  and symmetry:   2
  
 ROOT:  1 RESIDUAL TOT: 1.19303D-01
      2       1         0.00     0.12E+00
 Dimension of the reduced space:     3
 >>> TIME USED IN THIS MICRO ITERATION        0.00


 Finding gradient for 
 Frequency  0.000000 and label: XDIPLEN  and symmetry:   2

 Finding gradient for 
 Frequency  0.000000 and label: XDIPLEN  and symmetry:   2
  
 ROOT:  1 RESIDUAL TOT: 3.29794D-02
      3       1         0.00     0.33E-01
 Dimension of the reduced space:     4
 >>> TIME USED IN THIS MICRO ITERATION        0.00


 Finding gradient for 
 Frequency  0.000000 and label: XDIPLEN  and symmetry:   2

 Finding gradient for 
 Frequency  0.000000 and label: XDIPLEN  and symmetry:   2
  
 ROOT:  1 RESIDUAL TOT: 7.02616D-03
      4       1         0.00     0.70E-02
 Dimension of the reduced space:     5
 >>> TIME USED IN THIS MICRO ITERATION        0.00


 Finding gradient for 
 Frequency  0.000000 and label: XDIPLEN  and symmetry:   2

 Finding gradient for 
 Frequency  0.000000 and label: XDIPLEN  and symmetry:   2
  
 ROOT:  1 RESIDUAL TOT: 6.99362D-04
      5       1         0.00     0.70E-03
 Dimension of the reduced space:     6
 >>> TIME USED IN THIS MICRO ITERATION        0.00


 Finding gradient for 
 Frequency  0.000000 and label: XDIPLEN  and symmetry:   2

 Finding gradient for 
 Frequency  0.000000 and label: XDIPLEN  and symmetry:   2
  
 ROOT:  1 RESIDUAL TOT: 1.43873D-04
      6       1         0.00     0.14E-03
 Dimension of the reduced space:     7
 >>> TIME USED IN THIS MICRO ITERATION        0.00


 Finding gradient for 
 Frequency  0.000000 and label: XDIPLEN  and symmetry:   2

 Finding gradient for 
 Frequency  0.000000 and label: XDIPLEN  and symmetry:   2
  
 ROOT:  1 RESIDUAL TOT: 2.72984D-05
      7       1         0.00     0.27E-04
 Dimension of the reduced space:     8
 >>> TIME USED IN THIS MICRO ITERATION        0.00


 Finding gradient for 
 Frequency  0.000000 and label: XDIPLEN  and symmetry:   2

 Finding gradient for 
 Frequency  0.000000 and label: XDIPLEN  and symmetry:   2
  
 ROOT:  1 RESIDUAL TOT: 4.92788D-06
      8       1         0.00     0.49E-05
 Dimension of the reduced space:     9
 >>> TIME USED IN THIS MICRO ITERATION        0.00


 Finding gradient for 
 Frequency  0.000000 and label: XDIPLEN  and symmetry:   2

 Finding gradient for 
 Frequency  0.000000 and label: XDIPLEN  and symmetry:   2
  
 ROOT:  1 RESIDUAL TOT: 7.12872D-07
      9       1         0.00     0.71E-06
 Dimension of the reduced space:    10
 >>> TIME USED IN THIS MICRO ITERATION        0.00


 Finding gradient for 
 Frequency  0.000000 and label: XDIPLEN  and symmetry:   2

 Finding gradient for 
 Frequency  0.000000 and label: XDIPLEN  and symmetry:   2
  
 ROOT:  1 RESIDUAL TOT: 1.29235D-07
     10       1         0.00     0.13E-06
 Dimension of the reduced space:    11
 >>> TIME USED IN THIS MICRO ITERATION        0.00


 Finding gradient for 
 Frequency  0.000000 and label: XDIPLEN  and symmetry:   2

 Finding gradient for 
 Frequency  0.000000 and label: XDIPLEN  and symmetry:   2
  
 ROOT:  1 RESIDUAL TOT: 1.00487D-08
     11       1         0.00     0.10E-07
 Dimension of the reduced space:    12
 >>> TIME USED IN THIS MICRO ITERATION        0.00


 Finding gradient for 
 Frequency  0.000000 and label: XDIPLEN  and symmetry:   2

 Finding gradient for 
 Frequency  0.000000 and label: XDIPLEN  and symmetry:   2
  
 ROOT:  1 RESIDUAL TOT: 1.56043D-09
     12       1         0.00     0.16E-08
 Dimension of the reduced space:    13
 >>> TIME USED IN THIS MICRO ITERATION        0.00


 Finding gradient for 
 Frequency  0.000000 and label: XDIPLEN  and symmetry:   2

 Finding gradient for 
 Frequency  0.000000 and label: XDIPLEN  and symmetry:   2
  
 ROOT:  1 RESIDUAL TOT: 1.57742D-10
     13       1         0.00     0.16E-09
 Dimension of the reduced space:    14
 >>> TIME USED IN THIS MICRO ITERATION        0.00


 Finding gradient for 
 Frequency  0.000000 and label: XDIPLEN  and symmetry:   2

 Finding gradient for 
 Frequency  0.000000 and label: XDIPLEN  and symmetry:   2
  
 ROOT:  1 RESIDUAL TOT: 2.81172D-11
     14       1         0.00     0.28E-10
 Dimension of the reduced space:    15
 >>> TIME USED IN THIS MICRO ITERATION        0.00


 Finding gradient for 
 Frequency  0.000000 and label: XDIPLEN  and symmetry:   2

 Finding gradient for 
 Frequency  0.000000 and label: XDIPLEN  and symmetry:   2
  
 ROOT:  1 RESIDUAL TOT: 1.60087D-12
     15       1         0.00     0.16E-11
 Dimension of the reduced space:    16
 >>> TIME USED IN THIS MICRO ITERATION        0.00


 Finding gradient for 
 Frequency  0.000000 and label: XDIPLEN  and symmetry:   2

 Finding gradient for 
 Frequency  0.000000 and label: XDIPLEN  and symmetry:   2
  
 ROOT:  1 RESIDUAL TOT: 2.56287D-13
 ROOT:  1 HAS CONVERGED. RESIDUAL TOT: 2.56287D-13
     16       1         0.00     0.26E-12
 Dimension of the reduced space:    16
 >>> TIME USED IN THIS MICRO ITERATION        0.00

    --------------------------------------
    converged in 16 iterations
    threshold:    0.10E-11


         Routine          Time (min)
         ---------------------------
         CC_TRDRV            0.00
         CCRED               0.00
         CCNEX               0.00
         ---------------------------
         Total time          0.00


 >>>> Total CPU  time used in CCEQ_SOLV:   0.03 seconds
 >>>> Total wall time used in CCEQ_SOLV:   0.03 seconds


 >>>>>>>>>>>>>>>>>>>>> <<<<<<<<<<<<<<<<<<<<<



 Analysis of CC Response/Cauchy vector:
 --------------------------------------


          CC_PRAM:Overall Contribution of the Different Components
          --------------------------------------------------------



          Single Excitation Contribution :              95.1322 %

          Double Excitation Contribution :               4.8678 %

          ||T1||/||T2||                  :               4.4208

          Norm of Total Amplitude Vector :               1.3290


 +=============================================================================+
 | symmetry|  orbital index  |   Excitation Numbers             |   Amplitude  |
 |  Index  |   a   b   i   j |      NAI      NBJ |     NAIBJ    |              |
 +=============================================================================+
 | 1   2   |   1       1     |        5          |              |    0.238045  |
 | 1   2   |   2       1     |        6          |              |   -0.375394  |
 | 1   2   |   3       1     |        7          |              |   -0.201218  |
 | 2   1   |   1       2     |        3          |              |   -0.346610  |
 | 4   3   |   1       1     |        9          |              |   -0.201218  |
 | 6   5   |   1       1     |       10          |              |   -1.107361  |
 +-----------------------------------------------------------------------------+
 | 6 5 1 1 |   1   1   1   2 |        1        6 |          359 |   -0.150207  |
 | 6 5 1 1 |   2   1   1   2 |        2        6 |          360 |   -0.043957  |
 | 6 5 1 1 |   1   1   2   2 |        4        6 |          362 |   -0.115872  |
 | 6 5 1 1 |   2   1   2   2 |        5        6 |          363 |   -0.040441  |
 | 5 5 2 1 |   5   1   1   1 |       11        1 |          299 |   -0.078958  |
 | 5 5 2 1 |   5   5   1   1 |       11        5 |          355 |   -0.071615  |
 | 5 5 2 1 |   2   1   1   2 |        8        6 |          366 |    0.040875  |
 | 2 5 5 1 |   2   1   1   1 |       14        1 |          302 |   -0.055944  |
 | 6 1 1 5 |   2   3   1   1 |        2       19 |          542 |   -0.041542  |
 +=============================================================================+


          Norm of Printed Amplitude Vector :             1.2971

          Printed all single excitations greater than 0.162560

          Printed all double excitations greater than 0.036772
            Norm of singles part:        0.1296221329E+01
            Norm of doubles part:        0.2932108030E+00

 Solving   1 response equations:
 R1 :YDIPLEN   0.000000  3
 RPA: call cceq_str

 Finding gradient for 
 Frequency  0.000000 and label: YDIPLEN  and symmetry:   3
     R1  start vector nr.  2 of symmetry  3 generated from gradient
 RPA: exit cceq_str



 >>>>> COUPLED CLUSTER RESPONSE SOLVER <<<<<

    Iter  #Vectors  time (min)   residual
    --------------------------------------

 Finding gradient for 
 Frequency  0.000000 and label: YDIPLEN  and symmetry:   3

 Finding gradient for 
 Frequency  0.000000 and label: YDIPLEN  and symmetry:   3
  
 ROOT:  1 RESIDUAL TOT: 4.32646D-01
      1       1         0.00     0.43E+00
 Dimension of the reduced space:     2
 >>> TIME USED IN THIS MICRO ITERATION        0.00


 Finding gradient for 
 Frequency  0.000000 and label: YDIPLEN  and symmetry:   3

 Finding gradient for 
 Frequency  0.000000 and label: YDIPLEN  and symmetry:   3
  
 ROOT:  1 RESIDUAL TOT: 1.19303D-01
      2       1         0.00     0.12E+00
 Dimension of the reduced space:     3
 >>> TIME USED IN THIS MICRO ITERATION        0.00


 Finding gradient for 
 Frequency  0.000000 and label: YDIPLEN  and symmetry:   3

 Finding gradient for 
 Frequency  0.000000 and label: YDIPLEN  and symmetry:   3
  
 ROOT:  1 RESIDUAL TOT: 3.29794D-02
      3       1         0.00     0.33E-01
 Dimension of the reduced space:     4
 >>> TIME USED IN THIS MICRO ITERATION        0.00


 Finding gradient for 
 Frequency  0.000000 and label: YDIPLEN  and symmetry:   3

 Finding gradient for 
 Frequency  0.000000 and label: YDIPLEN  and symmetry:   3
  
 ROOT:  1 RESIDUAL TOT: 7.02616D-03
      4       1         0.00     0.70E-02
 Dimension of the reduced space:     5
 >>> TIME USED IN THIS MICRO ITERATION        0.00


 Finding gradient for 
 Frequency  0.000000 and label: YDIPLEN  and symmetry:   3

 Finding gradient for 
 Frequency  0.000000 and label: YDIPLEN  and symmetry:   3
  
 ROOT:  1 RESIDUAL TOT: 6.99362D-04
      5       1         0.00     0.70E-03
 Dimension of the reduced space:     6
 >>> TIME USED IN THIS MICRO ITERATION        0.00


 Finding gradient for 
 Frequency  0.000000 and label: YDIPLEN  and symmetry:   3

 Finding gradient for 
 Frequency  0.000000 and label: YDIPLEN  and symmetry:   3
  
 ROOT:  1 RESIDUAL TOT: 1.43873D-04
      6       1         0.00     0.14E-03
 Dimension of the reduced space:     7
 >>> TIME USED IN THIS MICRO ITERATION        0.00


 Finding gradient for 
 Frequency  0.000000 and label: YDIPLEN  and symmetry:   3

 Finding gradient for 
 Frequency  0.000000 and label: YDIPLEN  and symmetry:   3
  
 ROOT:  1 RESIDUAL TOT: 2.72984D-05
      7       1         0.00     0.27E-04
 Dimension of the reduced space:     8
 >>> TIME USED IN THIS MICRO ITERATION        0.00


 Finding gradient for 
 Frequency  0.000000 and label: YDIPLEN  and symmetry:   3

 Finding gradient for 
 Frequency  0.000000 and label: YDIPLEN  and symmetry:   3
  
 ROOT:  1 RESIDUAL TOT: 4.92788D-06
      8       1         0.00     0.49E-05
 Dimension of the reduced space:     9
 >>> TIME USED IN THIS MICRO ITERATION        0.00


 Finding gradient for 
 Frequency  0.000000 and label: YDIPLEN  and symmetry:   3

 Finding gradient for 
 Frequency  0.000000 and label: YDIPLEN  and symmetry:   3
  
 ROOT:  1 RESIDUAL TOT: 7.12872D-07
      9       1         0.00     0.71E-06
 Dimension of the reduced space:    10
 >>> TIME USED IN THIS MICRO ITERATION        0.00


 Finding gradient for 
 Frequency  0.000000 and label: YDIPLEN  and symmetry:   3

 Finding gradient for 
 Frequency  0.000000 and label: YDIPLEN  and symmetry:   3
  
 ROOT:  1 RESIDUAL TOT: 1.29235D-07
     10       1         0.00     0.13E-06
 Dimension of the reduced space:    11
 >>> TIME USED IN THIS MICRO ITERATION        0.00


 Finding gradient for 
 Frequency  0.000000 and label: YDIPLEN  and symmetry:   3

 Finding gradient for 
 Frequency  0.000000 and label: YDIPLEN  and symmetry:   3
  
 ROOT:  1 RESIDUAL TOT: 1.00487D-08
     11       1         0.00     0.10E-07
 Dimension of the reduced space:    12
 >>> TIME USED IN THIS MICRO ITERATION        0.00


 Finding gradient for 
 Frequency  0.000000 and label: YDIPLEN  and symmetry:   3

 Finding gradient for 
 Frequency  0.000000 and label: YDIPLEN  and symmetry:   3
  
 ROOT:  1 RESIDUAL TOT: 1.56043D-09
     12       1         0.00     0.16E-08
 Dimension of the reduced space:    13
 >>> TIME USED IN THIS MICRO ITERATION        0.00


 Finding gradient for 
 Frequency  0.000000 and label: YDIPLEN  and symmetry:   3

 Finding gradient for 
 Frequency  0.000000 and label: YDIPLEN  and symmetry:   3
  
 ROOT:  1 RESIDUAL TOT: 1.57742D-10
     13       1         0.00     0.16E-09
 Dimension of the reduced space:    14
 >>> TIME USED IN THIS MICRO ITERATION        0.00


 Finding gradient for 
 Frequency  0.000000 and label: YDIPLEN  and symmetry:   3

 Finding gradient for 
 Frequency  0.000000 and label: YDIPLEN  and symmetry:   3
  
 ROOT:  1 RESIDUAL TOT: 2.81173D-11
     14       1         0.00     0.28E-10
 Dimension of the reduced space:    15
 >>> TIME USED IN THIS MICRO ITERATION        0.00


 Finding gradient for 
 Frequency  0.000000 and label: YDIPLEN  and symmetry:   3

 Finding gradient for 
 Frequency  0.000000 and label: YDIPLEN  and symmetry:   3
  
 ROOT:  1 RESIDUAL TOT: 1.60087D-12
     15       1         0.00     0.16E-11
 Dimension of the reduced space:    16
 >>> TIME USED IN THIS MICRO ITERATION        0.00


 Finding gradient for 
 Frequency  0.000000 and label: YDIPLEN  and symmetry:   3

 Finding gradient for 
 Frequency  0.000000 and label: YDIPLEN  and symmetry:   3
  
 ROOT:  1 RESIDUAL TOT: 2.56321D-13
 ROOT:  1 HAS CONVERGED. RESIDUAL TOT: 2.56321D-13
     16       1         0.00     0.26E-12
 Dimension of the reduced space:    16
 >>> TIME USED IN THIS MICRO ITERATION        0.00

    --------------------------------------
    converged in 16 iterations
    threshold:    0.10E-11


         Routine          Time (min)
         ---------------------------
         CC_TRDRV            0.00
         CCRED               0.00
         CCNEX               0.00
         ---------------------------
         Total time          0.00


 >>>> Total CPU  time used in CCEQ_SOLV:   0.03 seconds
 >>>> Total wall time used in CCEQ_SOLV:   0.03 seconds


 >>>>>>>>>>>>>>>>>>>>> <<<<<<<<<<<<<<<<<<<<<



 Analysis of CC Response/Cauchy vector:
 --------------------------------------


          CC_PRAM:Overall Contribution of the Different Components
          --------------------------------------------------------



          Single Excitation Contribution :              95.1322 %

          Double Excitation Contribution :               4.8678 %

          ||T1||/||T2||                  :               4.4208

          Norm of Total Amplitude Vector :               1.3290


 +=============================================================================+
 | symmetry|  orbital index  |   Excitation Numbers             |   Amplitude  |
 |  Index  |   a   b   i   j |      NAI      NBJ |     NAIBJ    |              |
 +=============================================================================+
 | 1   3   |   1       1     |        6          |              |    0.238045  |
 | 1   3   |   2       1     |        7          |              |   -0.375394  |
 | 1   3   |   3       1     |        8          |              |    0.201218  |
 | 3   1   |   1       2     |        3          |              |   -0.346610  |
 | 4   2   |   1       1     |        5          |              |   -0.201218  |
 | 7   5   |   1       1     |       10          |              |   -1.107361  |
 +-----------------------------------------------------------------------------+
 | 7 5 1 1 |   1   1   1   2 |        1        6 |          359 |   -0.115872  |
 | 7 5 1 1 |   2   1   1   2 |        2        6 |          360 |   -0.040441  |
 | 7 5 1 1 |   1   1   2   2 |        4        6 |          362 |   -0.150207  |
 | 7 5 1 1 |   2   1   2   2 |        5        6 |          363 |   -0.043957  |
 | 5 5 3 1 |   4   1   1   1 |       11        1 |          299 |   -0.055944  |
 | 5 5 3 1 |   4   5   1   1 |       11        5 |          355 |   -0.071615  |
 | 5 5 3 1 |   1   1   1   2 |        8        6 |          366 |    0.040875  |
 | 3 5 5 1 |   2   1   1   1 |       14        1 |          302 |   -0.078958  |
 | 3 1 5 5 |   1   2   1   1 |       13       18 |          539 |   -0.041542  |
 +=============================================================================+


          Norm of Printed Amplitude Vector :             1.2971

          Printed all single excitations greater than 0.162560

          Printed all double excitations greater than 0.036772
            Norm of singles part:        0.1296221329E+01
            Norm of doubles part:        0.2932108030E+00

 Solving   1 response equations:
 R1 :ZDIPLEN  -0.000000  5
 RPA: call cceq_str

 Finding gradient for 
 Frequency -0.000000 and label: ZDIPLEN  and symmetry:   5
     R1  start vector nr.  3 of symmetry  5 generated from gradient
 RPA: exit cceq_str



 >>>>> COUPLED CLUSTER RESPONSE SOLVER <<<<<

    Iter  #Vectors  time (min)   residual
    --------------------------------------

 Finding gradient for 
 Frequency -0.000000 and label: ZDIPLEN  and symmetry:   5

 Finding gradient for 
 Frequency -0.000000 and label: ZDIPLEN  and symmetry:   5
  
 ROOT:  1 RESIDUAL TOT: 4.67630D-01
      1       1         0.00     0.47E+00
 Dimension of the reduced space:     2
 >>> TIME USED IN THIS MICRO ITERATION        0.00


 Finding gradient for 
 Frequency -0.000000 and label: ZDIPLEN  and symmetry:   5

 Finding gradient for 
 Frequency -0.000000 and label: ZDIPLEN  and symmetry:   5
  
 ROOT:  1 RESIDUAL TOT: 5.67429D-02
      2       1         0.00     0.57E-01
 Dimension of the reduced space:     3
 >>> TIME USED IN THIS MICRO ITERATION        0.00


 Finding gradient for 
 Frequency -0.000000 and label: ZDIPLEN  and symmetry:   5

 Finding gradient for 
 Frequency -0.000000 and label: ZDIPLEN  and symmetry:   5
  
 ROOT:  1 RESIDUAL TOT: 1.34628D-02
      3       1         0.00     0.13E-01
 Dimension of the reduced space:     4
 >>> TIME USED IN THIS MICRO ITERATION        0.00


 Finding gradient for 
 Frequency -0.000000 and label: ZDIPLEN  and symmetry:   5

 Finding gradient for 
 Frequency -0.000000 and label: ZDIPLEN  and symmetry:   5
  
 ROOT:  1 RESIDUAL TOT: 2.03344D-03
      4       1         0.00     0.20E-02
 Dimension of the reduced space:     5
 >>> TIME USED IN THIS MICRO ITERATION        0.00


 Finding gradient for 
 Frequency -0.000000 and label: ZDIPLEN  and symmetry:   5

 Finding gradient for 
 Frequency -0.000000 and label: ZDIPLEN  and symmetry:   5
  
 ROOT:  1 RESIDUAL TOT: 3.16371D-04
      5       1         0.00     0.32E-03
 Dimension of the reduced space:     6
 >>> TIME USED IN THIS MICRO ITERATION        0.00


 Finding gradient for 
 Frequency -0.000000 and label: ZDIPLEN  and symmetry:   5

 Finding gradient for 
 Frequency -0.000000 and label: ZDIPLEN  and symmetry:   5
  
 ROOT:  1 RESIDUAL TOT: 6.42081D-05
      6       1         0.00     0.64E-04
 Dimension of the reduced space:     7
 >>> TIME USED IN THIS MICRO ITERATION        0.00


 Finding gradient for 
 Frequency -0.000000 and label: ZDIPLEN  and symmetry:   5

 Finding gradient for 
 Frequency -0.000000 and label: ZDIPLEN  and symmetry:   5
  
 ROOT:  1 RESIDUAL TOT: 1.54829D-05
      7       1         0.00     0.15E-04
 Dimension of the reduced space:     8
 >>> TIME USED IN THIS MICRO ITERATION        0.00


 Finding gradient for 
 Frequency -0.000000 and label: ZDIPLEN  and symmetry:   5

 Finding gradient for 
 Frequency -0.000000 and label: ZDIPLEN  and symmetry:   5
  
 ROOT:  1 RESIDUAL TOT: 2.36628D-06
[...]
 Dimension of the reduced space:     8
 >>> TIME USED IN THIS MICRO ITERATION        0.00


 Finding gradient for 
 Frequencies -0.000000,  0.000000 and labels: ZDIPLEN ,XDIPLEN  and symmetries:   5  2  6

 Finding gradient for 
 Frequencies -0.000000,  0.000000 and labels: ZDIPLEN ,XDIPLEN  and symmetries:   5  2  6
  
 ROOT:  1 RESIDUAL TOT: 7.41478D-06
      8       1         0.00     0.74E-05
 Dimension of the reduced space:     9
 >>> TIME USED IN THIS MICRO ITERATION        0.00


 Finding gradient for 
 Frequencies -0.000000,  0.000000 and labels: ZDIPLEN ,XDIPLEN  and symmetries:   5  2  6

 Finding gradient for 
 Frequencies -0.000000,  0.000000 and labels: ZDIPLEN ,XDIPLEN  and symmetries:   5  2  6
  
 ROOT:  1 RESIDUAL TOT: 1.54167D-06
      9       1         0.00     0.15E-05
 Dimension of the reduced space:    10
 >>> TIME USED IN THIS MICRO ITERATION        0.00


 Finding gradient for 
 Frequencies -0.000000,  0.000000 and labels: ZDIPLEN ,XDIPLEN  and symmetries:   5  2  6

 Finding gradient for 
 Frequencies -0.000000,  0.000000 and labels: ZDIPLEN ,XDIPLEN  and symmetries:   5  2  6
  
 ROOT:  1 RESIDUAL TOT: 2.21114D-07
     10       1         0.00     0.22E-06
 Dimension of the reduced space:    11
 >>> TIME USED IN THIS MICRO ITERATION        0.00


 Finding gradient for 
 Frequencies -0.000000,  0.000000 and labels: ZDIPLEN ,XDIPLEN  and symmetries:   5  2  6

 Finding gradient for 
 Frequencies -0.000000,  0.000000 and labels: ZDIPLEN ,XDIPLEN  and symmetries:   5  2  6
  
 ROOT:  1 RESIDUAL TOT: 2.30622D-08
     11       1         0.00     0.23E-07
 Dimension of the reduced space:    12
 >>> TIME USED IN THIS MICRO ITERATION        0.00


 Finding gradient for 
 Frequencies -0.000000,  0.000000 and labels: ZDIPLEN ,XDIPLEN  and symmetries:   5  2  6

 Finding gradient for 
 Frequencies -0.000000,  0.000000 and labels: ZDIPLEN ,XDIPLEN  and symmetries:   5  2  6
  
 ROOT:  1 RESIDUAL TOT: 3.35650D-09
     12       1         0.00     0.34E-08
 Dimension of the reduced space:    13
 >>> TIME USED IN THIS MICRO ITERATION        0.00


 Finding gradient for 
 Frequencies -0.000000,  0.000000 and labels: ZDIPLEN ,XDIPLEN  and symmetries:   5  2  6

 Finding gradient for 
 Frequencies -0.000000,  0.000000 and labels: ZDIPLEN ,XDIPLEN  and symmetries:   5  2  6
  
 ROOT:  1 RESIDUAL TOT: 3.79575D-10
     13       1         0.00     0.38E-09
 Dimension of the reduced space:    14
 >>> TIME USED IN THIS MICRO ITERATION        0.00


 Finding gradient for 
 Frequencies -0.000000,  0.000000 and labels: ZDIPLEN ,XDIPLEN  and symmetries:   5  2  6

 Finding gradient for 
 Frequencies -0.000000,  0.000000 and labels: ZDIPLEN ,XDIPLEN  and symmetries:   5  2  6
  
 ROOT:  1 RESIDUAL TOT: 6.56693D-11
     14       1         0.00     0.66E-10
 Dimension of the reduced space:    15
 >>> TIME USED IN THIS MICRO ITERATION        0.00


 Finding gradient for 
 Frequencies -0.000000,  0.000000 and labels: ZDIPLEN ,XDIPLEN  and symmetries:   5  2  6

 Finding gradient for 
 Frequencies -0.000000,  0.000000 and labels: ZDIPLEN ,XDIPLEN  and symmetries:   5  2  6
  
 ROOT:  1 RESIDUAL TOT: 4.58374D-12
     15       1         0.00     0.46E-11
 Dimension of the reduced space:    16
 >>> TIME USED IN THIS MICRO ITERATION        0.00


 Finding gradient for 
 Frequencies -0.000000,  0.000000 and labels: ZDIPLEN ,XDIPLEN  and symmetries:   5  2  6

 Finding gradient for 
 Frequencies -0.000000,  0.000000 and labels: ZDIPLEN ,XDIPLEN  and symmetries:   5  2  6
  
 ROOT:  1 RESIDUAL TOT: 1.12983D-12
     16       1         0.00     0.11E-11
 Dimension of the reduced space:    17
 >>> TIME USED IN THIS MICRO ITERATION        0.00


 Finding gradient for 
 Frequencies -0.000000,  0.000000 and labels: ZDIPLEN ,XDIPLEN  and symmetries:   5  2  6

 Finding gradient for 
 Frequencies -0.000000,  0.000000 and labels: ZDIPLEN ,XDIPLEN  and symmetries:   5  2  6
  
 ROOT:  1 RESIDUAL TOT: 8.34814D-14
 ROOT:  1 HAS CONVERGED. RESIDUAL TOT: 8.34814D-14
     17       1         0.00     0.83E-13
 Dimension of the reduced space:    17
 >>> TIME USED IN THIS MICRO ITERATION        0.00

    --------------------------------------
    converged in 17 iterations
    threshold:    0.10E-11


         Routine          Time (min)
         ---------------------------
         CC_TRDRV            0.00
         CCRED               0.00
         CCNEX               0.00
         ---------------------------
         Total time          0.00


 >>>> Total CPU  time used in CCEQ_SOLV:   0.03 seconds
 >>>> Total wall time used in CCEQ_SOLV:   0.03 seconds


 >>>>>>>>>>>>>>>>>>>>> <<<<<<<<<<<<<<<<<<<<<



 Analysis of CC Response/Cauchy vector:
 --------------------------------------


          CC_PRAM:Overall Contribution of the Different Components
          --------------------------------------------------------



          Single Excitation Contribution :              94.5027 %

          Double Excitation Contribution :               5.4973 %

          ||T1||/||T2||                  :               4.1462

          Norm of Total Amplitude Vector :               2.9302


 +=============================================================================+
 | symmetry|  orbital index  |   Excitation Numbers             |   Amplitude  |
 |  Index  |   a   b   i   j |      NAI      NBJ |     NAIBJ    |              |
 +=============================================================================+
 | 2   5   |   1       1     |       13          |              |    0.396813  |
 | 2   5   |   2       1     |       14          |              |    0.225717  |
 | 5   2   |   1       1     |        7          |              |   -0.205358  |
 | 5   2   |   2       1     |        8          |              |   -0.551270  |
 | 5   2   |   3       1     |        9          |              |    0.343030  |
 | 5   2   |   4       1     |       10          |              |    0.254923  |
 | 6   1   |   1       1     |        1          |              |   -0.634630  |
 | 6   1   |   1       2     |        4          |              |   -2.528257  |
 | 6   1   |   2       2     |        5          |              |   -0.712384  |
 | 8   3   |   1       1     |       12          |              |    0.254923  |
 +-----------------------------------------------------------------------------+
 | 5 2 1 1 |   5   2   2   2 |       10        4 |           70 |   -0.112404  |
 | 7 2 3 1 |   2   2   1   2 |       15        4 |           75 |   -0.054750  |
 | 7 2 3 1 |   3   2   1   2 |       16        4 |           76 |    0.055875  |
 | 5 1 1 2 |   2   1   1   1 |        2        5 |           82 |   -0.192312  |
 | 5 1 1 2 |   3   1   1   1 |        3        5 |           83 |   -0.047952  |
 | 5 1 1 2 |   1   2   2   1 |        6        6 |          106 |    0.075436  |
 | 5 1 1 2 |   2   3   1   1 |        2        7 |          122 |    0.049096  |
 | 5 1 1 2 |   3   3   1   1 |        3        7 |          123 |   -0.041487  |
 | 5 1 1 2 |   4   3   1   1 |        4        7 |          124 |    0.120684  |
 | 5 1 1 2 |   5   3   1   1 |        5        7 |          125 |   -0.041905  |
 | 5 1 1 2 |   5   3   2   1 |       10        7 |          130 |   -0.324208  |
 | 5 1 1 2 |   2   4   1   1 |        2        8 |          142 |   -0.060253  |
 | 5 1 1 2 |   3   4   1   1 |        3        8 |          143 |   -0.077145  |
 | 7 1 3 2 |   2   3   1   1 |       15        7 |          135 |   -0.053060  |
 | 7 1 3 2 |   3   3   1   1 |       16        7 |          136 |    0.039496  |
 | 1 1 5 2 |   2   4   1   1 |       18        8 |          158 |    0.042223  |
 | 1 1 5 2 |   3   4   1   1 |       19        8 |          159 |   -0.047994  |
 | 1 1 5 2 |   4   4   1   1 |       20        8 |          160 |    0.112476  |
 | 5 4 1 3 |   1   1   2   1 |        6        9 |          166 |   -0.232889  |
 | 6 4 2 3 |   1   1   1   1 |       11        9 |          171 |   -0.040437  |
 | 6 4 2 3 |   2   1   1   1 |       12        9 |          172 |    0.039907  |
 | 1 4 5 3 |   2   1   1   1 |       18        9 |          178 |   -0.052628  |
 | 1 4 5 3 |   3   1   1   1 |       19        9 |          179 |   -0.063173  |
 | 5 6 1 5 |   2   2   2   1 |        7       11 |          207 |    0.043257  |
 | 5 6 1 5 |   3   2   2   1 |        8       11 |          208 |   -0.046975  |
 | 7 6 3 5 |   1   2   1   1 |       14       11 |          214 |    0.082502  |
 | 6 1 1 1 |   1   1   1   2 |        1        5 |          297 |    0.054226  |
 | 6 1 1 1 |   2   1   2   2 |        5        5 |          301 |    0.078109  |
 | 6 1 1 1 |   3   2   1   2 |        3        6 |          313 |   -0.045343  |
 | 6 1 1 1 |   1   2   2   2 |        4        6 |          314 |   -0.039494  |
 | 5 1 2 1 |   1   1   1   2 |        7        5 |          303 |    0.062205  |
 | 5 1 2 1 |   2   1   1   2 |        8        5 |          304 |   -0.119581  |
 | 5 1 2 1 |   3   1   1   2 |        9        5 |          305 |   -0.133493  |
 | 5 1 2 1 |   5   1   1   2 |       11        5 |          307 |    0.055701  |
 | 5 1 2 1 |   1   2   1   2 |        7        6 |          317 |   -0.070758  |
 | 5 1 2 1 |   3   2   1   2 |        9        6 |          319 |   -0.059152  |
 | 5 1 2 1 |   5   2   1   2 |       11        6 |          321 |   -0.042526  |
 | 2 1 5 1 |   1   1   1   1 |       13        1 |          253 |   -0.058045  |
 | 2 1 5 1 |   2   1   1   1 |       14        1 |          254 |   -0.060005  |
 | 5 5 2 5 |   1   4   1   1 |        7       16 |          457 |   -0.046123  |
 | 3 4 5 1 |   2   1   1   2 |       14        2 |          506 |    0.055701  |
 | 7 3 2 1 |   2   1   1   2 |        4        3 |          598 |    0.075436  |
 | 6 1 3 3 |   2   3   1   1 |        7        8 |          646 |   -0.061609  |
 +=============================================================================+


          Norm of Printed Amplitude Vector :             2.9126

          Printed all single excitations greater than 0.162021

          Printed all double excitations greater than 0.039077
            Norm of singles part:        0.2848549256E+01
            Norm of doubles part:        0.6870288966E+00

 Solution of CC response equations completed.


 *******************************************************************
 *                                                                 *
 *<<<<<<<<<  OUTPUT FROM COUPLED CLUSTER CUBIC RESPONSE   >>>>>>>>>*
 *                                                                 *
 *<<<<<<<<     CALCULATION OF CC HYPERPOLARIZABILITIES    >>>>>>>>>*
 *                                                                 *
 *******************************************************************



   For the requested  10 cubic response functions 
         -   4 H^0 matrix transformations 
         -   5 G^0 matrix transformations 
         -   6 G^A matrix transformations 
         -   4 F^0 matrix transformations 
         -   7 F^A matrix transformations 
         -   7 F^0{O} matrix transformations 
         -  10 F^A{O} matrix transformations 
         -   7 ETA^A{O} vector calculations 
   will be performed.



>>> Time used for    4 H matrix transformations:           0.00 seconds.


 +==================================================+
 |        G MATRIX TRANSFORMATION SECTION           |
 |    (result used to calculate dot products)       |
 +--------------------------------------------------+
 | L vec. | R vec. | R vec. |  # prod. |            |
 | L0  No.| R1  No.| R1  No.| with R2  | time/secs  |
 +--------------------------------------------------+
 |     0  |     3  |     3  |      2  |       0.00  |
 |     0  |     3  |     1  |      1  |       0.00  |
 |     0  |     1  |     1  |      3  |       0.00  |
 |     0  |     1  |     2  |      1  |       0.00  |
 |     0  |     2  |     2  |      1  |       0.00  |
 +--------------------------------------------------+
 | total time for   5 G transforms.:      0.01 secs.|
 +==================================================+




 +==================================================+
 |    GENERALIZED G MATRIX TRANSFORMATION SECTION   |
 |    (result used to calculate dot products)       |
 +--------------------------------------------------+
 | L vec. | R vec. | R vec. |  # prod. |            |
 | L1  No.| R1  No.| R1  No.| with R1  | time/secs  |
 +--------------------------------------------------+
 |     3  |     3  |     3  |      1  |       0.00  |
 |     3  |     1  |     1  |      1  |       0.00  |
 |     1  |     3  |     1  |      1  |       0.00  |
 |     1  |     1  |     1  |      1  |       0.00  |
 |     1  |     2  |     2  |      1  |       0.00  |
 |     2  |     1  |     2  |      1  |       0.00  |
 +--------------------------------------------------+
 | total time for   6 G transforms.:      0.01 secs.|
 +==================================================+



>>> Time used for   11 G matrix transformations:           0.02 seconds.


 +==================================================+
 |        F MATRIX TRANSFORMATION SECTION           |
 |    (result used to calculate dot products)       |
 +--------------------------------------------------+
 | time for zero order intermediat.:      0.00 secs.|
 | time for  1 sets of left interm.:      0.00 secs.|
 | time for  4 sets of right inter.:      0.00 secs.|
 | time for  4 sets of 2. ord. int.:      0.00 secs.|
 | intermediates calculated in   1 batches          |
 +--------------------------------------------------+
 | L vector | R vector |  # products  |             |
 |  L0  No. |  R2  No. |   with R2    |  time/secs  |
 +--------------------------------------------------+
 |     0    |     3    |      2       |       0.00  |
 |     0    |     5    |      1       |       0.00  |
 |     0    |     1    |      2       |       0.00  |
 |     0    |     4    |      1       |       0.00  |
 +--------------------------------------------------+
 | total time for   4 F transforms.:      0.01 secs.|
 +==================================================+




 +==================================================+
 |        F MATRIX TRANSFORMATION SECTION           |
 |    (result used to calculate dot products)       |
 +--------------------------------------------------+
 | time for zero order intermediat.:      0.00 secs.|
 | time for  3 sets of left interm.:      0.00 secs.|
 | time for  3 sets of right inter.:      0.00 secs.|
 | time for  7 sets of 2. ord. int.:      0.00 secs.|
 | intermediates calculated in   1 batches          |
 +--------------------------------------------------+
 | L vector | R vector |  # products  |             |
 |  L1  No. |  R1  No. |   with R2    |  time/secs  |
 +--------------------------------------------------+
 |     3    |     3    |      2       |       0.00  |
 |     3    |     1    |      1       |       0.00  |
 |     1    |     3    |      1       |       0.00  |
 |     1    |     1    |      3       |       0.00  |
 |     1    |     2    |      1       |       0.00  |
 |     2    |     1    |      1       |       0.00  |
 |     2    |     2    |      1       |       0.00  |
 +--------------------------------------------------+
 | total time for   7 F transforms.:      0.01 secs.|
 +==================================================+



>>> Time used for   11 F matrix transformations:           0.02 seconds.

>>> Time used for   17 F{O} matrix transformations:        0.01 seconds.

>>> Time used for    7 ETA{O} vector calculations :        0.00 seconds.

>>> Total time for  10 cubic response functions:           0.05 seconds.


        +------------------------------------------------------------------+
        !           FINAL CC2 RESULTS FOR THE SECOND HYPERPOLARIZABILITIES !
        +------------------------------------------------------------------+


  A operator        B operator        C operator        D operator           gamma
--------------------------------------------------------------------------------------

 ZDIPLEN -0.0000   ZDIPLEN  0.0000   ZDIPLEN  0.0000   ZDIPLEN  0.0000     -33.048831    

 ZDIPLEN -0.0000   XDIPLEN  0.0000   XDIPLEN  0.0000   ZDIPLEN  0.0000      3.4537408    

 XDIPLEN -0.0000   XDIPLEN  0.0000   ZDIPLEN  0.0000   ZDIPLEN  0.0000      3.4537408    

 XDIPLEN -0.0000   ZDIPLEN  0.0000   XDIPLEN  0.0000   ZDIPLEN  0.0000      3.4537408    

 XDIPLEN -0.0000   ZDIPLEN  0.0000   ZDIPLEN  0.0000   XDIPLEN  0.0000      3.4537408    

 ZDIPLEN -0.0000   ZDIPLEN  0.0000   XDIPLEN  0.0000   XDIPLEN  0.0000      3.4537408    

 ZDIPLEN -0.0000   XDIPLEN  0.0000   ZDIPLEN  0.0000   XDIPLEN  0.0000      3.4537408    

 XDIPLEN -0.0000   XDIPLEN  0.0000   XDIPLEN  0.0000   XDIPLEN  0.0000      21.713204    

 XDIPLEN -0.0000   YDIPLEN  0.0000   YDIPLEN  0.0000   XDIPLEN  0.0000      7.2377345    

 XDIPLEN -0.0000   XDIPLEN  0.0000   YDIPLEN  0.0000   YDIPLEN  0.0000      7.2377345    
--------------------------------------------------------------------------------------





 average      frequencies                                        value
---------------------------------------------------------------------------
 gamma_||    -0.0000      0.0000      0.0000      0.0000     7.7336017    

 gamma_|_    -0.0000      0.0000      0.0000      0.0000     2.5778672    

 gamma_ms    -0.0000      0.0000      0.0000      0.0000         0.0000000
---------------------------------------------------------------------------
  

 *******************************************************************************
 *******************************************************************************
 *                                                                             *
 *                                                                             *
 *                   SUMMARY OF COUPLED CLUSTER CALCULATION                    *
 *                                                                             *
 *                                                                             *
 *******************************************************************************
 *******************************************************************************

                                                                                
                                                                                
            Total SCF   energy:                  -108.9541307667                
            Total MP2   energy:                  -109.2604217706                
            Total CC2   energy:                  -109.2654618636                
  

 *******************************************************************************
 *******************************************************************************
 *                                                                             *
 *                                                                             *
 *                      END OF COUPLED CLUSTER CALCULATION                     *
 *                                                                             *
 *                                                                             *
 *******************************************************************************
 *******************************************************************************


 >>>> CPU and wall time for CC :       0.522       0.761

 
     Date and time (Linux)  : Sun Sep  8 20:42:30 2013
     Host name              : lpqlx131.ups-tlse.fr                    


                      .-------------------------------------.
                      | End of Coupled Cluster Section (CC) |
                      `-------------------------------------'

 >>>> Total CPU  time used in DALTON:   0.56 seconds
 >>>> Total wall time used in DALTON:   0.80 seconds

 
     Date and time (Linux)  : Sun Sep  8 20:42:30 2013
     Host name              : lpqlx131.ups-tlse.fr                    
