

     ************************************************************************
     *************** Dalton - An Electronic Structure Program ***************
     ************************************************************************

    This is output from DALTON release Dalton2017.alpha (2016)
         ( Web site: http://daltonprogram.org )

   ----------------------------------------------------------------------------

    NOTE:
     
    Dalton is an experimental code for the evaluation of molecular
    properties using (MC)SCF, DFT, CI, and CC wave functions.
    The authors accept no responsibility for the performance of
    the code or for the correctness of the results.
     
    The code (in whole or part) is provided under a licence and
    is not to be reproduced for further distribution without
    the written permission of the authors or their representatives.
     
    See the home page "http://daltonprogram.org" for further information.
     
    If results obtained with this code are published,
    the appropriate citations would be both of:
     
       K. Aidas, C. Angeli, K. L. Bak, V. Bakken, R. Bast,
       L. Boman, O. Christiansen, R. Cimiraglia, S. Coriani,
       P. Dahle, E. K. Dalskov, U. Ekstroem,
       T. Enevoldsen, J. J. Eriksen, P. Ettenhuber, B. Fernandez,
       L. Ferrighi, H. Fliegl, L. Frediani, K. Hald, A. Halkier,
       C. Haettig, H. Heiberg, T. Helgaker, A. C. Hennum,
       H. Hettema, E. Hjertenaes, S. Hoest, I.-M. Hoeyvik,
       M. F. Iozzi, B. Jansik, H. J. Aa. Jensen, D. Jonsson,
       P. Joergensen, J. Kauczor, S. Kirpekar,
       T. Kjaergaard, W. Klopper, S. Knecht, R. Kobayashi, H. Koch,
       J. Kongsted, A. Krapp, K. Kristensen, A. Ligabue,
       O. B. Lutnaes, J. I. Melo, K. V. Mikkelsen, R. H. Myhre,
       C. Neiss, C. B. Nielsen, P. Norman, J. Olsen,
       J. M. H. Olsen, A. Osted, M. J. Packer, F. Pawlowski,
       T. B. Pedersen, P. F. Provasi, S. Reine, Z. Rinkevicius,
       T. A. Ruden, K. Ruud, V. Rybkin, P. Salek, C. C. M. Samson,
       A. Sanchez de Meras, T. Saue, S. P. A. Sauer,
       B. Schimmelpfennig, K. Sneskov, A. H. Steindal,
       K. O. Sylvester-Hvid, P. R. Taylor, A. M. Teale,
       E. I. Tellgren, D. P. Tew, A. J. Thorvaldsen, L. Thoegersen,
       O. Vahtras, M. A. Watson, D. J. D. Wilson, M. Ziolkowski
       and H. Agren,
       "The Dalton quantum chemistry program system",
       WIREs Comput. Mol. Sci. 2014, 4:269–284 (doi: 10.1002/wcms.1172)
     
    and
     
       Dalton, a Molecular Electronic Structure Program,
       Release Dalton2017.alpha (2016), see http://daltonprogram.org
   ----------------------------------------------------------------------------

    Authors in alphabetical order (major contribution(s) in parenthesis):

  Kestutis Aidas,           Vilnius University,           Lithuania   (QM/MM)
  Celestino Angeli,         University of Ferrara,        Italy       (NEVPT2)
  Keld L. Bak,              UNI-C,                        Denmark     (AOSOPPA, non-adiabatic coupling, magnetic properties)
  Vebjoern Bakken,          University of Oslo,           Norway      (DALTON; geometry optimizer, symmetry detection)
  Radovan Bast,             UiT The Arctic U. of Norway,  Norway      (DALTON installation and execution frameworks)
  Pablo Baudin,             University of Valencia,       Spain       (Cholesky excitation energies)
  Linus Boman,              NTNU,                         Norway      (Cholesky decomposition and subsystems)
  Ove Christiansen,         Aarhus University,            Denmark     (CC module)
  Renzo Cimiraglia,         University of Ferrara,        Italy       (NEVPT2)
  Sonia Coriani,            University of Trieste,        Italy       (CC module, MCD in RESPONS)
  Janusz Cukras,            University of Trieste,        Italy       (MChD in RESPONS)
  Paal Dahle,               University of Oslo,           Norway      (Parallelization)
  Erik K. Dalskov,          UNI-C,                        Denmark     (SOPPA)
  Thomas Enevoldsen,        Univ. of Southern Denmark,    Denmark     (SOPPA)
  Janus J. Eriksen,         Aarhus University,            Denmark     (Polarizable embedding model, TDA)
  Rasmus Faber,             University of Copenhagen,     Denmark     (Vib.avg. NMR with SOPPA, parallel AO-SOPPA)
  Berta Fernandez,          U. of Santiago de Compostela, Spain       (doublet spin, ESR in RESPONS)
  Lara Ferrighi,            Aarhus University,            Denmark     (PCM Cubic response)
  Heike Fliegl,             University of Oslo,           Norway      (CCSD(R12))
  Luca Frediani,            UiT The Arctic U. of Norway,  Norway      (PCM)
  Bin Gao,                  UiT The Arctic U. of Norway,  Norway      (Gen1Int library)
  Christof Haettig,         Ruhr-University Bochum,       Germany     (CC module)
  Kasper Hald,              Aarhus University,            Denmark     (CC module)
  Asger Halkier,            Aarhus University,            Denmark     (CC module)
  Frederik Beyer Hansen,    University of Copenhagen,     Denmark     (Parallel AO-SOPPA)
  Erik D. Hedegaard,        Univ. of Southern Denmark,    Denmark     (Polarizable embedding model, QM/MM)
  Hanne Heiberg,            University of Oslo,           Norway      (geometry analysis, selected one-electron integrals)
  Trygve Helgaker,          University of Oslo,           Norway      (DALTON; ABACUS, ERI, DFT modules, London, and much more)
  Alf Christian Hennum,     University of Oslo,           Norway      (Parity violation)
  Hinne Hettema,            University of Auckland,       New Zealand (quadratic response in RESPONS; SIRIUS supersymmetry)
  Eirik Hjertenaes,         NTNU,                         Norway      (Cholesky decomposition)
  Pi A. B. Haase,           University of Copenhagen,     Denmark     (Triplet AO-SOPPA)
  Maria Francesca Iozzi,    University of Oslo,           Norway      (RPA)
  Brano Jansik              Technical Univ. of Ostrava    Czech Rep.  (DFT cubic response)
  Hans Joergen Aa. Jensen,  Univ. of Southern Denmark,    Denmark     (DALTON; SIRIUS, RESPONS, ABACUS modules, London, and much more)
  Dan Jonsson,              UiT The Arctic U. of Norway,  Norway      (cubic response in RESPONS module)
  Poul Joergensen,          Aarhus University,            Denmark     (RESPONS, ABACUS, and CC modules)
  Maciej Kaminski,          University of Warsaw,         Poland      (CPPh in RESPONS)
  Joanna Kauczor,           Linkoeping University,        Sweden      (Complex polarization propagator (CPP) module)
  Sheela Kirpekar,          Univ. of Southern Denmark,    Denmark     (Mass-velocity & Darwin integrals)
  Wim Klopper,              KIT Karlsruhe,                Germany     (R12 code in CC, SIRIUS, and ABACUS modules)
  Stefan Knecht,            ETH Zurich,                   Switzerland (Parallel CI and MCSCF)
  Rika Kobayashi,           Australian National Univ.,    Australia   (DIIS in CC, London in MCSCF)
  Henrik Koch,              NTNU,                         Norway      (CC module, Cholesky decomposition)
  Jacob Kongsted,           Univ. of Southern Denmark,    Denmark     (Polarizable embedding model, QM/MM)
  Andrea Ligabue,           University of Modena,         Italy       (CTOCD, AOSOPPA)
  Nanna H. List             Univ. of Southern Denmark,    Denmark     (Polarizable embedding model)
  Ola B. Lutnaes,           University of Oslo,           Norway      (DFT Hessian)
  Juan I. Melo,             University of Buenos Aires,   Argentina   (LRESC, Relativistic Effects on NMR Shieldings)
  Kurt V. Mikkelsen,        University of Copenhagen,     Denmark     (MC-SCRF and QM/MM)
  Rolf H. Myhre,            NTNU,                         Norway      (Cholesky, subsystems and ECC2)
  Christian Neiss,          Univ. Erlangen-Nuernberg,     Germany     (CCSD(R12))
  Christian B. Nielsen,     University of Copenhagen,     Denmark     (QM/MM)
  Patrick Norman,           Linkoeping University,        Sweden      (Cubic response and complex frequency response in RESPONS)
  Jeppe Olsen,              Aarhus University,            Denmark     (SIRIUS CI/density modules)
  Jogvan Magnus H. Olsen,   Univ. of Southern Denmark,    Denmark     (Polarizable embedding model, QM/MM)
  Anders Osted,             Copenhagen University,        Denmark     (QM/MM)
  Martin J. Packer,         University of Sheffield,      UK          (SOPPA)
  Filip Pawlowski,          Kazimierz Wielki University,  Poland      (CC3)
  Morten N. Pedersen,       Univ. of Southern Denmark,    Denmark     (Polarizable embedding model)
  Thomas B. Pedersen,       University of Oslo,           Norway      (Cholesky decomposition)
  Patricio F. Provasi,      University of Northeastern,   Argentina   (Analysis of coupling constants in localized orbitals)
  Zilvinas Rinkevicius,     KTH Stockholm,                Sweden      (open-shell DFT, ESR)
  Elias Rudberg,            KTH Stockholm,                Sweden      (DFT grid and basis info)
  Torgeir A. Ruden,         University of Oslo,           Norway      (Numerical derivatives in ABACUS)
  Kenneth Ruud,             UiT The Arctic U. of Norway,  Norway      (DALTON; ABACUS magnetic properties and much more)
  Pawel Salek,              KTH Stockholm,                Sweden      (DALTON; DFT code)
  Claire C. M. Samson       University of Karlsruhe       Germany     (Boys localization, r12 integrals in ERI)
  Alfredo Sanchez de Meras, University of Valencia,       Spain       (CC module, Cholesky decomposition)
  Trond Saue,               Paul Sabatier University,     France      (direct Fock matrix construction)
  Stephan P. A. Sauer,      University of Copenhagen,     Denmark     (SOPPA(CCSD), SOPPA prop., AOSOPPA, vibrational g-factors)
  Bernd Schimmelpfennig,    Forschungszentrum Karlsruhe,  Germany     (AMFI module)
  Kristian Sneskov,         Aarhus University,            Denmark     (Polarizable embedding model, QM/MM)
  Arnfinn H. Steindal,      UiT The Arctic U. of Norway,  Norway      (parallel QM/MM, Polarizable embedding model)
  Casper Steinmann,         Univ. of Southern Denmark,    Denmark     (QFIT, Polarizable embedding model)
  K. O. Sylvester-Hvid,     University of Copenhagen,     Denmark     (MC-SCRF)
  Peter R. Taylor,          VLSCI/Univ. of Melbourne,     Australia   (Symmetry handling ABACUS, integral transformation)
  Andrew M. Teale,          University of Nottingham,     England     (DFT-AC, DFT-D)
  David P. Tew,             University of Bristol,        England     (CCSD(R12))
  Olav Vahtras,             KTH Stockholm,                Sweden      (triplet response, spin-orbit, ESR, TDDFT, open-shell DFT)
  David J. Wilson,          La Trobe University,          Australia   (DFT Hessian and DFT magnetizabilities)
  Hans Agren,               KTH Stockholm,                Sweden      (SIRIUS module, RESPONS, MC-SCRF solvation model)
 --------------------------------------------------------------------------------

     Date and time (Linux)  : Tue Dec  6 15:23:40 2016
     Host name              : sunray                                  

 * Work memory size             :    64000000 =  488.28 megabytes.

 * Directories for basis set searches:
   1) /home/zth702/source/dalton/build/test/prop_exci_aorpad
   2) /home/zth702/source/dalton/build/basis


Compilation information
-----------------------

 Who compiled             | zth702
 Host                     | sunray
 System                   | Linux-3.16.0-4-amd64
 CMake generator          | Unix Makefiles
 Processor                | x86_64
 64-bit integers          | OFF
 MPI                      | OFF
 Fortran compiler         | /usr/bin/gfortran
 Fortran compiler version | GNU Fortran (Debian 4.9.2-10) 4.9.2
 C compiler               | /usr/bin/gcc
 C compiler version       | gcc (Debian 4.9.2-10) 4.9.2
 C++ compiler             | /usr/bin/g++
 C++ compiler version     | g++ (Debian 4.9.2-10) 4.9.2
 BLAS                     | /usr/lib/atlas-base/libf77blas.so;/usr/lib/atlas-b
                          | ase/libcblas.so;/usr/lib/atlas-base/libatlas.so
 LAPACK                   | /usr/lib/atlas-base/libatlas.so;/usr/lib/atlas-bas
                          | e/atlas/liblapack.so
 Static linking           | OFF
 Last Git revision        | b02af27575a4b70d65ece557cdb82d3284d7bdf6
 Git branch               | aosoppa_devel
 Configuration time       | 2016-12-06 15:22:50.044960


   Content of the .dal input file
 ----------------------------------

**DALTON INPUT
.RUN PROPERTIES
**WAVE FUNCTIONS
.HF
.CC
*CC INPUT
.MP2
.AO-SOPPA
**PROPERTIES
.SOPPA
.EXCITA
.PRINT
 2
*SOPPA
.AORPA
.RPA(D)
*EXCITA
!.DIPSTR
!.ROTVEL
.NEXCITA
    5    5    5    5    0    0    0    0
**END OF DALTON INPUT


   Content of the .mol file
 ----------------------------

BASIS
STO-2G
Calculation of excitation energies through ABACUS

Atomtypes=2 Multiplicity=1 Charge=0 Generators=2  X  Y
Charge=8.0 Atoms=1
O   0.00000             0.00000              0.1241444240
Charge=1.0 Atoms=1
H   0.00000             1.43153              -0.985265576
FINISH


       *******************************************************************
       *********** Output from DALTON general input processing ***********
       *******************************************************************

 --------------------------------------------------------------------------------
   Overall default print level:    0
   Print level for DALTON.STAT:    1

    HERMIT 1- and 2-electron integral sections will be executed
    "Old" integral transformation used (limited to max 255 basis functions)
    Wave function sections will be executed (SIRIUS module)
    Static molecular property section will be executed (ABACUS module)
 --------------------------------------------------------------------------------


   ****************************************************************************
   *************** Output of molecule and basis set information ***************
   ****************************************************************************


    The two title cards from your ".mol" input:
    ------------------------------------------------------------------------
 1: Calculation of excitation energies through ABACUS                       
 2:                                                                         
    ------------------------------------------------------------------------

  Atomic type no.    1
  --------------------
  Nuclear charge:   8.00000
  Number of symmetry independent centers:    1
  Number of basis sets to read;    2
  Basis set file used for this atomic type with Z =   8 :
     "/home/zth702/source/dalton/build/basis/STO-2G"

  Atomic type no.    2
  --------------------
  Nuclear charge:   1.00000
  Number of symmetry independent centers:    1
  Number of basis sets to read;    2
  Basis set file used for this atomic type with Z =   1 :
     "/home/zth702/source/dalton/build/basis/STO-2G"


                         SYMGRP: Point group information
                         -------------------------------

@    Point group: C2v

@  * The irrep name for each symmetry:    1: A1     2: B1     3: B2     4: A2 

   * The point group was generated by:

      Reflection in the yz-plane
      Reflection in the xz-plane

   * Group multiplication table

        |  E   C2z  Oxz  Oyz
   -----+--------------------
     E  |  E   C2z  Oxz  Oyz
    C2z | C2z   E   Oyz  Oxz
    Oxz | Oxz  Oyz   E   C2z
    Oyz | Oyz  Oxz  C2z   E 

   * Character table

        |  E   C2z  Oxz  Oyz
   -----+--------------------
    A1  |   1    1    1    1
    B1  |   1   -1    1   -1
    B2  |   1   -1   -1    1
    A2  |   1    1   -1   -1

   * Direct product table

        | A1   B1   B2   A2 
   -----+--------------------
    A1  | A1   B1   B2   A2 
    B1  | B1   A1   A2   B2 
    B2  | B2   A2   A1   B1 
    A2  | A2   B2   B1   A1 


                                 Isotopic Masses
                                 ---------------

                           O          15.994915
                           H   _1      1.007825
                           H   _2      1.007825

                       Total mass:    18.010565 amu
                       Natural abundance:  99.730 %

 Center-of-mass coordinates (a.u.):    0.000000    0.000000   -0.000015


  Atoms and basis sets
  --------------------

  Number of atom types :    2
  Total number of atoms:    3

  Basis set used is "STO-2G" from the basis set library.

  label    atoms   charge   prim   cont     basis
  ----------------------------------------------------------------------
  O           1    8.0000    10     5      [4s2p|2s1p]                                        
  H           2    1.0000     2     1      [2s|1s]                                            
  ----------------------------------------------------------------------
  total:      3   10.0000    14     7
  ----------------------------------------------------------------------

  Threshold for neglecting AO integrals:  1.00D-12


  Cartesian Coordinates (a.u.)
  ----------------------------

  Total number of coordinates:    9
  O       :     1  x   0.0000000000    2  y   0.0000000000    3  z   0.1241444240
  H   / 1 :     4  x   0.0000000000    5  y   1.4315300000    6  z  -0.9852655760
  H   / 2 :     7  x   0.0000000000    8  y  -1.4315300000    9  z  -0.9852655760


  Symmetry Coordinates
  --------------------

  Number of coordinates in each symmetry:     3    2    3    1

  Symmetry  A1  ( 1)

    1   O     z    3
    2   H     y    [  5  -    8 ]/2
    3   H     z    [  6  +    9 ]/2

  Symmetry  B1  ( 2)

    4   O     x    1
    5   H     x    [  4  +    7 ]/2

  Symmetry  B2  ( 3)

    6   O     y    2
    7   H     y    [  5  +    8 ]/2
    8   H     z    [  6  -    9 ]/2

  Symmetry  A2  ( 4)

    9   H     x    [  4  -    7 ]/2


   Interatomic separations (in Angstrom):
   --------------------------------------

            O           H   _1      H   _2
            ------      ------      ------
 O     :    0.000000
 H   _1:    0.958391    0.000000
 H   _2:    0.958391    1.515066    0.000000


  Max    interatomic separation is    1.5151 Angstrom (    2.8631 Bohr)
  between atoms    3 and    2, "H   _2" and "H   _1".

  Min HX interatomic separation is    0.9584 Angstrom (    1.8111 Bohr)


  Bond distances (Angstrom):
  --------------------------

                  atom 1     atom 2       distance
                  ------     ------       --------
  bond distance:  H   _1     O            0.958391
  bond distance:  H   _2     O            0.958391


  Bond angles (degrees):
  ----------------------

                  atom 1     atom 2     atom 3         angle
                  ------     ------     ------         -----
  bond angle:     H   _1     O          H   _2       104.450




 Principal moments of inertia (u*A**2) and principal axes
 --------------------------------------------------------

   IA       0.616959          0.000000    1.000000    0.000000
   IB       1.156694          0.000000    0.000000    1.000000
   IC       1.773652          1.000000    0.000000    0.000000


 Rotational constants
 --------------------

@    The molecule is planar.

               A                   B                   C

         819145.5126         436916.9575         284936.9149 MHz
           27.323753           14.573981            9.504472 cm-1


@  Nuclear repulsion energy :    9.183706230245 Hartree


  Symmetry Orbitals
  -----------------

  Number of orbitals in each symmetry:           4    1    2    0


  Symmetry  A1 ( 1)

    1     O        1s         1
    2     O        1s         2
    3     O        2pz        5
    4     H        1s         6 +    7


  Symmetry  B1 ( 2)

    5     O        2px        3


  Symmetry  B2 ( 3)

    6     O        2py        4
    7     H        1s         6 -    7


  No orbitals in symmetry  A2 ( 4)

  Symmetries of electric field:  B1 (2)  B2 (3)  A1 (1)

  Symmetries of magnetic field:  B2 (3)  B1 (2)  A2 (4)


                     .---------------------------------------.
                     | Starting in Integral Section (HERMIT) |
                     `---------------------------------------'



 ***************************************************************************************
 ****************** Output from **INTEGRALS input processing (HERMIT) ******************
 ***************************************************************************************


 - Using defaults, no **INTEGRALS input found

 Default print level:        1

 * Nuclear model: Point charge

 Calculation of one- and two-electron Hamiltonian integrals.

 Center of mass  (bohr):      0.000000000000      0.000000000000     -0.000015049426
 Operator center (bohr):      0.000000000000      0.000000000000      0.000000000000
 Gauge origin    (bohr):      0.000000000000      0.000000000000      0.000000000000
 Dipole origin   (bohr):      0.000000000000      0.000000000000      0.000000000000


     ************************************************************************
     ************************** Output from HERINT **************************
     ************************************************************************


 Threshold for neglecting two-electron integrals:  1.00D-12
 HERMIT - Number of two-electron integrals written:         138 ( 34.0% )
 HERMIT - Megabytes written:                              0.007

  Total CPU  time used in HERMIT:   0.00 seconds
  Total wall time used in HERMIT:   0.00 seconds


                        .----------------------------------.
                        | End of Integral Section (HERMIT) |
                        `----------------------------------'



                   .--------------------------------------------.
                   | Starting in Wave Function Section (SIRIUS) |
                   `--------------------------------------------'


 *** Output from Huckel module :

     Using EWMO model:          F
     Using EHT  model:          T
     Number of Huckel orbitals each symmetry:    4    1    2    0

 Huckel EHT eigenvalues for symmetry :  1
          -20.705520      -1.505990      -0.670643      -0.292535

 Huckel EHT eigenvalues for symmetry :  2
           -0.616200

 Huckel EHT eigenvalues for symmetry :  3
           -0.731199      -0.257813

 **********************************************************************
 *SIRIUS* a direct, restricted step, second order MCSCF program       *
 **********************************************************************

 
     Date and time (Linux)  : Tue Dec  6 15:23:40 2016
     Host name              : sunray                                  

 Title lines from ".mol" input file:
     Calculation of excitation energies through ABACUS                       
                                                                             

 Print level on unit LUPRI =   2 is   0
 Print level on unit LUW4  =   2 is   5

@    (Integral direct) CC calculation.

@    This is a combination run starting with
@              a restricted, closed shell Hartree-Fock calculation


 Initial molecular orbitals are obtained according to
 ".MOSTART EHT   " input option

     Wave function specification
     ============================

     For the specification of the Coupled Cluster: see later.

@    Wave function type        --- CC ---
@    Number of closed shell electrons          10
@    Number of electrons in active shells       0
@    Total charge of the molecule               0

@    Spin multiplicity and 2 M_S                1         0
@    Total number of symmetries                 4 (point group: C2v)
@    Reference state symmetry                   1 (irrep name : A1 )

     Orbital specifications
     ======================
@    Abelian symmetry species          All |    1    2    3    4
@                                          |  A1   B1   B2   A2 
                                       --- |  ---  ---  ---  ---
@    Total number of orbitals            7 |    4    1    2    0
@    Number of basis functions           7 |    4    1    2    0

      ** Automatic occupation of RHF orbitals **

      -- Initial occupation of symmetries is determined from extended Huckel guess.           
      -- Initial occupation of symmetries is :
@    Occupied SCF orbitals               5 |    3    1    1    0

     Maximum number of Fock   iterations      0
     Maximum number of DIIS   iterations     60
     Maximum number of QC-SCF iterations     60
     Threshold for SCF convergence     1.00D-06


 Changes of defaults for CC:
 ---------------------------


 MP2 Amplitudes written for atom integral direct SOPPA calculations
  


 ***********************************************
 ***** DIIS acceleration of SCF iterations *****
 ***********************************************

 C1-DIIS algorithm; max error vectors =    4

 Automatic occupation of symmetries with  10 electrons.

 Iter     Total energy    Error norm  Delta(E)    SCF occupation
 -----------------------------------------------------------------------------
 Calculating AOSUPINT
     (Precalculated two-electron integrals are transformed to P-supermatrix elements.
      Threshold for discarding integrals :  1.00D-12 )
@  1  -72.6180974833       2.25D+00  -7.26D+01     3   1   1   0
      Virial theorem: -V/T =      2.008514
@      MULPOP O      -0.32; H   _1  0.16; H   _2  0.16; 
   1  Level shift: doubly occupied orbital energies shifted by -2.00D-01
 -----------------------------------------------------------------------------
@  2  -72.7286159230       3.21D-01  -1.11D-01     3   1   1   0
      Virial theorem: -V/T =      2.015371
@      MULPOP O      -0.26; H   _1  0.13; H   _2  0.13; 
   2  Level shift: doubly occupied orbital energies shifted by -5.00D-02
 -----------------------------------------------------------------------------
@  3  -72.7383534472       7.80D-02  -9.74D-03     3   1   1   0
      Virial theorem: -V/T =      2.014173
@      MULPOP O      -0.25; H   _1  0.12; H   _2  0.12; 
   3  Level shift: doubly occupied orbital energies shifted by -1.25D-02
 -----------------------------------------------------------------------------
@  4  -72.7390013293       7.60D-03  -6.48D-04     3   1   1   0
      Virial theorem: -V/T =      2.013411
@      MULPOP O      -0.25; H   _1  0.13; H   _2  0.13; 
 -----------------------------------------------------------------------------
@  5  -72.7390116191       2.03D-03  -1.03D-05     3   1   1   0
      Virial theorem: -V/T =      2.013381
@      MULPOP O      -0.25; H   _1  0.13; H   _2  0.13; 
 -----------------------------------------------------------------------------
@  6  -72.7390123806       2.30D-05  -7.62D-07     3   1   1   0
      Virial theorem: -V/T =      2.013366
@      MULPOP O      -0.25; H   _1  0.13; H   _2  0.13; 
 -----------------------------------------------------------------------------
@  7  -72.7390123807       1.68D-07  -3.64D-11     3   1   1   0

@ *** DIIS converged in   7 iterations !
@     Converged SCF energy, gradient:    -72.739012380668    1.68D-07
    - total time used in SIRFCK :              0.00 seconds


 *** SCF orbital energy analysis ***

 Number of electrons :   10
 Orbital occupations :    3    1    1    0

 Sym       Hartree-Fock orbital energies

1 A1    -19.59045436    -1.24114736    -0.42221206     0.64172156

2 B1     -0.35397685

3 B2     -0.60046818     0.78600111

    E(LUMO) :     0.64172156 au (symmetry 1)
  - E(HOMO) :    -0.35397685 au (symmetry 2)
  ------------------------------------------
    gap     :     0.99569841 au

 --- Writing SIRIFC interface file

 CPU and wall time for SCF :       0.004       0.003


                       .-----------------------------------.
                       | --- Final results from SIRIUS --- |
                       `-----------------------------------'


@    Spin multiplicity:           1
@    Spatial symmetry:            1 ( irrep  A1  in C2v )
@    Total charge of molecule:    0

@    Final HF energy:             -72.739012380668                 
@    Nuclear repulsion:             9.183706230245
@    Electronic energy:           -81.922718610913

@    Final gradient norm:           0.000000167954

 
     Date and time (Linux)  : Tue Dec  6 15:23:40 2016
     Host name              : sunray                                  

File label for MO orbitals:   6Dec16   FOCKDIIS

 (Only coefficients > 0.0100 are printed.)

 Molecular orbitals for symmetry species 1  (A1 )
 ------------------------------------------------

    Orbital         1        2        3        4
   1 O   :1s     0.9860  -0.2653  -0.1328   0.1692
   2 O   :1s     0.0553   0.8158   0.5686  -0.8817
   3 O   :2pz   -0.0077  -0.1257   0.7586   0.7577
   4 H   :1s    -0.0130   0.1769  -0.2943   0.7826

 Molecular orbitals for symmetry species 2  (B1 )
 ------------------------------------------------

    Orbital         1
   1 O   :2px    1.0000

 Molecular orbitals for symmetry species 3  (B2 )
 ------------------------------------------------

    Orbital         1        2
   1 O   :2py    0.5888  -0.9939
   2 H   :1s     0.4612   0.8214

  Total CPU  time used in SIRIUS :   0.00 seconds
  Total wall time used in SIRIUS :   0.00 seconds

 
     Date and time (Linux)  : Tue Dec  6 15:23:40 2016
     Host name              : sunray                                  


                     .---------------------------------------.
                     | End of Wave Function Section (SIRIUS) |
                     `---------------------------------------'



                    .------------------------------------------.
                    | Starting in Coupled Cluster Section (CC) |
                    `------------------------------------------'

  

 *******************************************************************************
 *******************************************************************************
 *                                                                             *
 *                                                                             *
 *                    START OF COUPLED CLUSTER CALCULATION                     *
 *                                                                             *
 *                                                                             *
 *******************************************************************************
 *******************************************************************************



 CCR12 ANSATZ =   0

 CCR12 APPROX =   0

   

 *******************************************************************
 *                                                                 *
 *----------                                             >---------*
 *---------- OUTPUT FROM COUPLED CLUSTER ENERGY PROGRAM  >---------*
 *----------                                             >---------*
 *                                                                 *
 *******************************************************************


             The Direct Coupled Cluster Energy Program
             -----------------------------------------


          Number of t1 amplitudes                 :         4
          Number of t2 amplitudes                 :        22
          Total number of amplitudes in ccsd      :        26

 Iter.  1: Coupled cluster MP2   energy :     -72.7738864813979944





             +-------------------------------------------------------+
             ! Final results from the Coupled Cluster energy program !
             +-------------------------------------------------------+



            Total SCF   energy:                   -72.7390123807

            Total MP2   energy:                   -72.7738864814

  

 *******************************************************************************
 *******************************************************************************
 *                                                                             *
 *                                                                             *
 *                   SUMMARY OF COUPLED CLUSTER CALCULATION                    *
 *                                                                             *
 *                                                                             *
 *******************************************************************************
 *******************************************************************************

                                                                                
                                                                                
            Total SCF   energy:                   -72.7390123807                
            Total MP2   energy:                   -72.7738864814                
  

 *******************************************************************************
 *******************************************************************************
 *                                                                             *
 *                                                                             *
 *                      END OF COUPLED CLUSTER CALCULATION                     *
 *                                                                             *
 *                                                                             *
 *******************************************************************************
 *******************************************************************************


 CPU and wall time for CC :       0.000       0.001

 
     Date and time (Linux)  : Tue Dec  6 15:23:40 2016
     Host name              : sunray                                  


                      .-------------------------------------.
                      | End of Coupled Cluster Section (CC) |
                      `-------------------------------------'



        *****************************************************************
        ******** Output from **PROPE input processing for ABACUS ********
        *****************************************************************



      SOPPA : Second Order Polarization Propagator Approximation



 The following molecular properties will be calculated in this run:
 ------------------------------------------------------------------

 Default print level:        2

      Electronic excitation energies 
      No mass-velocity energy correction calculated
      No Darwin energy correction calculated
      Natural orbital connection is used
      for perturbation dependent basis sets.


 Changes of defaults in SOPPA:
 -----------------------------

 AO integral driven RPA
 AO integral driven Double corrected RPA :
    (Ref.: O. Christiansen, K. L. Bak, H. Koch and S. P. A. Sauer
     Chem. Phys. Lett. 284, 47-62 (1998))


 Changes of defaults for .EXCITA:
 --------------------------------

 Number of excitation energies:    5    5    5    5
 Print level          :    2
 Integral print level :    2
 Convergence threshold: 1.00E-04
 Maximum iterations   :   60


                                 Isotopic Masses
                                 ---------------

                           O          15.994915
                           H   _1      1.007825
                           H   _2      1.007825

                       Total mass:    18.010565 amu
                       Natural abundance:  99.730 %

 Center-of-mass coordinates (a.u.):    0.000000    0.000000   -0.000015

 Center of mass dipole origin  :    0.000000    0.000000   -0.000015

 Center of mass gauge origin   :    0.000000    0.000000   -0.000015


                 .------------------------------------------------.
                 | Starting in Static Property Section (ABACUS) - |
                 `------------------------------------------------'


 
     Date and time (Linux)  : Tue Dec  6 15:23:40 2016
     Host name              : sunray                                  


                            **************************
                            *** Output from TROINV ***
                            **************************



  Translational and rotational coordinates
  ----------------------------------------


  Symmetry  1

        Translation along Z axis

  Symmetry  2

        Translation along X axis
        Rotation around Y axis

  Symmetry  3

        Translation along Y axis
        Rotation around X axis

  Symmetry  4

        Rotation around Z axis


                  **********************************************
                  *** ABACUS - Excitation energies (.EXCITA) ***
                  **********************************************


 Maximum number of trial vectors for each excitation is  3


 -----------------------------------
 RPA:
 Perturbation symmetry     :       1
 p-h variables             :       8
 -----------------------------------
 NOTICE: The number of excitations are reduced to     4
 as this is the full dimension of the excitation space

  ******************************************************************
                   RPA iterations, Excitation symmetry 1
  ******************************************************************

  ==================================================================
             1. RPA  iteration, Excitation symmetry 1
  ==================================================================

            --------------------------------------------------
            Excitation   Energy (au)     Residual    Converged
            --------------------------------------------------
                 1       0.62676356     1.2063D-15      yes
                 2       1.07693288     3.9789D-15      yes
                 3       1.46733629     3.2820D-15      yes
                 4      19.49166095     2.1887D-14      yes
            --------------------------------------------------

 -------------------------------------------------------------
 Iterations stopped since: 
 -------------------------
 All of the excitations are converged.
 -------------------------------------------------------------


 --------------------------------------------------------------

                 Singlet Excitation Energies

 --------------------------------------------------------------
 Excitation symmetry  1, state no.  1

        RPA excitation energy :  0.62676356     au
                                   17.055104     eV
                                   137558.70     cm-1
                                   1645.5675     kj / mole

 1p-1h + 1h-1p excitation weight:  -0.12 + -0.00  =  -0.12 %
 |=====================================================|
 |          | Symmetry|  Orbital index  |   Amplitude  |
 |          | index   |   a   b   i   j |              |
 |=====================================================|
 |    exci. | 1   1   |   1       3     |   -0.977248  |
 |    exci. | 3   3   |   1       1     |   -0.212431  |
 |-----------------------------------------------------|

 Printed all single excitation amplitudes greater than  0.100000

 --------------------------------------------------------------

                 Singlet Excitation Energies

 --------------------------------------------------------------
 Excitation symmetry  1, state no.  2

        RPA excitation energy :   1.0769329     au
                                   29.304834     eV
                                   236359.45     cm-1
                                   2827.4868     kj / mole

 1p-1h + 1h-1p excitation weight:   0.10 +  0.00  =   0.11 %
 |=====================================================|
 |          | Symmetry|  Orbital index  |   Amplitude  |
 |          | index   |   a   b   i   j |              |
 |=====================================================|
 |    exci. | 1   1   |   1       2     |    0.118668  |
 |    exci. | 1   1   |   1       3     |    0.211199  |
 |    exci. | 3   3   |   1       1     |   -0.975550  |
 |-----------------------------------------------------|

 Printed all single excitation amplitudes greater than  0.100000

 --------------------------------------------------------------

                 Singlet Excitation Energies

 --------------------------------------------------------------
 Excitation symmetry  1, state no.  3

        RPA excitation energy :   1.4673363     au
                                   39.928251     eV
                                   322043.09     cm-1
                                   3852.4908     kj / mole

 1p-1h + 1h-1p excitation weight:  -0.08 + -0.00  =  -0.08 %
 |=====================================================|
 |          | Symmetry|  Orbital index  |   Amplitude  |
 |          | index   |   a   b   i   j |              |
 |=====================================================|
 |    exci. | 1   1   |   1       2     |   -0.993217  |
 |    exci. | 3   3   |   1       1     |   -0.110841  |
 |-----------------------------------------------------|

 Printed all single excitation amplitudes greater than  0.100000

 --------------------------------------------------------------

                 Singlet Excitation Energies

 --------------------------------------------------------------
 Excitation symmetry  1, state no.  4

        RPA excitation energy :   19.491661     au
                                   530.39507     eV
                                   4277925.1     cm-1
                                   51175.348     kj / mole

 1p-1h + 1h-1p excitation weight: 100.10 + -0.00  = 100.10 %
 |=====================================================|
 |          | Symmetry|  Orbital index  |   Amplitude  |
 |          | index   |   a   b   i   j |              |
 |=====================================================|
 |    exci. | 1   1   |   1       1     |    0.999999  |
 |-----------------------------------------------------|

 Printed all single excitation amplitudes greater than  0.100000

 --------------------------------------------------------------

 ZDIPLEN  RPA transition moments for excitation symmetry  1
 ===================================================================
 Exci.    1p-1h        1h-1p        Total
 -------------------------------------------------------------------
   1    -0.48745 +    0.06036 =   -0.42709
   2     1.01346 +   -0.11277 =    0.90070
   3     0.30009 +   -0.07483 =    0.22527
   4     0.07335 +   -0.00087 =    0.07249
 ===================================================================

 ZDIPVEL  RPA transition moments for excitation symmetry  1
 ===================================================================
 Exci.    1p-1h        1h-1p        Total
 -------------------------------------------------------------------
   1     0.38040 +    0.03828 =    0.41868
   2    -0.58897 +   -0.07467 =   -0.66364
   3    -0.25285 +   -0.04872 =   -0.30157
   4    -0.86056 +   -0.00117 =   -0.86173
 ===================================================================

 XXSECMOM RPA transition moments for excitation symmetry  1
 ===================================================================
 Exci.    1p-1h        1h-1p        Total
 -------------------------------------------------------------------
   1     0.16408 +   -0.01812 =    0.14596
   2    -0.24742 +    0.03664 =   -0.21078
   3    -0.21044 +    0.02530 =   -0.18514
   4    -0.01893 +    0.00019 =   -0.01873
 ===================================================================

 YYSECMOM RPA transition moments for excitation symmetry  1
 ===================================================================
 Exci.    1p-1h        1h-1p        Total
 -------------------------------------------------------------------
   1     0.85087 +   -0.13336 =    0.71751
   2    -1.97292 +    0.26520 =   -1.70772
   3    -1.55518 +    0.18781 =   -1.36737
   4    -0.04699 +    0.00151 =   -0.04548
 ===================================================================

 ZZSECMOM RPA transition moments for excitation symmetry  1
 ===================================================================
 Exci.    1p-1h        1h-1p        Total
 -------------------------------------------------------------------
   1     0.36999 +   -0.06986 =    0.30013
   2    -1.01592 +    0.14058 =   -0.87534
   3    -0.93788 +    0.10167 =   -0.83621
   4    -0.02025 +    0.00077 =   -0.01948
 ===================================================================

 -----------------------------------
 RPA(D):
 Perturbation symmetry     :       1
 p-h variables             :       8
 2p-2h variables           :      44
 Total number of variables :      52
 -----------------------------------
 NOTICE: The number of excitations are reduced to     4
 as this is the full dimension of the excitation space

  ******************************************************************
                RPA(D) calculation, Excitation symmetry 1
  ******************************************************************
 -----------------------------------------------------------------
 Excitation   Energy (au)      ph(0)        ph(2)       2p2h(2)
 -----------------------------------------------------------------
      1        0.61878515   0.62676356   0.02133789  -0.02931630
      2        1.08468443   1.07693288   0.02665477  -0.01890322
      3        1.44569852   1.46733629   0.01994879  -0.04158655
      4       19.38907167  19.49166095   0.01213559  -0.11472487
 -----------------------------------------------------------------

 --------------------------------------------------------------

                 Singlet Excitation Energies

 --------------------------------------------------------------
 Excitation symmetry  1, state no.  1

     RPA(D) excitation energy :  0.61878515     au
                                   16.838001     eV
                                   135807.64     cm-1
                                   1624.6202     kj / mole

 1p-1h + 1h-1p excitation weight:  98.68 + -0.27  =  98.41 %
 2p-2h + 2h-2p excitation weight:   1.59 + -0.00  =   1.59 %

 |=====================================================|
 |          | Symmetry|  Orbital index  |   Amplitude  |
 |          | index   |   a   b   i   j |              |
 |=====================================================|
 |    exci. | 1   1   |   1       3     |   -0.974434  |
 |    exci. | 3   3   |   1       1     |   -0.211819  |
 |-----------------------------------------------------|
 |    exci. | 1 1 1 1 |   1   1   3   2 |   -0.035847  |
 |    exci. | 1 1 1 1 |   1   1   3   3 |   -0.071195  |
 |    exci. | 3 1 3 1 |   1   1   1   2 |    0.042321  |
 |    exci. | 3 1 3 1 |   1   1   1   3 |    0.089029  |
 |    exci. | 3 3 1 1 |   1   1   3   3 |   -0.042022  |
 |    exci. | 1 3 3 1 |   1   1   1   3 |    0.044855  |
 |    exci. | 1 1 3 3 |   1   1   1   1 |    0.029920  |
 |=====================================================|

 Printed all single excitation amplitudes greater than  0.100000
 Printed all double excitation amplitudes greater than 0.020000

 --------------------------------------------------------------

                 Singlet Excitation Energies

 --------------------------------------------------------------
 Excitation symmetry  1, state no.  2

     RPA(D) excitation energy :   1.0846844     au
                                   29.515765     eV
                                   238060.71     cm-1
                                   2847.8385     kj / mole

 1p-1h + 1h-1p excitation weight:  99.91 + -1.03  =  98.88 %
 2p-2h + 2h-2p excitation weight:   1.12 + -0.01  =   1.12 %

 |=====================================================|
 |          | Symmetry|  Orbital index  |   Amplitude  |
 |          | index   |   a   b   i   j |              |
 |=====================================================|
 |    exci. | 1   1   |   1       2     |    0.118744  |
 |    exci. | 1   1   |   1       3     |    0.211333  |
 |    exci. | 3   3   |   1       1     |   -0.976170  |
 |-----------------------------------------------------|
 |    exci. | 1 1 1 1 |   1   1   3   3 |    0.027324  |
 |    exci. | 3 1 3 1 |   1   1   1   3 |   -0.027459  |
 |    exci. | 3 3 1 1 |   1   1   3   2 |    0.075875  |
 |    exci. | 1 3 3 1 |   1   1   1   2 |   -0.034080  |
 |    exci. | 1 3 3 1 |   1   1   1   3 |   -0.048209  |
 |    exci. | 1 1 3 3 |   1   1   1   1 |    0.057007  |
 |    exci. | 3 3 2 2 |   1   1   1   1 |    0.028148  |
 |=====================================================|

 Printed all single excitation amplitudes greater than  0.100000
 Printed all double excitation amplitudes greater than 0.020000

 --------------------------------------------------------------

                 Singlet Excitation Energies

 --------------------------------------------------------------
 Excitation symmetry  1, state no.  3

     RPA(D) excitation energy :   1.4456985     au
                                   39.339458     eV
                                   317294.15     cm-1
                                   3795.6809     kj / mole

 1p-1h + 1h-1p excitation weight:  95.81 + -0.49  =  95.32 %
 2p-2h + 2h-2p excitation weight:   4.68 + -0.01  =   4.68 %

 |=====================================================|
 |          | Symmetry|  Orbital index  |   Amplitude  |
 |          | index   |   a   b   i   j |              |
 |=====================================================|
 |    exci. | 1   1   |   1       2     |   -0.973971  |
 |    exci. | 3   3   |   1       1     |   -0.108693  |
 |-----------------------------------------------------|
 |    exci. | 1 1 2 2 |   1   1   1   1 |    0.152780  |
 |=====================================================|

 Printed all single excitation amplitudes greater than  0.100000
 Printed all double excitation amplitudes greater than 0.100000

 --------------------------------------------------------------

                 Singlet Excitation Energies

 --------------------------------------------------------------
 Excitation symmetry  1, state no.  4

     RPA(D) excitation energy :   19.389072     au
                                   527.60348     eV
                                   4255409.3     cm-1
                                   50906.000     kj / mole

 1p-1h + 1h-1p excitation weight:  95.20 + -0.00  =  95.20 %
 2p-2h + 2h-2p excitation weight:   4.80 + -0.00  =   4.80 %

 |=====================================================|
 |          | Symmetry|  Orbital index  |   Amplitude  |
 |          | index   |   a   b   i   j |              |
 |=====================================================|
 |    exci. | 1   1   |   1       1     |    0.978747  |
 |-----------------------------------------------------|
 |    exci. | 1 1 1 1 |   1   1   2   1 |   -0.129256  |
 |    exci. | 1 1 1 1 |   1   1   3   1 |    0.115459  |
 |    exci. | 3 1 3 1 |   1   1   1   1 |   -0.197441  |
 |=====================================================|

 Printed all single excitation amplitudes greater than  0.100000
 Printed all double excitation amplitudes greater than 0.100000

 --------------------------------------------------------------

 ZDIPLEN  RPA(D) transition moments for excitation symmetry  1
 ===================================================================
 Exci.    1p-1h        1h-1p        Total
 -------------------------------------------------------------------
   1    -0.49799 +    0.06016 =   -0.43783
   2     1.01121 +   -0.11254 =    0.89867
   3     0.28727 +   -0.07459 =    0.21268
   4     0.07445 +   -0.00086 =    0.07359
 ===================================================================

 ZDIPVEL  RPA(D) transition moments for excitation symmetry  1
 ===================================================================
 Exci.    1p-1h        1h-1p        Total
 -------------------------------------------------------------------
   1     0.37953 +    0.03784 =    0.41737
   2    -0.58383 +   -0.07377 =   -0.65760
   3    -0.24144 +   -0.04801 =   -0.28944
   4    -0.87432 +   -0.00118 =   -0.87550
 ===================================================================

 XXSECMOM RPA(D) transition moments for excitation symmetry  1
 ===================================================================
 Exci.    1p-1h        1h-1p        Total
 -------------------------------------------------------------------
   1     0.16512 +   -0.01796 =    0.14716
   2    -0.24538 +    0.03632 =   -0.20907
   3    -0.20428 +    0.02499 =   -0.17929
   4    -0.01889 +    0.00019 =   -0.01870
 ===================================================================

 YYSECMOM RPA(D) transition moments for excitation symmetry  1
 ===================================================================
 Exci.    1p-1h        1h-1p        Total
 -------------------------------------------------------------------
   1     0.86681 +   -0.13273 =    0.73408
   2    -1.96118 +    0.26443 =   -1.69674
   3    -1.54030 +    0.18732 =   -1.35299
   4    -0.04688 +    0.00149 =   -0.04538
 ===================================================================

 ZZSECMOM RPA(D) transition moments for excitation symmetry  1
 ===================================================================
 Exci.    1p-1h        1h-1p        Total
 -------------------------------------------------------------------
   1     0.36884 +   -0.06929 =    0.29955
   2    -1.00833 +    0.13957 =   -0.86876
   3    -0.93183 +    0.10109 =   -0.83074
   4    -0.01987 +    0.00076 =   -0.01910
 ===================================================================

 -----------------------------------
 RPA:
 Perturbation symmetry     :       2
 p-h variables             :       2
 -----------------------------------
 NOTICE: The number of excitations are reduced to     1
 as this is the full dimension of the excitation space

  ******************************************************************
                   RPA iterations, Excitation symmetry 2
  ******************************************************************

  ==================================================================
             1. RPA  iteration, Excitation symmetry 2
  ==================================================================

            --------------------------------------------------
            Excitation   Energy (au)     Residual    Converged
            --------------------------------------------------
                 1       0.48227895     1.7347D-16      yes
            --------------------------------------------------

 -------------------------------------------------------------
 Iterations stopped since: 
 -------------------------
 All of the excitations are converged.
 -------------------------------------------------------------


 --------------------------------------------------------------

                 Singlet Excitation Energies

 --------------------------------------------------------------
 Excitation symmetry  2, state no.  1

        RPA excitation energy :  0.48227895     au
                                   13.123478     eV
                                   105847.99     cm-1
                                   1266.2232     kj / mole

 1p-1h + 1h-1p excitation weight: 100.17 + -0.17  = 100.00 %
 |=====================================================|
 |          | Symmetry|  Orbital index  |   Amplitude  |
 |          | index   |   a   b   i   j |              |
 |=====================================================|
 |    exci. | 1   2   |   1       1     |    1.000855  |
 |-----------------------------------------------------|

 Printed all single excitation amplitudes greater than  0.100000

 --------------------------------------------------------------

 XDIPLEN  RPA transition moments for excitation symmetry  2
 ===================================================================
 Exci.    1p-1h        1h-1p        Total
 -------------------------------------------------------------------
   1    -0.11351 +    0.00469 =   -0.10882
 ===================================================================

 XDIPVEL  RPA transition moments for excitation symmetry  2
 ===================================================================
 Exci.    1p-1h        1h-1p        Total
 -------------------------------------------------------------------
   1    -0.15899 +   -0.00657 =   -0.16556
 ===================================================================

 YANGMOM  RPA transition moments for excitation symmetry  2
 ===================================================================
 Exci.    1p-1h        1h-1p        Total
 -------------------------------------------------------------------
   1    -0.52568 +   -0.02173 =   -0.54741
 ===================================================================

 XZSECMOM RPA transition moments for excitation symmetry  2
 ===================================================================
 Exci.    1p-1h        1h-1p        Total
 -------------------------------------------------------------------
   1     0.06661 +   -0.00275 =    0.06385
 ===================================================================

 -----------------------------------
 RPA(D):
 Perturbation symmetry     :       2
 p-h variables             :       2
 2p-2h variables           :      16
 Total number of variables :      18
 -----------------------------------
 NOTICE: The number of excitations are reduced to     1
 as this is the full dimension of the excitation space

  ******************************************************************
                RPA(D) calculation, Excitation symmetry 2
  ******************************************************************
 -----------------------------------------------------------------
 Excitation   Energy (au)      ph(0)        ph(2)       2p2h(2)
 -----------------------------------------------------------------
      1        0.47058221   0.48227895   0.01518729  -0.02688404
 -----------------------------------------------------------------

 --------------------------------------------------------------

                 Singlet Excitation Energies

 --------------------------------------------------------------
 Excitation symmetry  2, state no.  1

     RPA(D) excitation energy :  0.47058221     au
                                   12.805193     eV
                                   103280.86     cm-1
                                   1235.5134     kj / mole

 1p-1h + 1h-1p excitation weight:  98.79 + -0.17  =  98.62 %
 2p-2h + 2h-2p excitation weight:   1.38 + -0.00  =   1.38 %

 |=====================================================|
 |          | Symmetry|  Orbital index  |   Amplitude  |
 |          | index   |   a   b   i   j |              |
 |=====================================================|
 |    exci. | 1   2   |   1       1     |    0.997316  |
 |-----------------------------------------------------|
 |    exci. | 1 3 2 3 |   1   1   1   1 |   -0.108096  |
 |=====================================================|

 Printed all single excitation amplitudes greater than  0.100000
 Printed all double excitation amplitudes greater than 0.100000

 --------------------------------------------------------------

 XDIPLEN  RPA(D) transition moments for excitation symmetry  2
 ===================================================================
 Exci.    1p-1h        1h-1p        Total
 -------------------------------------------------------------------
   1    -0.11402 +    0.00471 =   -0.10931
 ===================================================================

 XDIPVEL  RPA(D) transition moments for excitation symmetry  2
 ===================================================================
 Exci.    1p-1h        1h-1p        Total
 -------------------------------------------------------------------
   1    -0.15756 +   -0.00651 =   -0.16407
 ===================================================================

 YANGMOM  RPA(D) transition moments for excitation symmetry  2
 ===================================================================
 Exci.    1p-1h        1h-1p        Total
 -------------------------------------------------------------------
   1    -0.53750 +   -0.02222 =   -0.55972
 ===================================================================

 XZSECMOM RPA(D) transition moments for excitation symmetry  2
 ===================================================================
 Exci.    1p-1h        1h-1p        Total
 -------------------------------------------------------------------
   1     0.07220 +   -0.00298 =    0.06921
 ===================================================================

 -----------------------------------
 RPA:
 Perturbation symmetry     :       3
 p-h variables             :       8
 -----------------------------------
 NOTICE: The number of excitations are reduced to     4
 as this is the full dimension of the excitation space

  ******************************************************************
                   RPA iterations, Excitation symmetry 3
  ******************************************************************

  ==================================================================
             1. RPA  iteration, Excitation symmetry 3
  ==================================================================

            --------------------------------------------------
            Excitation   Energy (au)     Residual    Converged
            --------------------------------------------------
                 1       0.72134970     4.2491D-15      yes
                 2       0.82980889     4.0704D-15      yes
                 3       1.52913692     4.9014D-15      yes
                 4      19.54710669     2.1895D-14      yes
            --------------------------------------------------

 -------------------------------------------------------------
 Iterations stopped since: 
 -------------------------
 All of the excitations are converged.
 -------------------------------------------------------------


 --------------------------------------------------------------

                 Singlet Excitation Energies

 --------------------------------------------------------------
 Excitation symmetry  3, state no.  1

        RPA excitation energy :  0.72134970     au
                                   19.628924     eV
                                   158317.96     cm-1
                                   1893.9034     kj / mole

 1p-1h + 1h-1p excitation weight:  -0.19 + -0.00  =  -0.19 %
 |=====================================================|
 |          | Symmetry|  Orbital index  |   Amplitude  |
 |          | index   |   a   b   i   j |              |
 |=====================================================|
 |    exci. | 1   3   |   1       1     |    0.416368  |
 |    exci. | 3   1   |   1       3     |    0.910288  |
 |-----------------------------------------------------|

 Printed all single excitation amplitudes greater than  0.100000

 --------------------------------------------------------------

                 Singlet Excitation Energies

 --------------------------------------------------------------
 Excitation symmetry  3, state no.  2

        RPA excitation energy :  0.82980889     au
                                   22.580249     eV
                                   182122.00     cm-1
                                   2178.6629     kj / mole

 1p-1h + 1h-1p excitation weight:   0.04 + -0.00  =   0.04 %
 |=====================================================|
 |          | Symmetry|  Orbital index  |   Amplitude  |
 |          | index   |   a   b   i   j |              |
 |=====================================================|
 |    exci. | 1   3   |   1       1     |    0.909331  |
 |    exci. | 3   1   |   1       3     |   -0.416171  |
 |-----------------------------------------------------|

 Printed all single excitation amplitudes greater than  0.100000

 --------------------------------------------------------------

                 Singlet Excitation Energies

 --------------------------------------------------------------
 Excitation symmetry  3, state no.  3

        RPA excitation energy :   1.5291369     au
                                   41.609932     eV
                                   335606.76     cm-1
                                   4014.7484     kj / mole

 1p-1h + 1h-1p excitation weight:  -0.24 + -0.00  =  -0.24 %
 |=====================================================|
 |          | Symmetry|  Orbital index  |   Amplitude  |
 |          | index   |   a   b   i   j |              |
 |=====================================================|
 |    exci. | 3   1   |   1       2     |   -0.999190  |
 |-----------------------------------------------------|

 Printed all single excitation amplitudes greater than  0.100000

 --------------------------------------------------------------

                 Singlet Excitation Energies

 --------------------------------------------------------------
 Excitation symmetry  3, state no.  4

        RPA excitation energy :   19.547107     au
                                   531.90383     eV
                                   4290094.0     cm-1
                                   51320.921     kj / mole

 1p-1h + 1h-1p excitation weight: 100.40 + -0.00  = 100.40 %
 |=====================================================|
 |          | Symmetry|  Orbital index  |   Amplitude  |
 |          | index   |   a   b   i   j |              |
 |=====================================================|
 |    exci. | 3   1   |   1       1     |    0.999996  |
 |-----------------------------------------------------|

 Printed all single excitation amplitudes greater than  0.100000

 --------------------------------------------------------------

 YDIPLEN  RPA transition moments for excitation symmetry  3
 ===================================================================
 Exci.    1p-1h        1h-1p        Total
 -------------------------------------------------------------------
   1    -0.39163 +    0.02276 =   -0.36887
   2     1.48576 +   -0.06906 =    1.41670
   3    -0.11937 +   -0.00800 =   -0.12737
   4    -0.08987 +   -0.00024 =   -0.09011
 ===================================================================

 YDIPVEL  RPA transition moments for excitation symmetry  3
 ===================================================================
 Exci.    1p-1h        1h-1p        Total
 -------------------------------------------------------------------
   1     0.18332 +    0.01160 =    0.19492
   2    -0.87741 +   -0.03969 =   -0.91710
   3     0.16828 +   -0.00323 =    0.16505
   4     1.12580 +    0.00018 =    1.12599
 ===================================================================

 XANGMOM  RPA transition moments for excitation symmetry  3
 ===================================================================
 Exci.    1p-1h        1h-1p        Total
 -------------------------------------------------------------------
   1     0.70711 +    0.03033 =    0.73744
   2     0.00967 +   -0.00174 =    0.00793
   3     0.13705 +   -0.00187 =    0.13518
   4     0.13705 +    0.00056 =    0.13761
 ===================================================================

 YZSECMOM RPA transition moments for excitation symmetry  3
 ===================================================================
 Exci.    1p-1h        1h-1p        Total
 -------------------------------------------------------------------
   1     0.12143 +   -0.00622 =    0.11521
   2    -1.38927 +    0.06021 =   -1.32906
   3     0.75004 +   -0.00750 =    0.74253
   4     0.00780 +    0.00098 =    0.00878
 ===================================================================

 -----------------------------------
 RPA(D):
 Perturbation symmetry     :       3
 p-h variables             :       8
 2p-2h variables           :      34
 Total number of variables :      42
 -----------------------------------
 NOTICE: The number of excitations are reduced to     4
 as this is the full dimension of the excitation space

  ******************************************************************
                RPA(D) calculation, Excitation symmetry 3
  ******************************************************************
 -----------------------------------------------------------------
 Excitation   Energy (au)      ph(0)        ph(2)       2p2h(2)
 -----------------------------------------------------------------
      1        0.72493343   0.72134970   0.02519411  -0.02161038
      2        0.84185694   0.82980889   0.02629476  -0.01424671
      3        1.50427780   1.52913692   0.02151634  -0.04637546
      4       19.47040469  19.54710669   0.01278540  -0.08948740
 -----------------------------------------------------------------

 --------------------------------------------------------------

                 Singlet Excitation Energies

 --------------------------------------------------------------
 Excitation symmetry  3, state no.  1

     RPA(D) excitation energy :  0.72493343     au
                                   19.726442     eV
                                   159104.50     cm-1
                                   1903.3124     kj / mole

 1p-1h + 1h-1p excitation weight:  99.01 + -0.20  =  98.81 %
 2p-2h + 2h-2p excitation weight:   1.19 + -0.00  =   1.19 %

 |=====================================================|
 |          | Symmetry|  Orbital index  |   Amplitude  |
 |          | index   |   a   b   i   j |              |
 |=====================================================|
 |    exci. | 1   3   |   1       1     |    0.416191  |
 |    exci. | 3   1   |   1       3     |    0.909902  |
 |-----------------------------------------------------|
 |    exci. | 3 1 1 1 |   1   1   3   3 |    0.108771  |
 |=====================================================|

 Printed all single excitation amplitudes greater than  0.100000
 Printed all double excitation amplitudes greater than 0.100000

 --------------------------------------------------------------

                 Singlet Excitation Energies

 --------------------------------------------------------------
 Excitation symmetry  3, state no.  2

     RPA(D) excitation energy :  0.84185694     au
                                   22.908093     eV
                                   184766.24     cm-1
                                   2210.2950     kj / mole

 1p-1h + 1h-1p excitation weight:  99.46 + -0.21  =  99.25 %
 2p-2h + 2h-2p excitation weight:   0.75 + -0.00  =   0.75 %

 |=====================================================|
 |          | Symmetry|  Orbital index  |   Amplitude  |
 |          | index   |   a   b   i   j |              |
 |=====================================================|
 |    exci. | 1   3   |   1       1     |    0.911444  |
 |    exci. | 3   1   |   1       3     |   -0.417138  |
 |-----------------------------------------------------|
 |    exci. | 3 1 1 1 |   1   1   2   2 |   -0.021784  |
 |    exci. | 3 1 1 1 |   1   1   3   2 |   -0.025970  |
 |    exci. | 3 1 1 1 |   1   1   2   3 |   -0.040531  |
 |    exci. | 3 1 1 1 |   1   1   3   3 |   -0.053465  |
 |    exci. | 1 1 3 1 |   1   1   1   3 |    0.052304  |
 |    exci. | 3 3 1 3 |   1   1   2   1 |    0.038612  |
 |    exci. | 1 3 3 3 |   1   1   1   1 |   -0.061346  |
 |    exci. | 3 1 2 2 |   1   1   1   1 |   -0.026611  |
 |=====================================================|

 Printed all single excitation amplitudes greater than  0.100000
 Printed all double excitation amplitudes greater than 0.020000

 --------------------------------------------------------------

                 Singlet Excitation Energies

 --------------------------------------------------------------
 Excitation symmetry  3, state no.  3

     RPA(D) excitation energy :   1.5042778     au
                                   40.933481     eV
                                   330150.81     cm-1
                                   3949.4808     kj / mole

 1p-1h + 1h-1p excitation weight:  95.87 + -0.05  =  95.82 %
 2p-2h + 2h-2p excitation weight:   4.18 + -0.00  =   4.18 %

 |=====================================================|
 |          | Symmetry|  Orbital index  |   Amplitude  |
 |          | index   |   a   b   i   j |              |
 |=====================================================|
 |    exci. | 3   1   |   1       2     |   -0.982343  |
 |-----------------------------------------------------|
 |    exci. | 1 1 3 1 |   1   1   1   3 |    0.207101  |
 |    exci. | 3 1 2 2 |   1   1   1   1 |    0.131106  |
 |=====================================================|

 Printed all single excitation amplitudes greater than  0.100000
 Printed all double excitation amplitudes greater than 0.100000

 --------------------------------------------------------------

                 Singlet Excitation Energies

 --------------------------------------------------------------
 Excitation symmetry  3, state no.  4

     RPA(D) excitation energy :   19.470405     au
                                   529.81666     eV
                                   4273259.9     cm-1
                                   51119.540     kj / mole

 1p-1h + 1h-1p excitation weight:  96.31 + -0.00  =  96.31 %
 2p-2h + 2h-2p excitation weight:   3.69 + -0.00  =   3.69 %

 |=====================================================|
 |          | Symmetry|  Orbital index  |   Amplitude  |
 |          | index   |   a   b   i   j |              |
 |=====================================================|
 |    exci. | 3   1   |   1       1     |    0.984646  |
 |-----------------------------------------------------|
 |    exci. | 3 1 1 1 |   1   1   2   1 |   -0.119961  |
 |    exci. | 3 1 1 1 |   1   1   3   1 |    0.117578  |
 |    exci. | 1 1 3 1 |   1   1   1   1 |   -0.160021  |
 |=====================================================|

 Printed all single excitation amplitudes greater than  0.100000
 Printed all double excitation amplitudes greater than 0.100000

 --------------------------------------------------------------

 YDIPLEN  RPA(D) transition moments for excitation symmetry  3
 ===================================================================
 Exci.    1p-1h        1h-1p        Total
 -------------------------------------------------------------------
   1    -0.40032 +    0.02320 =   -0.37713
   2     1.48063 +   -0.06893 =    1.41170
   3    -0.10313 +   -0.00844 =   -0.11157
   4    -0.09026 +   -0.00023 =   -0.09049
 ===================================================================

 YDIPVEL  RPA(D) transition moments for excitation symmetry  3
 ===================================================================
 Exci.    1p-1h        1h-1p        Total
 -------------------------------------------------------------------
   1     0.18447 +    0.01165 =    0.19611
   2    -0.86755 +   -0.03928 =   -0.90683
   3     0.16101 +   -0.00334 =    0.15767
   4     1.13106 +    0.00019 =    1.13125
 ===================================================================

 XANGMOM  RPA(D) transition moments for excitation symmetry  3
 ===================================================================
 Exci.    1p-1h        1h-1p        Total
 -------------------------------------------------------------------
   1     0.70843 +    0.03038 =    0.73881
   2     0.01506 +   -0.00152 =    0.01354
   3     0.13380 +   -0.00197 =    0.13183
   4     0.13759 +    0.00056 =    0.13815
 ===================================================================

 YZSECMOM RPA(D) transition moments for excitation symmetry  3
 ===================================================================
 Exci.    1p-1h        1h-1p        Total
 -------------------------------------------------------------------
   1     0.12974 +   -0.00661 =    0.12314
   2    -1.38127 +    0.05993 =   -1.32134
   3     0.74064 +   -0.00724 =    0.73340
   4     0.00749 +    0.00096 =    0.00845
 ===================================================================

 -----------------------------------
 RPA:
 Perturbation symmetry     :       4
 p-h variables             :       2
 -----------------------------------
 NOTICE: The number of excitations are reduced to     1
 as this is the full dimension of the excitation space

  ******************************************************************
                   RPA iterations, Excitation symmetry 4
  ******************************************************************

  ==================================================================
             1. RPA  iteration, Excitation symmetry 4
  ==================================================================

            --------------------------------------------------
            Excitation   Energy (au)     Residual    Converged
            --------------------------------------------------
                 1       0.56295381     1.4639D-16      yes
            --------------------------------------------------

 -------------------------------------------------------------
 Iterations stopped since: 
 -------------------------
 All of the excitations are converged.
 -------------------------------------------------------------


 --------------------------------------------------------------

                 Singlet Excitation Energies

 --------------------------------------------------------------
 Excitation symmetry  4, state no.  1

        RPA excitation energy :  0.56295381     au
                                   15.318752     eV
                                   123554.08     cm-1
                                   1478.0350     kj / mole

 1p-1h + 1h-1p excitation weight: 100.06 + -0.06  = 100.00 %
 |=====================================================|
 |          | Symmetry|  Orbital index  |   Amplitude  |
 |          | index   |   a   b   i   j |              |
 |=====================================================|
 |    exci. | 3   2   |   1       1     |    1.000284  |
 |-----------------------------------------------------|

 Printed all single excitation amplitudes greater than  0.100000

 --------------------------------------------------------------

 ZANGMOM  RPA transition moments for excitation symmetry  4
 ===================================================================
 Exci.    1p-1h        1h-1p        Total
 -------------------------------------------------------------------
   1    -0.69258 +   -0.01651 =   -0.70909
 ===================================================================

 XYSECMOM RPA transition moments for excitation symmetry  4
 ===================================================================
 Exci.    1p-1h        1h-1p        Total
 -------------------------------------------------------------------
   1    -0.09560 +    0.00228 =   -0.09333
 ===================================================================

 -----------------------------------
 RPA(D):
 Perturbation symmetry     :       4
 p-h variables             :       2
 2p-2h variables           :      16
 Total number of variables :      18
 -----------------------------------
 NOTICE: The number of excitations are reduced to     1
 as this is the full dimension of the excitation space

  ******************************************************************
                RPA(D) calculation, Excitation symmetry 4
  ******************************************************************
 -----------------------------------------------------------------
 Excitation   Energy (au)      ph(0)        ph(2)       2p2h(2)
 -----------------------------------------------------------------
      1        0.56055308   0.56295381   0.01569428  -0.01809500
 -----------------------------------------------------------------

 --------------------------------------------------------------

                 Singlet Excitation Energies

[...]
 |          | index   |   a   b   i   j |              |
 |=====================================================|
 |    exci. | 3   2   |   1       1     |    0.999152  |
 |-----------------------------------------------------|
 |    exci. | 3 1 1 2 |   1   1   2   1 |   -0.037684  |
 |    exci. | 3 1 1 2 |   1   1   3   1 |    0.046307  |
 |    exci. | 1 1 3 2 |   1   1   1   1 |   -0.050122  |
 |    exci. | 3 1 2 1 |   1   1   1   2 |   -0.047569  |
 |    exci. | 3 1 2 1 |   1   1   1   3 |    0.062139  |
 |    exci. | 3 3 2 3 |   1   1   1   1 |   -0.079182  |
 |=====================================================|

 Printed all single excitation amplitudes greater than  0.100000
 Printed all double excitation amplitudes greater than 0.020000

 --------------------------------------------------------------

 ZANGMOM  RPA(D) transition moments for excitation symmetry  4
 ===================================================================
 Exci.    1p-1h        1h-1p        Total
 -------------------------------------------------------------------
   1    -0.69687 +   -0.01661 =   -0.71348
 ===================================================================

 XYSECMOM RPA(D) transition moments for excitation symmetry  4
 ===================================================================
 Exci.    1p-1h        1h-1p        Total
 -------------------------------------------------------------------
   1    -0.09933 +    0.00237 =   -0.09696
 ===================================================================

 |=====================================================| 
 |     Memory statistics for AO-SOPPA subroutines      |
 |=====================================================| 
 |   Routine                  in Words         in MB   |
 |-----------------------------------------------------| 
 |  START                            0           0.0   |
 |  SO_EXCIT1.1                     47           0.0   |
 |  SO_PRPINT                    13548           0.1   |
 |=====================================================| 

 |=====================================================| 
 |           Timings for AO-SOPPA subroutines          |
 |=====================================================| 
 |   Routine            cpu time   of total        sum |
 |-----------------------------------------------------| 
 |   SO_SIGAI            0:00:00     66.7 %     66.7 % |
 |   SO_RES_A            0:00:00     33.3 %    100.0 % |
 |-----------------------------------------------------| 
 |  Total CPU time       0:00:00                       |
 |=====================================================| 

 |-----------------------------------------------------| 
 |   SO_READ             0: 0: 0      0.0 %            |
 |   SO_WRITE            0: 0: 0      0.0 %            |
 |   SO_OPEN             0: 0: 0      0.0 %            |
 |   SO_CLOSE            0: 0: 0      0.0 %            |
 |-----------------------------------------------------| 

 |=====================================================| 
 |        Wall timings for AO-SOPPA subroutines        |
 |=====================================================| 
 |   Routine           wall time   of total       sum  |
 |-----------------------------------------------------| 
 |   SO_ERES             0:00:00     50.0 %     50.0 % |
 |   SO_SRES             0:00:00      0.0 %     50.0 % |
 |   SO_REDEV            0:00:00      0.0 %     50.0 % |
 |   SO_TRIAL2           0:00:00      0.0 %     50.0 % |
 |-----------------------------------------------------| 
 |   Total wall time     0: 0: 0                       |
 |=====================================================| 


   ***************************************************************************
   ************************ FINAL RESULTS from ABACUS ************************
   ***************************************************************************


 
     Date and time (Linux)  : Tue Dec  6 15:23:40 2016
     Host name              : sunray                                  


                             Molecular geometry (au)
                             -----------------------

 O          0.0000000000            0.0000000000            0.1241444240
 H   _1     0.0000000000            1.4315300000           -0.9852655760
 H   _2     0.0000000000           -1.4315300000           -0.9852655760





                        Molecular wave function and energy
                        ----------------------------------

     Spatial symmetry   1 ( A1  )
     Spin multiplicity  1
     2 * M_S            0
     State number       1
     Total charge       0

     Total energy        -72.7390123807 au (Hartrees)
                         -1979.32921294 eV
                           -190976.2476 kJ/mol
                            -45644.4186 kcal/mol


 ======================================================================
                               RPA results:
 ----------------------------------------------------------------------


@               Singlet electronic excitation energies
                --------------------------------------

               ========================================
                 Sym.   Mode   Frequency    Frequency
                ex. st.  No.      (au)         (eV)
               ----------------------------------------
                   1      1     0.626764    17.055104
                   1      2     1.076933    29.304834
                   1      3     1.467336    39.928251
                   1      4    19.491661   530.395075
               ----------------------------------------
                   2      1     0.482279    13.123478
               ----------------------------------------
                   3      1     0.721350    19.628924
                   3      2     0.829809    22.580249
                   3      3     1.529137    41.609932
                   3      4    19.547107   531.903830
               ----------------------------------------
                   4      1     0.562954    15.318752
               ========================================


@               Electric transition dipole moments (au)
                ---------------------------------------

@        Mode    Frequency       Velocity/Frequency              Length
@         No.      (au)          x       y       z         x       y       z
@==============================================================================
@  Symmetry of excited state: 1  ( A1 )
@           1     0.626764     0.0000  0.0000 -0.6680    0.0000  0.0000 -0.4271
@           2     1.076933     0.0000  0.0000  0.6162    0.0000  0.0000  0.9007
@           3     1.467336     0.0000  0.0000  0.2055    0.0000  0.0000  0.2253
@           4    19.491661     0.0000  0.0000  0.0442    0.0000  0.0000  0.0725
@------------------------------------------------------------------------------
@  Symmetry of excited state: 2  ( B1 )
@           1     0.482279     0.3433  0.0000  0.0000   -0.1088  0.0000  0.0000
@------------------------------------------------------------------------------
@  Symmetry of excited state: 3  ( B2 )
@           1     0.721350     0.0000 -0.2702  0.0000    0.0000 -0.3689  0.0000
@           2     0.829809     0.0000  1.1052  0.0000    0.0000  1.4167  0.0000
@           3     1.529137     0.0000 -0.1079  0.0000    0.0000 -0.1274  0.0000
@           4    19.547107     0.0000 -0.0576  0.0000    0.0000 -0.0901  0.0000
@------------------------------------------------------------------------------
@  Symmetry of excited state: 4  ( A2 )
@           1     0.562954     0.0000  0.0000  0.0000    0.0000  0.0000  0.0000
@------------------------------------------------------------------------------


@               Magnetic transition dipole moments (au)
                ---------------------------------------

  ( mu_B*<0|l_i|n>, where mu_B = 0.5 is the Bohr magneton)

 Symm.  Mode   Frequency         Conventional                  London
 ex.st.  No.     (eV)        x        y       z         x        y        z
 ==============================================================================
   1      1    17.0551   -0.00000 -0.00000 -0.00000  -0.00000 -0.00000 -0.00000
   1      2    29.3048   -0.00000 -0.00000 -0.00000  -0.00000 -0.00000 -0.00000
   1      3    39.9283   -0.00000 -0.00000 -0.00000  -0.00000 -0.00000 -0.00000
   1      4   530.3951   -0.00000 -0.00000 -0.00000  -0.00000 -0.00000 -0.00000
 ------------------------------------------------------------------------------
   2      1    13.1235   -0.00000 -0.27370 -0.00000  -0.00000 -0.00000 -0.00000
 ------------------------------------------------------------------------------
   3      1    19.6289    0.36872 -0.00000 -0.00000  -0.00000 -0.00000 -0.00000
   3      2    22.5802    0.00396 -0.00000 -0.00000  -0.00000 -0.00000 -0.00000
   3      3    41.6099    0.06759 -0.00000 -0.00000  -0.00000 -0.00000 -0.00000
   3      4   531.9038    0.06880 -0.00000 -0.00000  -0.00000 -0.00000 -0.00000
 ------------------------------------------------------------------------------
   4      1    15.3188   -0.00000 -0.00000 -0.35455  -0.00000 -0.00000 -0.00000
 ------------------------------------------------------------------------------


@                  Oscillator and Scalar Rotational Strengths
                   ------------------------------------------

@   Units: 10**(-40) (esu**2)*(cm**2) (rotational strength)
@          dimensionless              (oscillator strength)

@ Symm.  Mode   Frequency    Oscillator-strength      Rotational-strength   
@ ex.st.  No.     (eV)        velocity  length     velocity  length   London
@ ==========================================================================
@  1      1    17.0551        0.1865   0.0762      -0.000   -0.000   -0.000
@  1      2    29.3048        0.2726   0.5824      -0.000   -0.000   -0.000
@  1      3    39.9283        0.0413   0.0496      -0.000   -0.000   -0.000
@  1      4   530.3951        0.0254   0.0683      -0.000   -0.000   -0.000
@ --------------------------------------------------------------------------
@  2      1    13.1235        0.0379   0.0038      -0.000   -0.000   -0.000
@ --------------------------------------------------------------------------
@  3      1    19.6289        0.0351   0.0654      -0.000   -0.000   -0.000
@  3      2    22.5802        0.6757   1.1103      -0.000   -0.000   -0.000
@  3      3    41.6099        0.0119   0.0165      -0.000   -0.000   -0.000
@  3      4   531.9038        0.0432   0.1058      -0.000   -0.000   -0.000
@ --------------------------------------------------------------------------
@  4      1    15.3188        0.0000   0.0000      -0.000   -0.000   -0.000
@ --------------------------------------------------------------------------


          Extent of molecular orbitals (au)
          ---------------------------------

  Sym.  MO.   <X**2>    <Y**2>    <Z**2>    <R**2>
  ------------------------------------------------
    1    1     0.019     0.019     0.034     0.071
    1    2     0.544     0.797     0.664     2.006
    1    3     0.389     0.731     1.209     2.329
    2    1     0.895     0.298     0.314     1.507
    3    1     0.438     1.951     0.816     3.205

    1    1     0.585     2.380     1.594     4.559
    3    1     0.422     2.288     1.236     3.946


                                   Ground state (au)
                         <X**2>    <Y**2>    <Z**2>    <R**2>
                         ------------------------------------
                          4.570     7.592     6.073    18.236


       Change in <R**2> from ground to excited state (au)
       --------------------------------------------------

  Sym. State Freq. (eV)  <X**2>    <Y**2>    <Z**2>    <R**2>
  -----------------------------------------------------------
    1    1    17.0551     0.187     1.629     0.408     2.225
    1    2    29.3048    -0.005     0.442     0.443     0.880
    1    3    39.9283     0.040     1.529     0.898     2.468
    1    4   530.3951     0.566     2.361     1.560     4.488
    2    1    13.1235    -0.311     2.089     1.285     3.063
    3    1    19.6289     0.053     1.366     0.156     1.574
    3    2    22.5802     0.127     0.617     0.643     1.387
    3    3    41.6099    -0.122     1.506     0.581     1.965
    3    4   531.9038     0.403     2.269     1.202     3.874
    4    1    15.3188    -0.474     1.992     0.923     2.441


 ======================================================================
                               RPA(D) results:
 ----------------------------------------------------------------------


@               Singlet electronic excitation energies
                --------------------------------------

               ========================================
                 Sym.   Mode   Frequency    Frequency
                ex. st.  No.      (au)         (eV)
               ----------------------------------------
                   1      1     0.618785    16.838001
                   1      2     1.084684    29.515765
                   1      3     1.445699    39.339458
                   1      4    19.389072   527.603479
               ----------------------------------------
                   2      1     0.470582    12.805193
               ----------------------------------------
                   3      1     0.724933    19.726442
                   3      2     0.841857    22.908093
                   3      3     1.504278    40.933481
                   3      4    19.470405   529.816663
               ----------------------------------------
                   4      1     0.560553    15.253425
               ========================================


@               Electric transition dipole moments (au)
                ---------------------------------------

@        Mode    Frequency       Velocity/Frequency              Length
@         No.      (au)          x       y       z         x       y       z
@==============================================================================
@  Symmetry of excited state: 1  ( A1 )
@           1     0.618785     0.0000  0.0000 -0.6745    0.0000  0.0000 -0.4378
@           2     1.084684     0.0000  0.0000  0.6063    0.0000  0.0000  0.8987
@           3     1.445699     0.0000  0.0000  0.2002    0.0000  0.0000  0.2127
@           4    19.389072     0.0000  0.0000  0.0452    0.0000  0.0000  0.0736
@------------------------------------------------------------------------------
@  Symmetry of excited state: 2  ( B1 )
@           1     0.470582     0.3487  0.0000  0.0000   -0.1093  0.0000  0.0000
@------------------------------------------------------------------------------
@  Symmetry of excited state: 3  ( B2 )
@           1     0.724933     0.0000 -0.2705  0.0000    0.0000 -0.3771  0.0000
@           2     0.841857     0.0000  1.0772  0.0000    0.0000  1.4117  0.0000
@           3     1.504278     0.0000 -0.1048  0.0000    0.0000 -0.1116  0.0000
@           4    19.470405     0.0000 -0.0581  0.0000    0.0000 -0.0905  0.0000
@------------------------------------------------------------------------------
@  Symmetry of excited state: 4  ( A2 )
@           1     0.560553     0.0000  0.0000  0.0000    0.0000  0.0000  0.0000
@------------------------------------------------------------------------------


@               Magnetic transition dipole moments (au)
                ---------------------------------------

  ( mu_B*<0|l_i|n>, where mu_B = 0.5 is the Bohr magneton)

 Symm.  Mode   Frequency         Conventional                  London
 ex.st.  No.     (eV)        x        y       z         x        y        z
 ==============================================================================
   1      1    16.8380   -0.00000 -0.00000 -0.00000  -0.00000 -0.00000 -0.00000
   1      2    29.5158   -0.00000 -0.00000 -0.00000  -0.00000 -0.00000 -0.00000
   1      3    39.3395   -0.00000 -0.00000 -0.00000  -0.00000 -0.00000 -0.00000
   1      4   527.6035   -0.00000 -0.00000 -0.00000  -0.00000 -0.00000 -0.00000
 ------------------------------------------------------------------------------
   2      1    12.8052   -0.00000 -0.27986 -0.00000  -0.00000 -0.00000 -0.00000
 ------------------------------------------------------------------------------
   3      1    19.7264    0.36940 -0.00000 -0.00000  -0.00000 -0.00000 -0.00000
   3      2    22.9081    0.00677 -0.00000 -0.00000  -0.00000 -0.00000 -0.00000
   3      3    40.9335    0.06592 -0.00000 -0.00000  -0.00000 -0.00000 -0.00000
   3      4   529.8167    0.06908 -0.00000 -0.00000  -0.00000 -0.00000 -0.00000
 ------------------------------------------------------------------------------
   4      1    15.2534   -0.00000 -0.00000 -0.35674  -0.00000 -0.00000 -0.00000
 ------------------------------------------------------------------------------


@                  Oscillator and Scalar Rotational Strengths
                   ------------------------------------------

@   Units: 10**(-40) (esu**2)*(cm**2) (rotational strength)
@          dimensionless              (oscillator strength)

@ Symm.  Mode   Frequency    Oscillator-strength      Rotational-strength   
@ ex.st.  No.     (eV)        velocity  length     velocity  length   London
@ ==========================================================================
@  1      1    16.8380        0.1877   0.0791      -0.000   -0.000   -0.000
@  1      2    29.5158        0.2658   0.5840      -0.000   -0.000   -0.000
@  1      3    39.3395        0.0386   0.0436      -0.000   -0.000   -0.000
@  1      4   527.6035        0.0264   0.0700      -0.000   -0.000   -0.000
@ --------------------------------------------------------------------------
@  2      1    12.8052        0.0381   0.0037      -0.000   -0.000   -0.000
@ --------------------------------------------------------------------------
@  3      1    19.7264        0.0354   0.0687      -0.000   -0.000   -0.000
@  3      2    22.9081        0.6512   1.1185      -0.000   -0.000   -0.000
@  3      3    40.9335        0.0110   0.0125      -0.000   -0.000   -0.000
@  3      4   529.8167        0.0438   0.1063      -0.000   -0.000   -0.000
@ --------------------------------------------------------------------------
@  4      1    15.2534        0.0000   0.0000      -0.000   -0.000   -0.000
@ --------------------------------------------------------------------------


   Interatomic separations (in Angstrom):
   --------------------------------------

            O           H   _1      H   _2
            ------      ------      ------
 O     :    0.000000
 H   _1:    0.958391    0.000000
 H   _2:    0.958391    1.515066    0.000000


  Max    interatomic separation is    1.5151 Angstrom (    2.8631 Bohr)
  between atoms    3 and    2, "H   _2" and "H   _1".

  Min HX interatomic separation is    0.9584 Angstrom (    1.8111 Bohr)


  Bond distances (Angstrom):
  --------------------------

                  atom 1     atom 2       distance
                  ------     ------       --------
  bond distance:  H   _1     O            0.958391
  bond distance:  H   _2     O            0.958391


  Bond angles (degrees):
  ----------------------

                  atom 1     atom 2     atom 3         angle
                  ------     ------     ------         -----
  bond angle:     H   _1     O          H   _2       104.450




 CPU time statistics for ABACUS
 ------------------------------




  Total CPU  time used in ABACUS:   0.02 seconds
  Total wall time used in ABACUS:   0.02 seconds


                   .-------------------------------------------.
                   | End of Static Property Section (ABACUS) - |
                   `-------------------------------------------'

  Total CPU  time used in DALTON:   0.03 seconds
  Total wall time used in DALTON:   0.03 seconds

 
     Date and time (Linux)  : Tue Dec  6 15:23:40 2016
     Host name              : sunray                                  
