

     ************************************************************************
     *************** Dalton - An Electronic Structure Program ***************
     ************************************************************************

    This is output from DALTON 2016.alpha
   ----------------------------------------------------------------------------
    NOTE:
     
    Dalton is an experimental code for the evaluation of molecular
    properties using (MC)SCF, DFT, CI, and CC wave functions.
    The authors accept no responsibility for the performance of
    the code or for the correctness of the results.
     
    The code (in whole or part) is provided under a licence and
    is not to be reproduced for further distribution without
    the written permission of the authors or their representatives.
     
    See the home page "http://daltonprogram.org" for further information.
     
    If results obtained with this code are published,
    the appropriate citations would be both of:
     
       K. Aidas, C. Angeli, K. L. Bak, V. Bakken, R. Bast,
       L. Boman, O. Christiansen, R. Cimiraglia, S. Coriani,
       J. Cukras, P. Dahle, E. K. Dalskov, U. Ekstroem,
       T. Enevoldsen, J. J. Eriksen, P. Ettenhuber, B. Fernandez,
       L. Ferrighi, H. Fliegl, L. Frediani, K. Hald, A. Halkier,
       C. Haettig, H. Heiberg, T. Helgaker, A. C. Hennum,
       H. Hettema, E. Hjertenaes, S. Hoest, I.-M. Hoeyvik,
       M. F. Iozzi, B. Jansik, H. J. Aa. Jensen, D. Jonsson,
       P. Joergensen, M. Kaminski, J. Kauczor, S. Kirpekar,
       T. Kjaergaard, W. Klopper, S. Knecht, R. Kobayashi, H. Koch,
       J. Kongsted, A. Krapp, K. Kristensen, A. Ligabue,
       O. B. Lutnaes, J. I. Melo, K. V. Mikkelsen, R. H. Myhre,
       C. Neiss, C. B. Nielsen, P. Norman, J. Olsen,
       J. M. H. Olsen, A. Osted, M. J. Packer, F. Pawlowski,
       T. B. Pedersen, P. F. Provasi, S. Reine, Z. Rinkevicius,
       T. A. Ruden, K. Ruud, V. Rybkin, P. Salek, C. C. M. Samson,
       A. Sanchez de Meras, T. Saue, S. P. A. Sauer,
       B. Schimmelpfennig, K. Sneskov, A. H. Steindal,
       K. O. Sylvester-Hvid, P. R. Taylor, A. M. Teale,
       E. I. Tellgren, D. P. Tew, A. J. Thorvaldsen, L. Thoegersen,
       O. Vahtras, M. A. Watson, D. J. D. Wilson, M. Ziolkowski
       and H. Agren,
       "The Dalton quantum chemistry program system",
       WIREs Comput. Mol. Sci. 2013. (doi: 10.1002/wcms.1172)
    
    and
    
       Dalton, a Molecular Electronic Structure Program,
       Release Dalton2016.0 (2015), see http://daltonprogram.org
   ----------------------------------------------------------------------------

    Authors in alphabetical order (major contribution(s) in parenthesis):

  Kestutis Aidas,           Vilnius University,           Lithuania   (QM/MM)
  Celestino Angeli,         University of Ferrara,        Italy       (NEVPT2)
  Keld L. Bak,              UNI-C,                        Denmark     (AOSOPPA, non-adiabatic coupling, magnetic properties)
  Vebjoern Bakken,          University of Oslo,           Norway      (DALTON; geometry optimizer, symmetry detection)
  Radovan Bast,             UiT The Arctic U. of Norway,  Norway      (DALTON installation and execution frameworks)
  Pablo Baudin,             University of Valencia,       Spain       (Cholesky excitation energies)
  Linus Boman,              NTNU,                         Norway      (Cholesky decomposition and subsystems)
  Ove Christiansen,         Aarhus University,            Denmark     (CC module)
  Renzo Cimiraglia,         University of Ferrara,        Italy       (NEVPT2)
  Sonia Coriani,            University of Trieste,        Italy       (CC module, MCD in RESPONS)
  Janusz Cukras,            University of Trieste,        Italy       (MChD in RESPONS)
  Paal Dahle,               University of Oslo,           Norway      (Parallelization)
  Erik K. Dalskov,          UNI-C,                        Denmark     (SOPPA)
  Thomas Enevoldsen,        Univ. of Southern Denmark,    Denmark     (SOPPA)
  Janus J. Eriksen,         Aarhus University,            Denmark     (Polarizable embedding model, TDA)
  Berta Fernandez,          U. of Santiago de Compostela, Spain       (doublet spin, ESR in RESPONS)
  Lara Ferrighi,            Aarhus University,            Denmark     (PCM Cubic response)
  Heike Fliegl,             University of Oslo,           Norway      (CCSD(R12))
  Luca Frediani,            UiT The Arctic U. of Norway,  Norway      (PCM)
  Bin Gao,                  UiT The Arctic U. of Norway,  Norway      (Gen1Int library)
  Christof Haettig,         Ruhr-University Bochum,       Germany     (CC module)
  Kasper Hald,              Aarhus University,            Denmark     (CC module)
  Asger Halkier,            Aarhus University,            Denmark     (CC module)
  Erik D. Hedegaard,        Univ. of Southern Denmark,    Denmark     (Polarizable embedding model, QM/MM)
  Hanne Heiberg,            University of Oslo,           Norway      (geometry analysis, selected one-electron integrals)
  Trygve Helgaker,          University of Oslo,           Norway      (DALTON; ABACUS, ERI, DFT modules, London, and much more)
  Alf Christian Hennum,     University of Oslo,           Norway      (Parity violation)
  Hinne Hettema,            University of Auckland,       New Zealand (quadratic response in RESPONS; SIRIUS supersymmetry)
  Eirik Hjertenaes,         NTNU,                         Norway      (Cholesky decomposition)
  Maria Francesca Iozzi,    University of Oslo,           Norway      (RPA)
  Brano Jansik              Technical Univ. of Ostrava    Czech Rep.  (DFT cubic response)
  Hans Joergen Aa. Jensen,  Univ. of Southern Denmark,    Denmark     (DALTON; SIRIUS, RESPONS, ABACUS modules, London, and much more)
  Dan Jonsson,              UiT The Arctic U. of Norway,  Norway      (cubic response in RESPONS module)
  Poul Joergensen,          Aarhus University,            Denmark     (RESPONS, ABACUS, and CC modules)
  Maciej Kaminski,          University of Warsaw,         Poland      (CPPh in RESPONS)
  Joanna Kauczor,           Linkoeping University,        Sweden      (Complex polarization propagator (CPP) module)
  Sheela Kirpekar,          Univ. of Southern Denmark,    Denmark     (Mass-velocity & Darwin integrals)
  Wim Klopper,              KIT Karlsruhe,                Germany     (R12 code in CC, SIRIUS, and ABACUS modules)
  Stefan Knecht,            ETH Zurich,                   Switzerland (Parallel CI and MCSCF)
  Rika Kobayashi,           Australian National Univ.,    Australia   (DIIS in CC, London in MCSCF)
  Henrik Koch,              NTNU,                         Norway      (CC module, Cholesky decomposition)
  Jacob Kongsted,           Univ. of Southern Denmark,    Denmark     (Polarizable embedding model, QM/MM)
  Andrea Ligabue,           University of Modena,         Italy       (CTOCD, AOSOPPA)
  Nanna H. List             Univ. of Southern Denmark,    Denmark     (Polarizable embedding model)
  Ola B. Lutnaes,           University of Oslo,           Norway      (DFT Hessian)
  Juan I. Melo,             University of Buenos Aires,   Argentina   (LRESC, Relativistic Effects on NMR Shieldings)
  Kurt V. Mikkelsen,        University of Copenhagen,     Denmark     (MC-SCRF and QM/MM)
  Rolf H. Myhre,            NTNU,                         Norway      (Cholesky, subsystems and ECC2)
  Christian Neiss,          Univ. Erlangen-Nuernberg,     Germany     (CCSD(R12))
  Christian B. Nielsen,     University of Copenhagen,     Denmark     (QM/MM)
  Patrick Norman,           Linkoeping University,        Sweden      (Cubic response and complex response in RESPONS)
  Jeppe Olsen,              Aarhus University,            Denmark     (SIRIUS CI/density modules)
  Jogvan Magnus H. Olsen,   Univ. of Southern Denmark,    Denmark     (Polarizable embedding model, QM/MM)
  Anders Osted,             Copenhagen University,        Denmark     (QM/MM)
  Martin J. Packer,         University of Sheffield,      UK          (SOPPA)
  Filip Pawlowski,          Kazimierz Wielki University,  Poland      (CC3)
  Morten N. Pedersen,       Univ. of Southern Denmark,    Denmark     (Polarizable embedding model)
  Thomas B. Pedersen,       University of Oslo,           Norway      (Cholesky decomposition)
  Patricio F. Provasi,      University of Northeastern,   Argentina   (Analysis of coupling constants in localized orbitals)
  Zilvinas Rinkevicius,     KTH Stockholm,                Sweden      (open-shell DFT, ESR)
  Elias Rudberg,            KTH Stockholm,                Sweden      (DFT grid and basis info)
  Torgeir A. Ruden,         University of Oslo,           Norway      (Numerical derivatives in ABACUS)
  Kenneth Ruud,             UiT The Arctic U. of Norway,  Norway      (DALTON; ABACUS magnetic properties and much more)
  Pawel Salek,              KTH Stockholm,                Sweden      (DALTON; DFT code)
  Claire C. M. Samson       University of Karlsruhe       Germany     (Boys localization, r12 integrals in ERI)
  Alfredo Sanchez de Meras, University of Valencia,       Spain       (CC module, Cholesky decomposition)
  Trond Saue,               Paul Sabatier University,     France      (direct Fock matrix construction)
  Stephan P. A. Sauer,      University of Copenhagen,     Denmark     (SOPPA(CCSD), SOPPA prop., AOSOPPA, vibrational g-factors)
  Bernd Schimmelpfennig,    Forschungszentrum Karlsruhe,  Germany     (AMFI module)
  Kristian Sneskov,         Aarhus University,            Denmark     (Polarizable embedding model, QM/MM)
  Arnfinn H. Steindal,      UiT The Arctic U. of Norway,  Norway      (parallel QM/MM, Polarizable embedding model)
  Casper Steinmann,         Univ. of Southern Denmark,    Denmark     (QFIT, Polarizable embedding model)
  K. O. Sylvester-Hvid,     University of Copenhagen,     Denmark     (MC-SCRF)
  Peter R. Taylor,          VLSCI/Univ. of Melbourne,     Australia   (Symmetry handling ABACUS, integral transformation)
  Andrew M. Teale,          University of Nottingham,     England     (DFT-AC, DFT-D)
  David P. Tew,             University of Bristol,        England     (CCSD(R12))
  Olav Vahtras,             KTH Stockholm,                Sweden      (triplet response, spin-orbit, ESR, TDDFT, open-shell DFT)
  David J. Wilson,          La Trobe University,          Australia   (DFT Hessian and DFT magnetizabilities)
  Hans Agren,               KTH Stockholm,                Sweden      (SIRIUS module, RESPONS, MC-SCRF solvation model)
 --------------------------------------------------------------------------------

     Date and time (Linux)  : Mon Dec 21 16:42:08 2015
     Host name              : TESD11                                  

 * Work memory size             :    64000000 =  488.28 megabytes.

 * Directories for basis set searches:
   1) /home/rasmus/source/dalton/build/test/prop_exci_aorpad
   2) /home/rasmus/source/dalton/build/basis


Compilation information
-----------------------

 Who compiled             | rasmus
 Host                     | TESD11
 System                   | Linux-3.2.0-83-generic
 CMake generator          | Unix Makefiles
 Processor                | x86_64
 64-bit integers          | OFF
 MPI                      | OFF
 Fortran compiler         | /usr/bin/gfortran
 Fortran compiler version | GNU Fortran (Ubuntu/Linaro 4.6.3-1ubuntu5) 4.6.3
 C compiler               | /usr/bin/gcc
 C compiler version       | gcc (Ubuntu/Linaro 4.6.3-1ubuntu5) 4.6.3
 C++ compiler             | /usr/bin/g++
 C++ compiler version     | g++ (Ubuntu/Linaro 4.6.3-1ubuntu5) 4.6.3
 Static linking           | OFF
 Last Git revision        | 6a1de9a2f54481b27e6aec811eb41985887e2c5d
 Git branch               | aosoppa_devel
 Configuration time       | 2015-12-21 16:37:38.827811


   Content of the .dal input file
 ----------------------------------

**DALTON INPUT                                    
.RUN PROPERTIES                                   
**WAVE FUNCTIONS                                  
.HF                                               
.CC                                               
*CC INPUT                                         
.MP2                                              
.AO-SOPPA                                         
**PROPERTIES                                      
.SOPPA                                            
.EXCITA                                           
.PRINT                                            
 2                                                
*SOPPA                                            
.AORPA                                            
.DCRPA                                            
*EXCITA                                           
.DIPSTR                                           
.ROTVEL                                           
.NEXCITA                                          
    5    5    5    5    0    0    0    0          
**END OF DALTON INPUT                             


   Content of the .mol file
 ----------------------------

INTGRL                                                                         
Calculation of excitation energies through ABACUS                              
                                                                               
c   2    2  X  Y      0.10D-14                                                 
      8.00    1    3    6    5    1                                            
O   0.00000             0.00000              0.1241444240                      
F  6    1                                                                      
31195.6 0.00021                                                                
4669.38 0.001628                                                               
1062.62 0.00845                                                                
301.426 0.034191                                                               
98.5153 0.110311                                                               
35.4609 .269493                                                                
F  1    1                                                                      
13.6179 .423545                                                                
F  1    1                                                                      
5.38618 .283038                                                                
F  1    1                                                                      
1.53873 .027484                                                                
F  1    1                                                                      
.6055 -.005144                                                                 
F  1    1                                                                      
.22054 .00164                                                                  
F  3    1                                                                      
114.863 .002266                                                                
26.8767 0.017192                                                               
8.32077 0.075341                                                               
F  1    1                                                                      
2.97237 .212775                                                                
F  1    1                                                                      
1.12848 .370478                                                                
F  1    1                                                                      
.4236 .398523                                                                  
F  1    1                                                                      
.15074 .184703                                                                 
F  2    1                                                                      
1.21879 .357851                                                                
.36102 .759561                                                                 
      1.00    1    2    3    1                                                 
H   0.00000             1.43153              -0.985265576                      
F  3    1                                                                      
33.865014 .006068                                                              
5.094788 0.045316                                                              
1.158786 0.202846                                                              
F  1    1                                                                      
0.32584 0.503709                                                               
F  1    1                                                                      
.102741 .383568                                                                
F  1    1                                                                      
1.16 1.0                                                                       


       *******************************************************************
       *********** Output from DALTON general input processing ***********
       *******************************************************************

 --------------------------------------------------------------------------------
   Overall default print level:    0
   Print level for DALTON.STAT:    1

    HERMIT 1- and 2-electron integral sections will be executed
    "Old" integral transformation used (limited to max 255 basis functions)
    Wave function sections will be executed (SIRIUS module)
    Static molecular property section will be executed (ABACUS module)
 --------------------------------------------------------------------------------


   ****************************************************************************
   *************** Output of molecule and basis set information ***************
   ****************************************************************************


    The two title cards from your ".mol" input:
    ------------------------------------------------------------------------
 1: Calculation of excitation energies through ABACUS                       
 2:                                                                         
    ------------------------------------------------------------------------



@ WARNING - deprecated old .mol fixed format input has been detected:
C   2    2  X  Y      0.10D-14                                                  
@ WARNING - this input format may not be supported in future releases.




  Atomic type no.    1
  --------------------
  Nuclear charge:   8.00000
  Number of symmetry independent centers:    1
  Number of basis sets to read;    2

  Atomic type no.    2
  --------------------
  Nuclear charge:   1.00000
  Number of symmetry independent centers:    1
  Number of basis sets to read;    2


                         SYMGRP: Point group information
                         -------------------------------

@    Point group: C2v

@  * The irrep name for each symmetry:    1: A1     2: B1     3: B2     4: A2 

   * The point group was generated by:

      Reflection in the yz-plane
      Reflection in the xz-plane

   * Group multiplication table

        |  E   C2z  Oxz  Oyz
   -----+--------------------
     E  |  E   C2z  Oxz  Oyz
    C2z | C2z   E   Oyz  Oxz
    Oxz | Oxz  Oyz   E   C2z
    Oyz | Oyz  Oxz  C2z   E 

   * Character table

        |  E   C2z  Oxz  Oyz
   -----+--------------------
    A1  |   1    1    1    1
    B1  |   1   -1    1   -1
    B2  |   1   -1   -1    1
    A2  |   1    1   -1   -1

   * Direct product table

        | A1   B1   B2   A2 
   -----+--------------------
    A1  | A1   B1   B2   A2 
    B1  | B1   A1   A2   B2 
    B2  | B2   A2   A1   B1 
    A2  | A2   B2   B1   A1 


                                 Isotopic Masses
                                 ---------------

                           O          15.994915
                           H   _1      1.007825
                           H   _2      1.007825

                       Total mass:    18.010565 amu
                       Natural abundance:  99.730 %

 Center-of-mass coordinates (a.u.):    0.000000    0.000000   -0.000015


  Atoms and basis sets
  --------------------

  Number of atom types :    2
  Total number of atoms:    3

  label    atoms   charge   prim   cont     basis
  ----------------------------------------------------------------------
  O           1    8.0000    44    27      [11s7p2d|6s5p1d]                                   
  H           2    1.0000     8     6      [5s1p|3s1p]                                        
  ----------------------------------------------------------------------
  total:      3   10.0000    60    39
  ----------------------------------------------------------------------
  Cartesian basis used.
  (Note that d, f, ... atomic GTOs are not all normalized.)

  Threshold for neglecting AO integrals:  1.00D-15


  Cartesian Coordinates (a.u.)
  ----------------------------

  Total number of coordinates:    9
  O       :     1  x   0.0000000000    2  y   0.0000000000    3  z   0.1241444240
  H   / 1 :     4  x   0.0000000000    5  y   1.4315300000    6  z  -0.9852655760
  H   / 2 :     7  x   0.0000000000    8  y  -1.4315300000    9  z  -0.9852655760


  Symmetry Coordinates
  --------------------

  Number of coordinates in each symmetry:     3    2    3    1

  Symmetry  A1  ( 1)

    1   O     z    3
    2   H     y    [  5  -    8 ]/2
    3   H     z    [  6  +    9 ]/2

  Symmetry  B1  ( 2)

    4   O     x    1
    5   H     x    [  4  +    7 ]/2

  Symmetry  B2  ( 3)

    6   O     y    2
    7   H     y    [  5  +    8 ]/2
    8   H     z    [  6  -    9 ]/2

  Symmetry  A2  ( 4)

    9   H     x    [  4  -    7 ]/2


   Interatomic separations (in Angstrom):
   --------------------------------------

            O           H   _1      H   _2
            ------      ------      ------
 O     :    0.000000
 H   _1:    0.958391    0.000000
 H   _2:    0.958391    1.515066    0.000000


  Max    interatomic separation is    1.5151 Angstrom (    2.8631 Bohr)
  between atoms    3 and    2, "H   _2" and "H   _1".

  Min HX interatomic separation is    0.9584 Angstrom (    1.8111 Bohr)


  Bond distances (Angstrom):
  --------------------------

                  atom 1     atom 2       distance
                  ------     ------       --------
  bond distance:  H   _1     O            0.958391
  bond distance:  H   _2     O            0.958391


  Bond angles (degrees):
  ----------------------

                  atom 1     atom 2     atom 3         angle
                  ------     ------     ------         -----
  bond angle:     H   _1     O          H   _2       104.450




 Principal moments of inertia (u*A**2) and principal axes
 --------------------------------------------------------

   IA       0.616959          0.000000    1.000000    0.000000
   IB       1.156694          0.000000    0.000000    1.000000
   IC       1.773652          1.000000    0.000000    0.000000


 Rotational constants
 --------------------

@    The molecule is planar.

               A                   B                   C

         819145.5126         436916.9575         284936.9149 MHz
           27.323753           14.573981            9.504472 cm-1


@  Nuclear repulsion energy :    9.183706230245 Hartree


  Symmetry Orbitals
  -----------------

  Number of orbitals in each symmetry:          19    7   11    2


  Symmetry  A1 ( 1)

    1     O        s          1
    2     O        s          2
    3     O        s          3
    4     O        s          4
    5     O        s          5
    6     O        s          6
    7     O        pz         9
    8     O        pz        12
    9     O        pz        15
   10     O        pz        18
   11     O        pz        21
   12     O        dxx       22
   13     O        dyy       25
   14     O        dzz       27
   15     H        s         28 +   29
   16     H        s         30 +   31
   17     H        s         32 +   33
   18     H        py        36 -   37
   19     H        pz        38 +   39


  Symmetry  B1 ( 2)

   20     O        px         7
   21     O        px        10
   22     O        px        13
   23     O        px        16
   24     O        px        19
   25     O        dxz       24
   26     H        px        34 +   35


  Symmetry  B2 ( 3)

   27     O        py         8
   28     O        py        11
   29     O        py        14
   30     O        py        17
   31     O        py        20
   32     O        dyz       26
   33     H        s         28 -   29
   34     H        s         30 -   31
   35     H        s         32 -   33
   36     H        py        36 +   37
   37     H        pz        38 -   39


  Symmetry  A2 ( 4)

   38     O        dxy       23
   39     H        px        34 -   35

  Symmetries of electric field:  B1 (2)  B2 (3)  A1 (1)

  Symmetries of magnetic field:  B2 (3)  B1 (2)  A2 (4)


                     .---------------------------------------.
                     | Starting in Integral Section (HERMIT) |
                     `---------------------------------------'



 ***************************************************************************************
 ****************** Output from **INTEGRALS input processing (HERMIT) ******************
 ***************************************************************************************


 - Using defaults, no **INTEGRALS input found

 Default print level:        1

 * Nuclear model: Point charge

 Calculation of one- and two-electron Hamiltonian integrals.

 Center of mass  (bohr):      0.000000000000      0.000000000000     -0.000015049426
 Operator center (bohr):      0.000000000000      0.000000000000      0.000000000000
 Gauge origin    (bohr):      0.000000000000      0.000000000000      0.000000000000
 Dipole origin   (bohr):      0.000000000000      0.000000000000      0.000000000000


     ************************************************************************
     ************************** Output from HERINT **************************
     ************************************************************************


 Threshold for neglecting two-electron integrals:  1.00D-15
 HERMIT - Number of two-electron integrals written:       75206 ( 24.7% )
 HERMIT - Megabytes written:                              0.866

  Time used in TWOINT     is       0.13 seconds
  Total CPU  time used in HERMIT:   0.14 seconds
  Total wall time used in HERMIT:   0.14 seconds


                        .----------------------------------.
                        | End of Integral Section (HERMIT) |
                        `----------------------------------'



                   .--------------------------------------------.
                   | Starting in Wave Function Section (SIRIUS) |
                   `--------------------------------------------'


 *** Output from Huckel module :

     Using EWMO model:          F
     Using EHT  model:          T
     Number of Huckel orbitals each symmetry:    4    1    2    0

 Huckel EHT eigenvalues for symmetry :  1
          -20.705520      -1.505990      -0.670643      -0.292535

 Huckel EHT eigenvalues for symmetry :  2
           -0.616200

 Huckel EHT eigenvalues for symmetry :  3
           -0.731199      -0.257813

 **********************************************************************
 *SIRIUS* a direct, restricted step, second order MCSCF program       *
 **********************************************************************

 
     Date and time (Linux)  : Mon Dec 21 16:42:08 2015
     Host name              : TESD11                                  

 Title lines from ".mol" input file:
     Calculation of excitation energies through ABACUS                       
                                                                             

 Print level on unit LUPRI =   2 is   0
 Print level on unit LUW4  =   2 is   5

@    (Integral direct) CC calculation.

@    This is a combination run starting with
@              a restricted, closed shell Hartree-Fock calculation


 Initial molecular orbitals are obtained according to
 ".MOSTART EHT   " input option

     Wave function specification
     ============================

     For the specification of the Coupled Cluster: see later.

@    Wave function type        --- CC ---
@    Number of closed shell electrons          10
@    Number of electrons in active shells       0
@    Total charge of the molecule               0

@    Spin multiplicity and 2 M_S                1         0
@    Total number of symmetries                 4 (point group: C2v)
@    Reference state symmetry                   1 (irrep name : A1 )

     Orbital specifications
     ======================
@    Abelian symmetry species          All |    1    2    3    4
@                                          |  A1   B1   B2   A2 
                                       --- |  ---  ---  ---  ---
@    Total number of orbitals           39 |   19    7   11    2
@    Number of basis functions          39 |   19    7   11    2

      ** Automatic occupation of RHF orbitals **

      -- Initial occupation of symmetries is determined from extended Huckel guess.           
      -- Initial occupation of symmetries is :
@    Occupied SCF orbitals               5 |    3    1    1    0

     Maximum number of Fock   iterations      0
     Maximum number of DIIS   iterations     60
     Maximum number of QC-SCF iterations     60
     Threshold for SCF convergence     1.00D-06


 Changes of defaults for CC:
 ---------------------------


 MP2 Amplitudes written for atom integral direct SOPPA calculations
  


 ***********************************************
 ***** DIIS acceleration of SCF iterations *****
 ***********************************************

 C1-DIIS algorithm; max error vectors =    8

 Automatic occupation of symmetries with  10 electrons.

 Iter     Total energy    Error norm  Delta(E)    SCF occupation
 -----------------------------------------------------------------------------
     (Precalculated two-electron integrals are transformed to P-supermatrix elements.
      Threshold for discarding integrals :  1.00D-15 )
@  1  -75.8289971698       2.45D+00  -7.58D+01     3   1   1   0
      Virial theorem: -V/T =      1.995901
@      MULPOP O      -0.57; H   _1  0.28; H   _2  0.28; 
   1  Level shift: doubly occupied orbital energies shifted by -2.00D-01
 -----------------------------------------------------------------------------
@  2  -76.0477191037       4.04D-01  -2.19D-01     3   1   1   0
      Virial theorem: -V/T =      2.001925
@      MULPOP O      -0.76; H   _1  0.38; H   _2  0.38; 
   2  Level shift: doubly occupied orbital energies shifted by -5.00D-02
 -----------------------------------------------------------------------------
@  3  -76.0596167013       1.04D-01  -1.19D-02     3   1   1   0
      Virial theorem: -V/T =      2.001234
@      MULPOP O      -0.81; H   _1  0.40; H   _2  0.40; 
   3  Level shift: doubly occupied orbital energies shifted by -2.50D-02
 -----------------------------------------------------------------------------
@  4  -76.0607459910       1.62D-02  -1.13D-03     3   1   1   0
      Virial theorem: -V/T =      2.000745
@      MULPOP O      -0.83; H   _1  0.41; H   _2  0.41; 
 -----------------------------------------------------------------------------
@  5  -76.0607821294       4.23D-03  -3.61D-05     3   1   1   0
      Virial theorem: -V/T =      2.000842
@      MULPOP O      -0.83; H   _1  0.41; H   _2  0.41; 
 -----------------------------------------------------------------------------
@  6  -76.0607839031       1.99D-03  -1.77D-06     3   1   1   0
      Virial theorem: -V/T =      2.000771
@      MULPOP O      -0.83; H   _1  0.42; H   _2  0.42; 
 -----------------------------------------------------------------------------
@  7  -76.0607842040       3.09D-04  -3.01D-07     3   1   1   0
      Virial theorem: -V/T =      2.000810
@      MULPOP O      -0.83; H   _1  0.42; H   _2  0.42; 
 -----------------------------------------------------------------------------
@  8  -76.0607842184       4.49D-05  -1.44D-08     3   1   1   0
      Virial theorem: -V/T =      2.000809
@      MULPOP O      -0.83; H   _1  0.42; H   _2  0.42; 
 -----------------------------------------------------------------------------
@  9  -76.0607842187       9.49D-06  -2.34D-10     3   1   1   0
      Virial theorem: -V/T =      2.000810
@      MULPOP O      -0.83; H   _1  0.42; H   _2  0.42; 
 -----------------------------------------------------------------------------
@ 10  -76.0607842187       1.81D-06  -1.21D-11     3   1   1   0
      Virial theorem: -V/T =      2.000810
@      MULPOP O      -0.83; H   _1  0.42; H   _2  0.42; 
 -----------------------------------------------------------------------------
@ 11  -76.0607842187       4.60D-07  -7.39D-13     3   1   1   0

@ *** DIIS converged in  11 iterations !
@     Converged SCF energy, gradient:    -76.060784218682    4.60D-07
    - total time used in SIRFCK :              0.00 seconds


 *** SCF orbital energy analysis ***

 Only the 20 lowest virtual orbital energies printed in each symmetry.

 Number of electrons :   10
 Orbital occupations :    3    1    1    0

 Sym       Hartree-Fock orbital energies

1 A1    -20.56238099    -1.35070292    -0.58322552     0.13488236     0.46314710
          0.61795220     0.96390625     1.24752064     1.69113077     2.01359248
          2.63200618     3.49717243     3.65989625     4.20360190     6.56227717
          7.19443823    20.57248744    23.27802619    94.32736808

2 B1     -0.50745990     0.47365390     1.30684668     2.03588081     3.06713277
          6.59507911    23.12059735

3 B2     -0.71596732     0.19111002     0.50061393     0.67340606     1.74928910
          2.12363466     2.66276194     3.17158895     4.26606044     6.89290269
         23.35853257

4 A2      1.26154317     2.98152149

    E(LUMO) :     0.13488236 au (symmetry 1)
  - E(HOMO) :    -0.50745990 au (symmetry 2)
  ------------------------------------------
    gap     :     0.64234226 au

 --- Writing SIRIFC interface file

 CPU and wall time for SCF :       0.012       0.014


                       .-----------------------------------.
                       | --- Final results from SIRIUS --- |
                       `-----------------------------------'


@    Spin multiplicity:           1
@    Spatial symmetry:            1 ( irrep  A1  in C2v )
@    Total charge of molecule:    0

@    Final HF energy:             -76.060784218682                 
@    Nuclear repulsion:             9.183706230245
@    Electronic energy:           -85.244490448927

@    Final gradient norm:           0.000000459675

 
     Date and time (Linux)  : Mon Dec 21 16:42:08 2015
     Host name              : TESD11                                  


 INFO: Sorry, plot of MOs with Molden is only implemented for spherical GTOs

File label for MO orbitals:  21Dec15   FOCKDIIS

 (Only coefficients >0.0100 are printed.)

 Molecular orbitals for symmetry species 1  (A1 )
 ------------------------------------------------

    Orbital         1        2        3        4        5        6        7
   1 O   :s      0.3905  -0.0859  -0.0284   0.0258   0.0135  -0.0243  -0.0527
   2 O   :s      0.4237  -0.1378  -0.0459   0.0378   0.0306  -0.0418  -0.1024
   3 O   :s      0.2819  -0.1215  -0.0431   0.0497  -0.0041  -0.0322  -0.0455
   4 O   :s      0.0265   0.2173   0.0651  -0.2180  -0.2033  -0.0920  -0.7995
   5 O   :s      0.0055  -0.5023  -0.2007  -0.1581  -0.0657  -0.4170  -2.7662
   6 O   :s      0.0155   0.1756   0.2265  -0.9082  -0.1321   1.2037  -2.0988
   7 O   :pz    -0.0012  -0.0103   0.0721   0.0191  -0.0321  -0.0358  -0.0099
   8 O   :pz    -0.0004  -0.0234   0.1696   0.0449  -0.1369  -0.1136   0.0050
   9 O   :pz    -0.0002  -0.0499   0.2999   0.0858   0.0069  -0.0686  -0.1231
  10 O   :pz     0.0004  -0.0487   0.3172   0.0693  -0.7063  -0.7586   0.1956
  11 O   :pz    -0.0006  -0.0078   0.1975   0.2876   1.6736  -0.2159   0.6462
  12 O   :dxx   -0.0029   0.0146   0.0070  -0.0620  -0.1443  -0.0762  -0.4781
  13 O   :dyy   -0.0030   0.0263   0.0015  -0.0507  -0.1683  -0.0954  -0.3585
  14 O   :dzz   -0.0030   0.0251  -0.0304  -0.0614  -0.1732  -0.0406  -0.4599
  15 H   :s      0.0003   0.0918  -0.0879   0.0285  -0.0105  -0.0786  -0.0035
  16 H   :s      0.0001   0.0539  -0.1102  -0.0295   0.5540  -1.6009   0.5652
  17 H   :s     -0.0008   0.0066  -0.0189   0.9445   0.1271   0.5950   0.6123
  18 H   :py    -0.0001  -0.0144   0.0141   0.0199  -0.0037   0.0211  -0.0016
  19 H   :pz     0.0000   0.0099   0.0025  -0.0117   0.0068  -0.0216   0.0157

    Orbital         8        9       10       11       12       13
   1 O   :s      0.0047  -0.0171   0.0046  -0.0281  -0.0020   0.0912
   2 O   :s      0.0067  -0.0145   0.0222  -0.0270  -0.0115   0.2204
   3 O   :s      0.0113  -0.0713  -0.0376  -0.1082   0.0213  -0.0481
   4 O   :s      0.1225  -0.3010  -0.8015   0.6807  -0.1638  -5.6649
   5 O   :s      0.3122  -0.9036  -0.6756   0.9619  -0.3907  -4.1119
   6 O   :s      0.2539  -1.5286   3.2439  -0.2230   0.2048  13.1395
   7 O   :pz    -0.0126   0.0276   0.1202   0.0351  -0.0216  -0.0034
   8 O   :pz    -0.0246   0.0120   0.0773  -0.0702   0.0148  -0.0155
   9 O   :pz    -0.0712   0.2360   1.2486   0.5817  -0.3253  -0.0162
  10 O   :pz    -0.0172   0.0949  -2.3112  -0.8385   0.4675   0.3803
  11 O   :pz    -0.2407   1.0674   0.3849   0.4402  -0.1067   0.0290
  12 O   :dxx    0.2638   0.3573  -0.7613  -0.0814  -0.0447  -3.5738
  13 O   :dyy    0.4225  -0.8437  -0.3715   0.3493   0.4714  -3.6561
  14 O   :dzz   -0.4223  -0.4831  -0.5750   0.1066  -0.4376  -3.6819
  15 H   :s      0.0245  -0.1796   0.2629  -1.0162   0.0494  -0.2883
  16 H   :s     -0.2971   1.9104  -1.3825   0.9737  -0.3155   0.8020
  17 H   :s     -0.0165  -0.1029   0.2815  -0.2882   0.0324  -0.3363
  18 H   :py     0.0643  -0.0712   0.1309  -0.1610  -0.3415  -0.1988
  19 H   :pz     0.0879  -0.0001  -0.1107   0.0381  -0.8623   0.0580

 Molecular orbitals for symmetry species 2  (B1 )
 ------------------------------------------------

    Orbital         1        2        3        4        5        6        7
   1 O   :px     0.0819  -0.0403   0.0108  -0.1313   0.0141   0.1217   1.5399
   2 O   :px     0.1941  -0.1683   0.0187  -0.0592  -0.0257   1.6013  -2.0382
   3 O   :px     0.3396  -0.0020   0.0667  -1.3510   0.3082  -2.3944   1.4609
   4 O   :px     0.3822  -0.8903  -0.0370   2.0398  -0.7722   1.4421  -0.7019
   5 O   :px     0.2591   1.3740   0.0656  -0.8684   0.0825  -0.4459   0.2130
   6 O   :dxz   -0.0383  -0.0021   0.9472   0.0925   0.5456  -0.0083   0.0025
   7 H   :px     0.0183   0.0056  -0.0833   0.0549   0.8327  -0.0113   0.0044

 Molecular orbitals for symmetry species 3  (B2 )
 ------------------------------------------------

    Orbital         1        2        3        4        5        6        7
   1 O   :py     0.0653  -0.0306   0.0081  -0.0562  -0.0104   0.1221  -0.0103
   2 O   :py     0.1529  -0.0600  -0.0127  -0.1975   0.0405   0.0827   0.0059
   3 O   :py     0.2746  -0.1667   0.0964  -0.0661  -0.1524   1.3118  -0.1680
   4 O   :py     0.2860   0.0539  -0.0558  -1.2727  -0.3338  -2.7315   0.3863
   5 O   :py     0.1253  -0.9468   1.9322   1.8395  -1.3313   1.2963  -0.1686
   6 O   :dyz   -0.0554  -0.0253  -0.0628   0.0252   1.3378   0.2320   0.3824
   7 H   :s      0.1438   0.0176  -0.0539   0.0836  -0.3943  -0.2494   0.1431
   8 H   :s      0.1473  -0.1648  -1.1763   0.8659   2.1172   1.2338  -0.0498
   9 H   :s      0.0368   2.0991  -0.4183  -1.9482  -0.1311  -1.1970   0.1506
  10 H   :py    -0.0096   0.0204   0.0307  -0.0153  -0.0445  -0.1808  -0.4615
  11 H   :pz     0.0163  -0.0225  -0.0098   0.0090   0.1201   0.0658  -0.5722

    Orbital         8        9       10       11
   1 O   :py     0.0541   0.0372   0.1201   1.5515
   2 O   :py    -0.0647   0.1597   1.6501  -2.1181
   3 O   :py     0.7951  -0.2746  -2.6103   1.6274
   4 O   :py    -0.9576   2.8181   1.2723  -0.7636
   5 O   :py     0.2767   0.2531  -0.8272   0.3994
   6 O   :dyz    0.5781  -1.8478   0.3032  -0.0740
   7 H   :s      0.9279  -0.7307   0.1517  -0.0444
   8 H   :s     -0.6677  -2.1365   0.1993  -0.0076
   9 H   :s      0.1823   0.4026   0.4000  -0.2168
  10 H   :py     0.3953   0.8963  -0.2566   0.0784
  11 H   :pz    -0.1816  -0.8537   0.2111  -0.0610

 Molecular orbitals for symmetry species 4  (A2 )
 ------------------------------------------------

    Orbital         1        2
   1 O   :dxy    0.9129   0.7003
   2 H   :px     0.1116  -0.8095

  Total CPU  time used in SIRIUS :   0.23 seconds
  Total wall time used in SIRIUS :   0.23 seconds

 
     Date and time (Linux)  : Mon Dec 21 16:42:08 2015
     Host name              : TESD11                                  

 NOTE:    1 informational messages have been issued.
 Check output, result, and error files for "INFO".

 NOTE:    1 warnings have been issued.
 Check output, result, and error files for "WARNING".


                     .---------------------------------------.
                     | End of Wave Function Section (SIRIUS) |
                     `---------------------------------------'



                    .------------------------------------------.
                    | Starting in Coupled Cluster Section (CC) |
                    `------------------------------------------'

  

 *******************************************************************************
 *******************************************************************************
 *                                                                             *
 *                                                                             *
 *                    START OF COUPLED CLUSTER CALCULATION                     *
 *                                                                             *
 *                                                                             *
 *******************************************************************************
 *******************************************************************************



 CCR12 ANSATZ =   0

 CCR12 APPROX =   0

   

 *******************************************************************
 *                                                                 *
 *----------                                             >---------*
 *---------- OUTPUT FROM COUPLED CLUSTER ENERGY PROGRAM  >---------*
 *----------                                             >---------*
 *                                                                 *
 *******************************************************************


             The Direct Coupled Cluster Energy Program
             -----------------------------------------


          Number of t1 amplitudes                 :        64
          Number of t2 amplitudes                 :      4175
          Total number of amplitudes in ccsd      :      4239

 Iter.  1: Coupled cluster MP2   energy :     -76.3109682858376601





             +-------------------------------------------------------+
             ! Final results from the Coupled Cluster energy program !
             +-------------------------------------------------------+



            Total SCF   energy:                   -76.0607842187

            Total MP2   energy:                   -76.3109682858

  

 *******************************************************************************
 *******************************************************************************
 *                                                                             *
 *                                                                             *
 *                   SUMMARY OF COUPLED CLUSTER CALCULATION                    *
 *                                                                             *
 *                                                                             *
 *******************************************************************************
 *******************************************************************************

                                                                                
                                                                                
            Total SCF   energy:                   -76.0607842187                
            Total MP2   energy:                   -76.3109682858                
  

 *******************************************************************************
 *******************************************************************************
 *                                                                             *
 *                                                                             *
 *                      END OF COUPLED CLUSTER CALCULATION                     *
 *                                                                             *
 *                                                                             *
 *******************************************************************************
 *******************************************************************************


 CPU and wall time for CC :       0.012       0.012

 
     Date and time (Linux)  : Mon Dec 21 16:42:08 2015
     Host name              : TESD11                                  


                      .-------------------------------------.
                      | End of Coupled Cluster Section (CC) |
                      `-------------------------------------'



        *****************************************************************
        ******** Output from **PROPE input processing for ABACUS ********
        *****************************************************************



      SOPPA : Second Order Polarization Propagator Approximation



 The following molecular properties will be calculated in this run:
 ------------------------------------------------------------------

 Default print level:        2

      Electronic excitation energies 
      No mass-velocity energy correction calculated
      No Darwin energy correction calculated
      Natural orbital connection is used
      for perturbation dependent basis sets.


 Changes of defaults in SOPPA:
 -----------------------------

 AO integral driven RPA
 AO integral driven Double corrected RPA :
    (Ref.: O. Christiansen, K. L. Bak, H. Koch and S. P. A. Sauer
     Chem. Phys. Lett. 284, 47-62 (1998))


 Changes of defaults for .EXCITA:
 --------------------------------

 Number of excitation energies:    5    5    5    5
 Print level          :    2
 Integral print level :    2
 Convergence threshold: 1.00E-04
 Maximum iterations   :   60
 Conventional rotational strength
 Dipole strength


                                 Isotopic Masses
                                 ---------------

                           O          15.994915
                           H   _1      1.007825
                           H   _2      1.007825

                       Total mass:    18.010565 amu
                       Natural abundance:  99.730 %

 Center-of-mass coordinates (a.u.):    0.000000    0.000000   -0.000015

 Center of mass dipole origin  :    0.000000    0.000000   -0.000015

 Center of mass gauge origin   :    0.000000    0.000000   -0.000015


                 .------------------------------------------------.
                 | Starting in Static Property Section (ABACUS) - |
                 `------------------------------------------------'


 
     Date and time (Linux)  : Mon Dec 21 16:42:08 2015
     Host name              : TESD11                                  


                            **************************
                            *** Output from TROINV ***
                            **************************



  Translational and rotational coordinates
  ----------------------------------------


  Symmetry  1

        Translation along Z axis

  Symmetry  2

        Translation along X axis
        Rotation around Y axis

  Symmetry  3

        Translation along Y axis
        Rotation around X axis

  Symmetry  4

        Rotation around Z axis


                  **********************************************
                  *** ABACUS - Excitation energies (.EXCITA) ***
                  **********************************************


 Maximum number of trial vectors for each excitation is  3


  ******************************************************************
                RPA iterations, Excitation symmetry 1
  ******************************************************************


  ==================================================================
                  1. RPA iteration, Excitation symmetry 1
  ==================================================================

            --------------------------------------------------
            Excitation   Energy (au)     Residual    Converged
            --------------------------------------------------
                 1       0.43386667     1.1505D-01       no
                 2       0.63291921     1.2162D-01       no
                 3       0.66739369     1.2928D-01       no
                 4       0.80367702     1.8537D-01       no
                 5       0.89580542     3.9241D-01       no
            --------------------------------------------------

  ==================================================================
                  2. RPA iteration, Excitation symmetry 1
  ==================================================================

            --------------------------------------------------
            Excitation   Energy (au)     Residual    Converged
            --------------------------------------------------
                 1       0.42388470     1.5067D-02       no
                 2       0.61224366     2.8986D-02       no
                 3       0.65690798     2.1882D-02       no
                 4       0.78146370     4.2392D-02       no
                 5       0.83976293     4.8964D-02       no
            --------------------------------------------------

  ==================================================================
                  3. RPA iteration, Excitation symmetry 1
  ==================================================================

            --------------------------------------------------
            Excitation   Energy (au)     Residual    Converged
            --------------------------------------------------
                 1       0.42380667     1.7290D-03       no
                 2       0.61179812     6.1788D-03       no
                 3       0.65675916     5.2011D-03       no
                 4       0.78083336     8.2276D-03       no
                 5       0.83891480     9.7696D-03       no
            --------------------------------------------------

  ==================================================================
                  4. RPA iteration, Excitation symmetry 1
  ==================================================================

            --------------------------------------------------
            Excitation   Energy (au)     Residual    Converged
            --------------------------------------------------
                 1       0.42380591     2.6160D-04       no
                 2       0.61178352     6.5425D-04       no
                 3       0.65675077     6.2976D-04       no
                 4       0.78081922     1.1363D-03       no
                 5       0.83882695     4.0723D-03       no
            --------------------------------------------------

  ==================================================================
                  5. RPA iteration, Excitation symmetry 1
  ==================================================================

            --------------------------------------------------
            Excitation   Energy (au)     Residual    Converged
            --------------------------------------------------
                 1       0.42380590     1.9841D-05      yes
                 2       0.61178343     9.5614D-05      yes
                 3       0.65675071     6.7696D-05      yes
                 4       0.78081899     1.8756D-04       no
                 5       0.83882106     6.7151D-04       no
            --------------------------------------------------

  ==================================================================
                  6. RPA iteration, Excitation symmetry 1
  ==================================================================

            --------------------------------------------------
            Excitation   Energy (au)     Residual    Converged
            --------------------------------------------------
                 1       0.42380590     1.4507D-05      yes
                 2       0.61178343     9.0944D-05      yes
                 3       0.65675071     6.6070D-05      yes
                 4       0.78081899     5.8439D-05      yes
                 5       0.83882088     3.0403D-04       no
            --------------------------------------------------

  ==================================================================
                  7. RPA iteration, Excitation symmetry 1
  ==================================================================

            --------------------------------------------------
            Excitation   Energy (au)     Residual    Converged
            --------------------------------------------------
                 1       0.42380590     1.4536D-05      yes
                 2       0.61178343     8.3070D-05      yes
                 3       0.65675071     6.2725D-05      yes
                 4       0.78081898     2.6601D-05      yes
                 5       0.83882086     7.4625D-05      yes
            --------------------------------------------------

 -------------------------------------------------------------
 Iterations stopped since: 
 -------------------------
 All of the excitations are converged.
 -------------------------------------------------------------


 --------------------------------------------------------------

                 Singlet Excitation Energies

 --------------------------------------------------------------
 Excitation symmetry  1, state no.  1

 RPA excitation energy :  0.42380590     au
                           11.532345     eV
                           93014.642     cm-1
                           1112.7022     kj / mole

 1p-1h + 1h-1p excitation weight: 100.11 + -0.11  = 100.00 %

 |=====================================================|
 |          | Symmetry|  Orbital index  |   Amplitude  |
 |          | index   |   a   b   i   j |              |
 |=====================================================|
 |    exci. | 1   1   |   1       3     |    0.979170  |
 |    exci. | 1   1   |   3       3     |   -0.141817  |
 |    exci. | 2   2   |   1       1     |    0.100550  |
 |-----------------------------------------------------|

 Printed all single excitation amplitudes greater than 0.100000

 --------------------------------------------------------------

                 Singlet Excitation Energies

 --------------------------------------------------------------
 Excitation symmetry  1, state no.  2

 RPA excitation energy :  0.61178343     au
                           16.647474     eV
                           134270.94     cm-1
                           1606.2372     kj / mole

 1p-1h + 1h-1p excitation weight: 100.10 + -0.10  = 100.00 %

 |=====================================================|
 |          | Symmetry|  Orbital index  |   Amplitude  |
 |          | index   |   a   b   i   j |              |
 |=====================================================|
 |    exci. | 2   2   |   1       1     |    0.628156  |
 |    exci. | 3   3   |   1       1     |   -0.750068  |
 |    exci. | 3   3   |   3       1     |   -0.187245  |
 |-----------------------------------------------------|

 Printed all single excitation amplitudes greater than 0.100000

 --------------------------------------------------------------

                 Singlet Excitation Energies

 --------------------------------------------------------------
 Excitation symmetry  1, state no.  3

 RPA excitation energy :  0.65675071     au
                           17.871096     eV
                           144140.12     cm-1
                           1724.2987     kj / mole

 1p-1h + 1h-1p excitation weight: 100.22 + -0.22  = 100.00 %

 |=====================================================|
 |          | Symmetry|  Orbital index  |   Amplitude  |
 |          | index   |   a   b   i   j |              |
 |=====================================================|
 |    exci. | 1   1   |   1       3     |    0.102657  |
 |    exci. | 1   1   |   2       3     |    0.625547  |
 |    exci. | 1   1   |   3       3     |    0.154706  |
 |    exci. | 2   2   |   1       1     |   -0.584655  |
 |    exci. | 3   3   |   1       1     |   -0.473549  |
 |-----------------------------------------------------|

 Printed all single excitation amplitudes greater than 0.100000

 --------------------------------------------------------------

                 Singlet Excitation Energies

 --------------------------------------------------------------
 Excitation symmetry  1, state no.  4

 RPA excitation energy :  0.78081898     au
                           21.247165     eV
                           171369.96     cm-1
                           2050.0399     kj / mole

 1p-1h + 1h-1p excitation weight: 100.72 + -0.72  = 100.00 %

 |=====================================================|
 |          | Symmetry|  Orbital index  |   Amplitude  |
 |          | index   |   a   b   i   j |              |
 |=====================================================|
 |    exci. | 1   1   |   1       3     |   -0.101758  |
 |    exci. | 1   1   |   2       3     |    0.737944  |
 |    exci. | 1   1   |   3       3     |   -0.358504  |
 |    exci. | 2   2   |   1       1     |    0.394605  |
 |    exci. | 3   3   |   1       1     |    0.370547  |
 |    exci. | 3   3   |   3       1     |   -0.153964  |
 |-----------------------------------------------------|

 Printed all single excitation amplitudes greater than 0.100000

 --------------------------------------------------------------

                 Singlet Excitation Energies

 --------------------------------------------------------------
 Excitation symmetry  1, state no.  5

 RPA excitation energy :  0.83882086     au
                           22.825477     eV
                           184099.90     cm-1
                           2202.3238     kj / mole

 1p-1h + 1h-1p excitation weight: 100.44 + -0.44  = 100.00 %

 |=====================================================|
 |          | Symmetry|  Orbital index  |   Amplitude  |
 |          | index   |   a   b   i   j |              |
 |=====================================================|
 |    exci. | 1   1   |   1       3     |    0.104261  |
 |    exci. | 1   1   |   2       3     |    0.151890  |
 |    exci. | 1   1   |   3       3     |    0.887295  |
 |    exci. | 2   2   |   1       1     |    0.230419  |
 |    exci. | 3   3   |   1       1     |    0.263302  |
 |    exci. | 3   3   |   3       1     |   -0.205626  |
 |-----------------------------------------------------|

 Printed all single excitation amplitudes greater than 0.100000

 --------------------------------------------------------------

 ZDIPLEN  RPA transition moments for excitation symmetry  1
 ===================================================================
 Exci.    1p-1h        2p-2h        1h-1p        2h-2p        Total
 -------------------------------------------------------------------
   1     0.69872 +    0.00000 +   -0.02901 +    0.00000 =    0.66971
   2     0.38136 +    0.00000 +   -0.01330 +    0.00000 =    0.36806
   3     0.39650 +    0.00000 +   -0.02683 +    0.00000 =    0.36967
   4    -0.03836 +    0.00000 +    0.04539 +    0.00000 =    0.00702
   5    -0.03003 +    0.00000 +    0.03426 +    0.00000 =    0.00423
 ===================================================================

 ZDIPVEL  RPA transition moments for excitation symmetry  1
 ===================================================================
 Exci.    1p-1h        2p-2h        1h-1p        2h-2p        Total
 -------------------------------------------------------------------
   1    -0.28534 +    0.00000 +   -0.00968 +    0.00000 =   -0.29502
   2    -0.20289 +    0.00000 +   -0.01944 +    0.00000 =   -0.22233
   3    -0.23806 +    0.00000 +   -0.00959 +    0.00000 =   -0.24765
   4    -0.02285 +    0.00000 +    0.03618 +    0.00000 =    0.01333
   5     0.00267 +    0.00000 +    0.01603 +    0.00000 =    0.01870
 ===================================================================

 XXSECMOM RPA transition moments for excitation symmetry  1
 ===================================================================
 Exci.    1p-1h        2p-2h        1h-1p        2h-2p        Total
 -------------------------------------------------------------------
   1     0.09830 +    0.00000 +    0.04697 +    0.00000 =    0.14527
   2     1.09607 +    0.00000 +    0.03038 +    0.00000 =    1.12645
   3    -1.15245 +    0.00000 +    0.04311 +    0.00000 =   -1.10934
   4     1.56509 +    0.00000 +   -0.17125 +    0.00000 =    1.39384
   5     0.77532 +    0.00000 +   -0.12828 +    0.00000 =    0.64704
 ===================================================================

 YYSECMOM RPA transition moments for excitation symmetry  1
 ===================================================================
 Exci.    1p-1h        2p-2h        1h-1p        2h-2p        Total
 -------------------------------------------------------------------
   1    -0.52271 +    0.00000 +    0.07179 +    0.00000 =   -0.45092
   2    -1.17354 +    0.00000 +   -0.02296 +    0.00000 =   -1.19650
   3    -1.03035 +    0.00000 +    0.09057 +    0.00000 =   -0.93979
   4     0.89229 +    0.00000 +   -0.20824 +    0.00000 =    0.68405
   5     1.11767 +    0.00000 +   -0.17688 +    0.00000 =    0.94079
 ===================================================================

 ZZSECMOM RPA transition moments for excitation symmetry  1
 ===================================================================
 Exci.    1p-1h        2p-2h        1h-1p        2h-2p        Total
 -------------------------------------------------------------------
   1    -0.51351 +    0.00000 +    0.03137 +    0.00000 =   -0.48214
   2    -0.25125 +    0.00000 +    0.00138 +    0.00000 =   -0.24987
   3     0.46066 +    0.00000 +    0.10771 +    0.00000 =    0.56837
   4     2.11639 +    0.00000 +   -0.19479 +    0.00000 =    1.92160
   5     0.64275 +    0.00000 +   -0.12384 +    0.00000 =    0.51891
 ===================================================================

  ******************************************************************
               Double corrected RPA calculation, Symmetry 1
  ******************************************************************

                         ------------------------
                         Excitation   Energy (au)
                         ------------------------
                              1       0.36834404
                              2       0.59150225
                              3       0.63086035
                              4       0.71724077
                              5       0.78428541
                         ------------------------

 --------------------------------------------------------------
 Excitation symmetry  1, state no.  1

 DCRPA excitation energy :  0.36834404     au
                             10.023151     eV
                             80842.171     cm-1
                             967.08712     kj / mole

 1p-1h + 1h-1p excitation weight:  93.83 + -0.11  =  93.72 %
 2p-2h + 2h-2p excitation weight:   6.28 + -0.00  =   6.28 %

 |=====================================================|
 |          | Symmetry|  Orbital index  |   Amplitude  |
 |          | index   |   a   b   i   j |              |
 |=====================================================|
 |    exci. | 1   1   |   1       3     |    0.958034  |
 |    exci. | 1   1   |   3       3     |   -0.138756  |
 |-----------------------------------------------------|
 |    exci. | 1 1 1 1 |   2   1   3   3 |   -0.125085  |
 |    exci. | 2 1 2 1 |   1   1   1   3 |   -0.115115  |
 |=====================================================|

 Printed all single excitation amplitudes greater than 0.100000
 Printed all double excitation amplitudes greater than 0.100000

 --------------------------------------------------------------
 Excitation symmetry  1, state no.  2

 DCRPA excitation energy :  0.59150225     au
                             16.095595     eV
                             129819.74     cm-1
                             1552.9889     kj / mole

 1p-1h + 1h-1p excitation weight:  95.55 + -0.10  =  95.45 %
 2p-2h + 2h-2p excitation weight:   4.55 + -0.00  =   4.55 %

 |=====================================================|
 |          | Symmetry|  Orbital index  |   Amplitude  |
 |          | index   |   a   b   i   j |              |
 |=====================================================|
 |    exci. | 2   2   |   1       1     |    0.621042  |
 |    exci. | 3   3   |   1       1     |   -0.741573  |
 |    exci. | 3   3   |   3       1     |   -0.185125  |
 |-----------------------------------------------------|
 |    exci. | 2 1 2 1 |   1   1   1   2 |   -0.025684  |
 |    exci. | 2 1 2 1 |   1   4   1   2 |    0.024308  |
 |    exci. | 2 1 2 1 |   1   1   1   3 |    0.026317  |
 |    exci. | 2 1 2 1 |   1   2   1   3 |   -0.052299  |
 |    exci. | 2 1 2 1 |   1   3   1   3 |   -0.027190  |
 |    exci. | 3 1 3 1 |   1   1   1   2 |    0.036512  |
 |    exci. | 3 1 3 1 |   1   4   1   2 |   -0.028487  |
 |    exci. | 3 1 3 1 |   1   1   1   3 |   -0.033891  |
 |    exci. | 3 1 3 1 |   1   2   1   3 |    0.061508  |
 |    exci. | 3 1 3 1 |   1   3   1   3 |    0.025737  |
 |    exci. | 2 2 2 2 |   1   1   1   1 |   -0.081447  |
 |    exci. | 3 2 3 2 |   1   1   1   1 |    0.033399  |
 |    exci. | 3 2 3 2 |   3   1   1   1 |   -0.058178  |
 |    exci. | 3 2 3 2 |   5   1   1   1 |    0.028047  |
 |    exci. | 3 2 3 2 |   1   3   1   1 |    0.033206  |
 |    exci. | 3 3 3 3 |   1   1   1   1 |    0.069471  |
 |    exci. | 3 3 3 3 |   3   1   1   1 |    0.048591  |
 |    exci. | 3 3 3 3 |   4   1   1   1 |    0.022484  |
 |    exci. | 2 2 1 1 |   2   1   3   2 |    0.021975  |
 |    exci. | 4 2 3 1 |   1   1   1   2 |    0.024487  |
 |    exci. | 1 1 2 2 |   3   1   1   1 |   -0.021403  |
 |    exci. | 3 3 1 1 |   2   1   3   2 |   -0.024739  |
 |    exci. | 3 3 1 1 |   3   1   3   2 |    0.021475  |
 |    exci. | 3 3 1 1 |   4   1   3   2 |   -0.024087  |
 |    exci. | 4 3 2 1 |   1   1   1   2 |   -0.036136  |
 |    exci. | 1 3 3 1 |   3   1   1   2 |    0.021848  |
 |    exci. | 1 1 3 3 |   3   1   1   1 |   -0.030601  |
 |=====================================================|

 Printed all single excitation amplitudes greater than 0.100000
 Printed all double excitation amplitudes greater than 0.020000

 --------------------------------------------------------------
 Excitation symmetry  1, state no.  3

 DCRPA excitation energy :  0.63086035     au
                             17.166583     eV
                             138457.84     cm-1
                             1656.3236     kj / mole

 1p-1h + 1h-1p excitation weight:  95.32 + -0.21  =  95.11 %
 2p-2h + 2h-2p excitation weight:   4.89 + -0.01  =   4.89 %

 |=====================================================|
 |          | Symmetry|  Orbital index  |   Amplitude  |
 |          | index   |   a   b   i   j |              |
 |=====================================================|
 |    exci. | 1   1   |   1       3     |    0.101276  |
 |    exci. | 1   1   |   2       3     |    0.617132  |
 |    exci. | 1   1   |   3       3     |    0.152625  |
 |    exci. | 2   2   |   1       1     |   -0.576789  |
 |    exci. | 3   3   |   1       1     |   -0.467178  |
 |-----------------------------------------------------|
 |    exci. | 1 1 1 1 |   2   1   3   2 |   -0.024280  |
 |    exci. | 1 1 1 1 |   5   2   3   2 |   -0.022914  |
 |    exci. | 1 1 1 1 |   2   4   3   2 |    0.022303  |
 |    exci. | 1 1 1 1 |   2   2   3   3 |   -0.065939  |
 |    exci. | 1 1 1 1 |   3   2   3   3 |   -0.034451  |
 |    exci. | 2 1 2 1 |   1   1   1   2 |    0.025881  |
 |    exci. | 2 1 2 1 |   2   2   1   2 |    0.025624  |
 |    exci. | 2 1 2 1 |   1   4   1   2 |   -0.021650  |
 |    exci. | 2 1 2 1 |   1   1   1   3 |   -0.047552  |
 |    exci. | 2 1 2 1 |   3   2   1   3 |   -0.033250  |
 |    exci. | 2 1 2 1 |   1   3   1   3 |    0.020085  |
 |    exci. | 2 1 2 1 |   1   7   1   3 |   -0.029549  |
 |    exci. | 3 1 3 1 |   1   1   1   2 |    0.022081  |
 |    exci. | 3 1 3 1 |   1   1   1   3 |   -0.037501  |
 |    exci. | 3 1 3 1 |   3   2   1   3 |   -0.048395  |
 |    exci. | 2 2 2 2 |   1   1   1   1 |    0.079114  |
 |    exci. | 3 2 3 2 |   1   1   1   1 |    0.095104  |
 |    exci. | 3 2 3 2 |   3   1   1   1 |    0.034980  |
 |    exci. | 3 3 3 3 |   1   1   1   1 |    0.047383  |
 |    exci. | 3 3 3 3 |   3   1   1   1 |    0.031106  |
 |    exci. | 2 2 1 1 |   2   1   3   2 |   -0.023487  |
 |    exci. | 4 3 2 1 |   1   1   1   2 |   -0.020640  |
 |=====================================================|

 Printed all single excitation amplitudes greater than 0.100000
 Printed all double excitation amplitudes greater than 0.020000

 --------------------------------------------------------------
 Excitation symmetry  1, state no.  4

 DCRPA excitation energy :  0.71724077     au
                             19.517114     eV
                             157416.15     cm-1
                             1883.1154     kj / mole

 1p-1h + 1h-1p excitation weight:  93.15 + -0.66  =  92.49 %
 2p-2h + 2h-2p excitation weight:   7.53 + -0.02  =   7.51 %

 |=====================================================|
 |          | Symmetry|  Orbital index  |   Amplitude  |
 |          | index   |   a   b   i   j |              |
 |=====================================================|
 |    exci. | 1   1   |   2       3     |    0.716929  |
 |    exci. | 1   1   |   3       3     |   -0.348295  |
 |    exci. | 2   2   |   1       1     |    0.383367  |
 |    exci. | 3   3   |   1       1     |    0.359995  |
 |    exci. | 3   3   |   3       1     |   -0.149580  |
 |-----------------------------------------------------|
 |    exci. | 2 1 2 1 |   1   2   1   3 |   -0.127411  |
 |    exci. | 3 1 3 1 |   1   2   1   3 |   -0.100894  |
 |=====================================================|

 Printed all single excitation amplitudes greater than 0.100000
 Printed all double excitation amplitudes greater than 0.100000

 --------------------------------------------------------------
 Excitation symmetry  1, state no.  5

 DCRPA excitation energy :  0.78428541     au
                             21.341492     eV
                             172130.75     cm-1
                             2059.1410     kj / mole

 1p-1h + 1h-1p excitation weight:  94.22 + -0.42  =  93.80 %
 2p-2h + 2h-2p excitation weight:   6.21 + -0.01  =   6.20 %

 |=====================================================|
 |          | Symmetry|  Orbital index  |   Amplitude  |
 |          | index   |   a   b   i   j |              |
 |=====================================================|
 |    exci. | 1   1   |   1       3     |    0.102085  |
 |    exci. | 1   1   |   2       3     |    0.148720  |
 |    exci. | 1   1   |   3       3     |    0.868777  |
 |    exci. | 2   2   |   1       1     |    0.225610  |
 |    exci. | 3   3   |   1       1     |    0.257807  |
 |    exci. | 3   3   |   3       1     |   -0.201335  |
 |-----------------------------------------------------|
 |    exci. | 1 1 1 1 |   1   1   3   2 |   -0.022147  |
 |    exci. | 1 1 1 1 |   3   1   3   2 |   -0.022781  |
 |    exci. | 1 1 1 1 |   3   2   3   2 |   -0.020729  |
 |    exci. | 1 1 1 1 |   5   3   3   2 |   -0.037701  |
 |    exci. | 1 1 1 1 |   3   4   3   2 |    0.026190  |
 |    exci. | 1 1 1 1 |   2   1   3   3 |   -0.052756  |
 |    exci. | 1 1 1 1 |   3   1   3   3 |    0.028253  |
 |    exci. | 1 1 1 1 |   3   2   3   3 |   -0.075424  |
 |    exci. | 1 1 1 1 |   3   3   3   3 |   -0.056564  |
 |    exci. | 1 1 1 1 |   5   3   3   3 |   -0.049046  |
 |    exci. | 1 1 1 1 |   7   3   3   3 |    0.020417  |
 |    exci. | 2 1 2 1 |   2   3   1   2 |    0.034135  |
 |    exci. | 2 1 2 1 |   1   1   1   3 |   -0.046498  |
 |    exci. | 2 1 2 1 |   1   2   1   3 |   -0.031152  |
 |    exci. | 2 1 2 1 |   1   3   1   3 |   -0.088406  |
 |    exci. | 2 1 2 1 |   2   3   1   3 |    0.043631  |
 |    exci. | 2 1 2 1 |   3   3   1   3 |   -0.027855  |
 |    exci. | 3 1 3 1 |   2   3   1   2 |    0.025047  |
 |    exci. | 3 1 3 1 |   3   3   1   2 |   -0.025540  |
 |    exci. | 3 1 3 1 |   4   3   1   2 |    0.023591  |
 |    exci. | 3 1 3 1 |   3   1   1   3 |   -0.024138  |
 |    exci. | 3 1 3 1 |   1   2   1   3 |   -0.037913  |
 |    exci. | 3 1 3 1 |   1   3   1   3 |   -0.077363  |
 |    exci. | 3 1 3 1 |   2   3   1   3 |    0.026332  |
 |    exci. | 3 1 3 1 |   3   3   1   3 |   -0.074755  |
 |    exci. | 3 1 3 1 |   5   3   1   3 |    0.027264  |
 |    exci. | 2 2 2 2 |   1   1   1   1 |   -0.038441  |
 |    exci. | 3 2 3 2 |   1   1   1   1 |   -0.066580  |
 |    exci. | 3 3 3 3 |   1   1   1   1 |   -0.039868  |
 |    exci. | 1 2 2 1 |   3   2   1   3 |    0.023215  |
 |    exci. | 3 3 1 1 |   2   2   3   3 |   -0.022013  |
 |    exci. | 3 3 1 1 |   3   2   3   3 |    0.033795  |
 |    exci. | 1 3 3 1 |   1   2   1   3 |   -0.023442  |
 |    exci. | 1 3 3 1 |   1   3   1   3 |    0.020387  |
 |    exci. | 1 3 3 1 |   3   3   1   3 |   -0.035663  |
 |=====================================================|

 Printed all single excitation amplitudes greater than 0.100000
 Printed all double excitation amplitudes greater than 0.020000

 --------------------------------------------------------------

 ZDIPLEN  RPA(D) transition moments for excitation symmetry  1
 ===================================================================
 Exci.    1p-1h        2p-2h        1h-1p        2h-2p        Total
 -------------------------------------------------------------------
   1     0.69954 +    0.03901 +   -0.02810 +   -0.00090 =    0.70954
   2     0.37441 +    0.01225 +   -0.01305 +   -0.00030 =    0.37330
   3     0.39025 +    0.01805 +   -0.02635 +   -0.00098 =    0.38097
   4    -0.04452 +   -0.00996 +    0.04316 +    0.00105 =   -0.01027
   5    -0.02436 +    0.00142 +    0.03296 +    0.00097 =    0.01100
 ===================================================================

 ZDIPVEL  RPA(D) transition moments for excitation symmetry  1
 ===================================================================
 Exci.    1p-1h        2p-2h        1h-1p        2h-2p        Total
 -------------------------------------------------------------------
   1    -0.26742 +   -0.00931 +   -0.00873 +   -0.00028 =   -0.28574
   2    -0.19322 +   -0.00597 +   -0.01884 +   -0.00005 =   -0.21808
   3    -0.22844 +   -0.00732 +   -0.00874 +   -0.00038 =   -0.24489
   4    -0.01780 +    0.00354 +    0.03386 +    0.00074 =    0.02034
   5    -0.00293 +    0.00081 +    0.01465 +    0.00048 =    0.01301
 ===================================================================

 XXSECMOM RPA(D) transition moments for excitation symmetry  1
 ===================================================================
 Exci.    1p-1h        2p-2h        1h-1p        2h-2p        Total
 -------------------------------------------------------------------
   1     0.09136 +   -0.00342 +    0.04648 +    0.00165 =    0.13608
   2     1.11820 +    0.05053 +    0.03082 +    0.00150 =    1.20105
   3    -1.17128 +   -0.06155 +    0.04258 +    0.00164 =   -1.18861
   4     1.56267 +    0.10212 +   -0.16728 +   -0.00665 =    1.49086
   5     0.76648 +    0.04260 +   -0.12619 +   -0.00506 =    0.67783
 ===================================================================

 YYSECMOM RPA(D) transition moments for excitation symmetry  1
 ===================================================================
 Exci.    1p-1h        2p-2h        1h-1p        2h-2p        Total
 -------------------------------------------------------------------
   1    -0.52731 +   -0.03135 +    0.06997 +    0.00218 =   -0.48650
   2    -1.15318 +   -0.04017 +   -0.02197 +   -0.00021 =   -1.21554
   3    -1.03659 +   -0.05837 +    0.08898 +    0.00303 =   -1.00295
   4     0.89978 +    0.07763 +   -0.20131 +   -0.00729 =    0.76881
   5     1.10249 +    0.06400 +   -0.17208 +   -0.00592 =    0.98848
 ===================================================================

 ZZSECMOM RPA(D) transition moments for excitation symmetry  1
 ===================================================================
 Exci.    1p-1h        2p-2h        1h-1p        2h-2p        Total
 -------------------------------------------------------------------
   1    -0.51697 +   -0.02942 +    0.03101 +    0.00123 =   -0.51414
   2    -0.24013 +   -0.00488 +    0.00179 +    0.00056 =   -0.24267
   3     0.44954 +    0.00155 +    0.10617 +    0.00365 =    0.56092
   4     2.10401 +    0.13157 +   -0.18913 +   -0.00714 =    2.03931
   5     0.62816 +    0.02636 +   -0.12123 +   -0.00471 =    0.52858
 ===================================================================

  ******************************************************************
                RPA iterations, Excitation symmetry 2
  ******************************************************************


  ==================================================================
                  1. RPA iteration, Excitation symmetry 2
  ==================================================================

            --------------------------------------------------
            Excitation   Energy (au)     Residual    Converged
            --------------------------------------------------
                 1       0.33560766     1.0695D-01       no
                 2       0.62198455     1.2436D-01       no
                 3       0.69947479     1.2670D-01       no
                 4       0.75912623     1.7491D-01       no
                 5       1.07748542     1.3873D-01       no
            --------------------------------------------------

  ==================================================================
                  2. RPA iteration, Excitation symmetry 2
  ==================================================================

            --------------------------------------------------
            Excitation   Energy (au)     Residual    Converged
            --------------------------------------------------
                 1       0.33212168     1.0306D-02       no
                 2       0.61180061     1.1229D-02       no
                 3       0.68972389     1.0719D-02       no
                 4       0.74459423     2.6984D-02       no
                 5       1.06860004     3.1197D-02       no
            --------------------------------------------------

  ==================================================================
                  3. RPA iteration, Excitation symmetry 2
  ==================================================================

[...]
@           1     0.488861     0.0000 -0.4822  0.0000    0.0000 -0.4799  0.0000
@           2     0.543995     0.0000  0.8358  0.0000    0.0000  0.8352  0.0000
@           3     0.754612     0.0000  0.5952  0.0000    0.0000  0.6090  0.0000
@           4     0.839804     0.0000 -0.1784  0.0000    0.0000 -0.1939  0.0000
@           5     0.873649     0.0000  0.0355  0.0000    0.0000  0.0205  0.0000
@------------------------------------------------------------------------------
@  Symmetry of excited state: 4  ( A2 )
@           1     0.394974     0.0000  0.0000  0.0000    0.0000  0.0000  0.0000
@           2     0.654107     0.0000  0.0000  0.0000    0.0000  0.0000  0.0000
@           3     0.786727     0.0000  0.0000  0.0000    0.0000  0.0000  0.0000
@           4     0.830477     0.0000  0.0000  0.0000    0.0000  0.0000  0.0000
@           5     1.349579     0.0000  0.0000  0.0000    0.0000  0.0000  0.0000
@------------------------------------------------------------------------------


@               Magnetic transition dipole moments (au)
                ---------------------------------------

  ( mu_B*<0|l_i|n>, where mu_B = 0.5 is the Bohr magneton)

 Symm.  Mode   Frequency         Conventional                  London
 ex.st.  No.     (eV)        x        y       z         x        y        z
 ==============================================================================
   1      1    11.5323   -0.00000 -0.00000 -0.00000  -0.00000 -0.00000 -0.00000
   1      2    16.6475   -0.00000 -0.00000 -0.00000  -0.00000 -0.00000 -0.00000
   1      3    17.8711   -0.00000 -0.00000 -0.00000  -0.00000 -0.00000 -0.00000
   1      4    21.2472   -0.00000 -0.00000 -0.00000  -0.00000 -0.00000 -0.00000
   1      5    22.8255   -0.00000 -0.00000 -0.00000  -0.00000 -0.00000 -0.00000
 ------------------------------------------------------------------------------
   2      1     9.0369   -0.00000 -0.06704 -0.00000  -0.00000 -0.00000 -0.00000
   2      2    16.6467   -0.00000  0.00048 -0.00000  -0.00000 -0.00000 -0.00000
   2      3    18.7677   -0.00000  0.03664 -0.00000  -0.00000 -0.00000 -0.00000
   2      4    20.2507   -0.00000 -0.10037 -0.00000  -0.00000 -0.00000 -0.00000
   2      5    29.0594   -0.00000 -0.02311 -0.00000  -0.00000 -0.00000 -0.00000
 ------------------------------------------------------------------------------
   3      1    13.3026    0.10498 -0.00000 -0.00000  -0.00000 -0.00000 -0.00000
   3      2    14.8028    0.06853 -0.00000 -0.00000  -0.00000 -0.00000 -0.00000
   3      3    20.5340   -0.21948 -0.00000 -0.00000  -0.00000 -0.00000 -0.00000
   3      4    22.8522   -0.05152 -0.00000 -0.00000  -0.00000 -0.00000 -0.00000
   3      5    23.7732    0.07954 -0.00000 -0.00000  -0.00000 -0.00000 -0.00000
 ------------------------------------------------------------------------------
   4      1    10.7478   -0.00000 -0.00000  0.09297  -0.00000 -0.00000 -0.00000
   4      2    17.7992   -0.00000 -0.00000  0.12712  -0.00000 -0.00000 -0.00000
   4      3    21.4079   -0.00000 -0.00000  0.04624  -0.00000 -0.00000 -0.00000
   4      4    22.5984   -0.00000 -0.00000 -0.04915  -0.00000 -0.00000 -0.00000
   4      5    36.7239   -0.00000 -0.00000  0.13941  -0.00000 -0.00000 -0.00000
 ------------------------------------------------------------------------------


@                  Oscillator and Scalar Rotational Strengths
                   ------------------------------------------

@   Units: 10**(-40) (esu**2)*(cm**2) (rotational strength)
@          dimensionless              (oscillator strength)

@ Symm.  Mode   Frequency    Oscillator-strength      Rotational-strength   
@ ex.st.  No.     (eV)        velocity  length     velocity  length   London
@ ==========================================================================
@  1      1    11.5323        0.1369   0.1267      -0.000   -0.000   -0.000
@  1      2    16.6475        0.0539   0.0553      -0.000   -0.000   -0.000
@  1      3    17.8711        0.0623   0.0598      -0.000   -0.000   -0.000
@  1      4    21.2472        0.0002   0.0000      -0.000   -0.000   -0.000
@  1      5    22.8255        0.0003   0.0000      -0.000   -0.000   -0.000
@ --------------------------------------------------------------------------
@  2      1     9.0369        0.0599   0.0474      -0.000   -0.000   -0.000
@  2      2    16.6467        0.0058   0.0139      -0.000   -0.000   -0.000
@  2      3    18.7677        0.0038   0.0014      -0.000   -0.000   -0.000
@  2      4    20.2507        0.0973   0.1221      -0.000   -0.000   -0.000
@  2      5    29.0594        0.2076   0.2805      -0.000   -0.000   -0.000
@ --------------------------------------------------------------------------
@  3      1    13.3026        0.0758   0.0751      -0.000   -0.000   -0.000
@  3      2    14.8028        0.2534   0.2530      -0.000   -0.000   -0.000
@  3      3    20.5340        0.1782   0.1866      -0.000   -0.000   -0.000
@  3      4    22.8522        0.0178   0.0210      -0.000   -0.000   -0.000
@  3      5    23.7732        0.0007   0.0002      -0.000   -0.000   -0.000
@ --------------------------------------------------------------------------
@  4      1    10.7478        0.0000   0.0000      -0.000   -0.000   -0.000
@  4      2    17.7992        0.0000   0.0000      -0.000   -0.000   -0.000
@  4      3    21.4079        0.0000   0.0000      -0.000   -0.000   -0.000
@  4      4    22.5984        0.0000   0.0000      -0.000   -0.000   -0.000
@  4      5    36.7239        0.0000   0.0000      -0.000   -0.000   -0.000
@ --------------------------------------------------------------------------


          Extent of molecular orbitals (au)
          ---------------------------------

  Sym.  MO.   <X**2>    <Y**2>    <Z**2>    <R**2>
  ------------------------------------------------
    1    1     0.018     0.018     0.033     0.069
    1    2     0.491     0.729     0.606     1.826
    1    3     0.478     0.646     1.474     2.597
    2    1     1.402     0.486     0.480     2.368
    3    1     0.433     1.716     0.644     2.794

    1    1     3.453     6.387     5.371    15.212
    1    2     2.312     2.107     6.601    11.020
    1    3     2.109     3.559     2.516     8.184
    1    4     2.623     2.619     2.427     7.669
    1    5     0.798     1.150     1.821     3.770
    1    6     1.270     1.973     2.059     5.302
    1    7     0.998     1.819     2.351     5.169
    1    8     0.912     2.399     1.892     5.204
    1    9     0.394     2.332     1.745     4.471
    1   10     1.271     1.554     1.485     4.309
    1   11     0.797     2.605     1.515     4.918
    1   12     0.911     1.183     1.534     3.629
    1   13     1.585     2.065     2.125     5.775
    1   14     0.639     0.869     0.790     2.298
    1   15     0.121     0.132     0.354     0.608
    1   16     0.150     0.203     0.198     0.551
    2    1     6.188     2.067     2.080    10.335
    2    2     1.497     0.610     1.561     3.669
    2    3     2.613     0.921     0.929     4.462
    2    4     1.030     2.100     1.192     4.322
    2    5     1.062     0.350     0.368     1.780
    2    6     0.333     0.111     0.126     0.570
    3    1     3.017    11.103     5.389    19.509
    3    2     1.902     4.798     2.796     9.495
    3    3     1.570     6.217     3.307    11.094
    3    4     1.020     3.219     1.932     6.170
    3    5     0.884     3.397     1.668     5.949
    3    6     0.256     2.408     1.583     4.247
    3    7     0.712     2.413     1.366     4.491
    3    8     0.716     2.805     1.635     5.156
    3    9     0.340     1.090     0.486     1.916
    3   10     0.113     0.338     0.148     0.599
    4    1     1.443     1.630     0.581     3.653
    4    2     0.888     2.198     1.215     4.302


                                   Ground state (au)
                         <X**2>    <Y**2>    <Z**2>    <R**2>
                         ------------------------------------
                          5.644     7.189     6.473    19.306


       Change in <R**2> from ground to excited state (au)
       --------------------------------------------------

  Sym. State Freq. (eV)  <X**2>    <Y**2>    <Z**2>    <R**2>
  -----------------------------------------------------------
    1    1    11.5323     2.346     4.896     3.024    10.265
    1    2    16.6475     2.859     4.732     2.722    10.313
    1    3    17.8711     2.779     3.174     3.323     9.276
    1    4    21.2472     2.765     3.159     4.454    10.377
    1    5    22.8255     2.218     3.837     1.828     7.883
    2    1     9.0369     1.250     4.846     3.929    10.025
    2    2    16.6467     0.738     1.881     5.371     7.991
    2    3    18.7677     5.333     1.318     0.499     7.150
    2    4    20.2507     1.344     3.103     2.913     7.360
    2    5    29.0594     1.143     2.453     2.181     5.777
    3    1    13.3026     1.791     7.893     2.615    12.299
    3    2    14.8028     2.368     3.738     3.977    10.083
    3    3    20.5340     1.434     4.083     1.169     6.686
    3    4    22.8522     1.730     0.741     5.267     7.739
    3    5    23.7732     1.659     7.371     3.020    12.049
    4    1    10.7478     0.656     7.416     3.404    11.476
    4    2    17.7992     0.565     4.649     2.043     7.256
    4    3    21.4079     0.825     7.696     4.175    12.696
    4    4    22.5984     5.391     0.298     1.344     7.034
    4    5    36.7239     0.977     0.977    -0.897     1.057


 ======================================================================
                              RPA(D) results:
 ----------------------------------------------------------------------


@               Singlet electronic excitation energies
                --------------------------------------

               ========================================
                 Sym.   Mode   Frequency    Frequency
                ex. st.  No.      (au)         (eV)
               ----------------------------------------
                   1      1     0.368344    10.023151
                   1      2     0.591502    16.095595
                   1      3     0.630860    17.166583
                   1      4     0.717241    19.517114
                   1      5     0.784285    21.341492
               ----------------------------------------
                   2      1     0.277368     7.547560
                   2      2     0.585865    15.942210
                   2      3     0.679082    18.478767
                   2      4     0.675389    18.378264
                   2      5     1.020518    27.769695
               ----------------------------------------
                   3      1     0.446912    12.161083
                   3      2     0.519134    14.126366
                   3      3     0.696926    18.964311
                   3      4     0.830771    22.606429
                   3      5     0.829128    22.561708
               ----------------------------------------
                   4      1     0.352759     9.599071
                   4      2     0.590755    16.075250
                   4      3     0.734603    19.989572
                   4      4     0.835105    22.724358
                   4      5     1.351674    36.780928
               ========================================


@               Electric transition dipole moments (au)
                ---------------------------------------

@        Mode    Frequency       Velocity/Frequency              Length
@         No.      (au)          x       y       z         x       y       z
@==============================================================================
@  Symmetry of excited state: 1  ( A1 )
@           1     0.368344     0.0000  0.0000  0.7757    0.0000  0.0000  0.7095
@           2     0.591502     0.0000  0.0000  0.3687    0.0000  0.0000  0.3733
@           3     0.630860     0.0000  0.0000  0.3882    0.0000  0.0000  0.3810
@           4     0.717241     0.0000  0.0000 -0.0284    0.0000  0.0000 -0.0103
@           5     0.784285     0.0000  0.0000 -0.0166    0.0000  0.0000  0.0110
@------------------------------------------------------------------------------
@  Symmetry of excited state: 2  ( B1 )
@           1     0.277368     0.5956  0.0000  0.0000    0.5039  0.0000  0.0000
@           2     0.585865     0.1178  0.0000  0.0000    0.1927  0.0000  0.0000
@           3     0.679082     0.0910  0.0000  0.0000    0.0479  0.0000  0.0000
@           4     0.675389    -0.4850  0.0000  0.0000   -0.5321  0.0000  0.0000
@           5     1.020518    -0.5289  0.0000  0.0000   -0.6245  0.0000  0.0000
@------------------------------------------------------------------------------
@  Symmetry of excited state: 3  ( B2 )
@           1     0.446912     0.0000 -0.5207  0.0000    0.0000 -0.5020  0.0000
@           2     0.519134     0.0000  0.8538  0.0000    0.0000  0.8534  0.0000
@           3     0.696926     0.0000  0.6285  0.0000    0.0000  0.6278  0.0000
@           4     0.830771     0.0000 -0.1832  0.0000    0.0000 -0.2038  0.0000
@           5     0.829128     0.0000  0.0517  0.0000    0.0000  0.0494  0.0000
@------------------------------------------------------------------------------
@  Symmetry of excited state: 4  ( A2 )
@           1     0.352759     0.0000  0.0000  0.0000    0.0000  0.0000  0.0000
@           2     0.590755     0.0000  0.0000  0.0000    0.0000  0.0000  0.0000
@           3     0.734603     0.0000  0.0000  0.0000    0.0000  0.0000  0.0000
@           4     0.835105     0.0000  0.0000  0.0000    0.0000  0.0000  0.0000
@           5     1.351674     0.0000  0.0000  0.0000    0.0000  0.0000  0.0000
@------------------------------------------------------------------------------


@               Magnetic transition dipole moments (au)
                ---------------------------------------

  ( mu_B*<0|l_i|n>, where mu_B = 0.5 is the Bohr magneton)

 Symm.  Mode   Frequency         Conventional                  London
 ex.st.  No.     (eV)        x        y       z         x        y        z
 ==============================================================================
   1      1    10.0232   -0.00000 -0.00000 -0.00000  -0.00000 -0.00000 -0.00000
   1      2    16.0956   -0.00000 -0.00000 -0.00000  -0.00000 -0.00000 -0.00000
   1      3    17.1666   -0.00000 -0.00000 -0.00000  -0.00000 -0.00000 -0.00000
   1      4    19.5171   -0.00000 -0.00000 -0.00000  -0.00000 -0.00000 -0.00000
   1      5    21.3415   -0.00000 -0.00000 -0.00000  -0.00000 -0.00000 -0.00000
 ------------------------------------------------------------------------------
   2      1     7.5476   -0.00000 -0.06711 -0.00000  -0.00000 -0.00000 -0.00000
   2      2    15.9422   -0.00000 -0.00575 -0.00000  -0.00000 -0.00000 -0.00000
   2      3    18.4788   -0.00000  0.03304 -0.00000  -0.00000 -0.00000 -0.00000
   2      4    18.3783   -0.00000 -0.09868 -0.00000  -0.00000 -0.00000 -0.00000
   2      5    27.7697   -0.00000 -0.02278 -0.00000  -0.00000 -0.00000 -0.00000
 ------------------------------------------------------------------------------
   3      1    12.1611    0.09995 -0.00000 -0.00000  -0.00000 -0.00000 -0.00000
   3      2    14.1264    0.07297 -0.00000 -0.00000  -0.00000 -0.00000 -0.00000
   3      3    18.9643   -0.22102 -0.00000 -0.00000  -0.00000 -0.00000 -0.00000
   3      4    22.6064   -0.04953 -0.00000 -0.00000  -0.00000 -0.00000 -0.00000
   3      5    22.5617    0.07193 -0.00000 -0.00000  -0.00000 -0.00000 -0.00000
 ------------------------------------------------------------------------------
   4      1     9.5991   -0.00000 -0.00000  0.08563  -0.00000 -0.00000 -0.00000
   4      2    16.0752   -0.00000 -0.00000  0.13163  -0.00000 -0.00000 -0.00000
   4      3    19.9896   -0.00000 -0.00000  0.03831  -0.00000 -0.00000 -0.00000
   4      4    22.7244   -0.00000 -0.00000 -0.03917  -0.00000 -0.00000 -0.00000
   4      5    36.7809   -0.00000 -0.00000  0.13735  -0.00000 -0.00000 -0.00000
 ------------------------------------------------------------------------------


@                  Oscillator and Scalar Rotational Strengths
                   ------------------------------------------

@   Units: 10**(-40) (esu**2)*(cm**2) (rotational strength)
@          dimensionless              (oscillator strength)

@ Symm.  Mode   Frequency    Oscillator-strength      Rotational-strength   
@ ex.st.  No.     (eV)        velocity  length     velocity  length   London
@ ==========================================================================
@  1      1    10.0232        0.1478   0.1236      -0.000   -0.000   -0.000
@  1      2    16.0956        0.0536   0.0550      -0.000   -0.000   -0.000
@  1      3    17.1666        0.0634   0.0610      -0.000   -0.000   -0.000
@  1      4    19.5171        0.0004   0.0001      -0.000   -0.000   -0.000
@  1      5    21.3415        0.0001   0.0001      -0.000   -0.000   -0.000
@ --------------------------------------------------------------------------
@  2      1     7.5476        0.0656   0.0470      -0.000   -0.000   -0.000
@  2      2    15.9422        0.0054   0.0145      -0.000   -0.000   -0.000
@  2      3    18.4788        0.0037   0.0010      -0.000   -0.000   -0.000
@  2      4    18.3783        0.1059   0.1275      -0.000   -0.000   -0.000
@  2      5    27.7697        0.1903   0.2653      -0.000   -0.000   -0.000
@ --------------------------------------------------------------------------
@  3      1    12.1611        0.0808   0.0751      -0.000   -0.000   -0.000
@  3      2    14.1264        0.2523   0.2520      -0.000   -0.000   -0.000
@  3      3    18.9643        0.1835   0.1831      -0.000   -0.000   -0.000
@  3      4    22.6064        0.0186   0.0230      -0.000   -0.000   -0.000
@  3      5    22.5617        0.0015   0.0013      -0.000   -0.000   -0.000
@ --------------------------------------------------------------------------
@  4      1     9.5991        0.0000   0.0000      -0.000   -0.000   -0.000
@  4      2    16.0752        0.0000   0.0000      -0.000   -0.000   -0.000
@  4      3    19.9896        0.0000   0.0000      -0.000   -0.000   -0.000
@  4      4    22.7244        0.0000   0.0000      -0.000   -0.000   -0.000
@  4      5    36.7809        0.0000   0.0000      -0.000   -0.000   -0.000
@ --------------------------------------------------------------------------


   Interatomic separations (in Angstrom):
   --------------------------------------

            O           H   _1      H   _2
            ------      ------      ------
 O     :    0.000000
 H   _1:    0.958391    0.000000
 H   _2:    0.958391    1.515066    0.000000


  Max    interatomic separation is    1.5151 Angstrom (    2.8631 Bohr)
  between atoms    3 and    2, "H   _2" and "H   _1".

  Min HX interatomic separation is    0.9584 Angstrom (    1.8111 Bohr)


  Bond distances (Angstrom):
  --------------------------

                  atom 1     atom 2       distance
                  ------     ------       --------
  bond distance:  H   _1     O            0.958391
  bond distance:  H   _2     O            0.958391


  Bond angles (degrees):
  ----------------------

                  atom 1     atom 2     atom 3         angle
                  ------     ------     ------         -----
  bond angle:     H   _1     O          H   _2       104.450




 CPU time statistics for ABACUS
 ------------------------------




  Total CPU  time used in ABACUS:   0.82 seconds
  Total wall time used in ABACUS:   0.82 seconds


                   .-------------------------------------------.
                   | End of Static Property Section (ABACUS) - |
                   `-------------------------------------------'

  Total CPU  time used in DALTON:   1.00 seconds
  Total wall time used in DALTON:   1.00 seconds

 
     Date and time (Linux)  : Mon Dec 21 16:42:09 2015
     Host name              : TESD11                                  
