

     ************************************************************************
     *************** Dalton - An Electronic Structure Program ***************
     ************************************************************************

    This is output from DALTON (Release Dalton2013 patch 0)
   ----------------------------------------------------------------------------
    NOTE:
     
    Dalton is an experimental code for the evaluation of molecular
    properties using (MC)SCF, DFT, CI, and CC wave functions.
    The authors accept no responsibility for the performance of
    the code or for the correctness of the results.
     
    The code (in whole or part) is provided under a licence and
    is not to be reproduced for further distribution without
    the written permission of the authors or their representatives.
     
    See the home page "http://daltonprogram.org" for further information.
     
    If results obtained with this code are published,
    the appropriate citations would be both of:
     
       K. Aidas, C. Angeli, K. L. Bak, V. Bakken, R. Bast,
       L. Boman, O. Christiansen, R. Cimiraglia, S. Coriani,
       P. Dahle, E. K. Dalskov, U. Ekstroem, T. Enevoldsen,
       J. J. Eriksen, P. Ettenhuber, B. Fernandez, L. Ferrighi,
       H. Fliegl, L. Frediani, K. Hald, A. Halkier, C. Haettig,
       H. Heiberg, T. Helgaker, A. C. Hennum, H. Hettema,
       E. Hjertenaes, S. Hoest, I.-M. Hoeyvik, M. F. Iozzi,
       B. Jansik, H. J. Aa. Jensen, D. Jonsson, P. Joergensen,
       J. Kauczor, S. Kirpekar, T. Kjaergaard, W. Klopper,
       S. Knecht, R. Kobayashi, H. Koch, J. Kongsted, A. Krapp,
       K. Kristensen, A. Ligabue, O. B. Lutnaes, J. I. Melo,
       K. V. Mikkelsen, R. H. Myhre, C. Neiss, C. B. Nielsen,
       P. Norman, J. Olsen, J. M. H. Olsen, A. Osted,
       M. J. Packer, F. Pawlowski, T. B. Pedersen, P. F. Provasi,
       S. Reine, Z. Rinkevicius, T. A. Ruden, K. Ruud, V. Rybkin,
       P. Salek, C. C. M. Samson, A. Sanchez de Meras, T. Saue,
       S. P. A. Sauer, B. Schimmelpfennig, K. Sneskov,
       A. H. Steindal, K. O. Sylvester-Hvid, P. R. Taylor,
       A. M. Teale, E. I. Tellgren, D. P. Tew, A. J. Thorvaldsen,
       L. Thoegersen, O. Vahtras, M. A. Watson, D. J. D. Wilson,
       M. Ziolkowski and H. Agren.
       The Dalton quantum chemistry program system.
       WIREs Comput. Mol. Sci. 2013. doi: 10.1002/wcms.1172
    
    and
    
       Dalton, a Molecular Electronic Structure Program,
       Release DALTON2013.0 (2013), see http://daltonprogram.org
   ----------------------------------------------------------------------------

    Authors in alphabetical order (major contribution(s) in parenthesis):

  Kestutis Aidas,           Vilnius University,           Lithuania   (QM/MM)
  Celestino Angeli,         University of Ferrara,        Italy       (NEVPT2)
  Keld L. Bak,              UNI-C,                        Denmark     (AOSOPPA, non-adiabatic coupling, magnetic properties)
  Vebjoern Bakken,          University of Oslo,           Norway      (DALTON; geometry optimizer, symmetry detection)
  Radovan Bast,             KTH Stockholm                 Sweden      (DALTON installation and execution frameworks)
  Linus Boman,              NTNU,                         Norway      (Cholesky decomposition and subsystems)
  Ove Christiansen,         Aarhus University,            Denmark     (CC module)
  Renzo Cimiraglia,         University of Ferrara,        Italy       (NEVPT2)
  Sonia Coriani,            University of Trieste,        Italy       (CC module, MCD in RESPONS)
  Paal Dahle,               University of Oslo,           Norway      (Parallelization)
  Erik K. Dalskov,          UNI-C,                        Denmark     (SOPPA)
  Thomas Enevoldsen,        Univ. of Southern Denmark,    Denmark     (SOPPA)
  Janus J. Eriksen,         Aarhus University,            Denmark     (PE-MP2/SOPPA, TDA)
  Berta Fernandez,          U. of Santiago de Compostela, Spain       (doublet spin, ESR in RESPONS)
  Lara Ferrighi,            Aarhus University,            Denmark     (PCM Cubic response)
  Heike Fliegl,             University of Oslo,           Norway      (CCSD(R12))
  Luca Frediani,            UiT The Arctic U. of Norway,  Norway      (PCM)
  Bin Gao,                  UiT The Arctic U. of Norway,  Norway      (Gen1Int library)
  Christof Haettig,         Ruhr-University Bochum,       Germany     (CC module)
  Kasper Hald,              Aarhus University,            Denmark     (CC module)
  Asger Halkier,            Aarhus University,            Denmark     (CC module)
  Hanne Heiberg,            University of Oslo,           Norway      (geometry analysis, selected one-electron integrals)
  Trygve Helgaker,          University of Oslo,           Norway      (DALTON; ABACUS, ERI, DFT modules, London, and much more)
  Alf Christian Hennum,     University of Oslo,           Norway      (Parity violation)
  Hinne Hettema,            University of Auckland,       New Zealand (quadratic response in RESPONS; SIRIUS supersymmetry)
  Eirik Hjertenaes,         NTNU,                         Norway      (Cholesky decomposition)
  Maria Francesca Iozzi,    University of Oslo,           Norway      (RPA)
  Brano Jansik              Technical Univ. of Ostrava    Czech Rep.  (DFT cubic response)
  Hans Joergen Aa. Jensen,  Univ. of Southern Denmark,    Denmark     (DALTON; SIRIUS, RESPONS, ABACUS modules, London, and much more)
  Dan Jonsson,              UiT The Arctic U. of Norway,  Norway      (cubic response in RESPONS module)
  Poul Joergensen,          Aarhus University,            Denmark     (RESPONS, ABACUS, and CC modules)
  Joanna Kauczor,           Linkoeping University,        Sweden      (Complex polarization propagator (CPP) module)
  Sheela Kirpekar,          Univ. of Southern Denmark,    Denmark     (Mass-velocity & Darwin integrals)
  Wim Klopper,              KIT Karlsruhe,                Germany     (R12 code in CC, SIRIUS, and ABACUS modules)
  Stefan Knecht,            ETH Zurich,                   Switzerland (Parallel CI and MCSCF)
  Rika Kobayashi,           Australian National Univ.,    Australia   (DIIS in CC, London in MCSCF)
  Henrik Koch,              NTNU,                         Norway      (CC module, Cholesky decomposition)
  Jacob Kongsted,           Univ. of Southern Denmark,    Denmark     (Polarizable embedding, QM/MM)
  Andrea Ligabue,           University of Modena,         Italy       (CTOCD, AOSOPPA)
  Ola B. Lutnaes,           University of Oslo,           Norway      (DFT Hessian)
  Juan I. Melo,             University of Buenos Aires,   Argentina   (LRESC, Relativistic Effects on NMR Shieldings)
  Kurt V. Mikkelsen,        University of Copenhagen,     Denmark     (MC-SCRF and QM/MM)
  Rolf H. Myhre,            NTNU,                         Norway      (Cholesky, subsystems and ECC2)
  Christian Neiss,          Univ. Erlangen-Nuernberg,     Germany     (CCSD(R12))
  Christian B. Nielsen,     University of Copenhagen,     Denmark     (QM/MM)
  Patrick Norman,           Linkoeping University,        Sweden      (Cubic response and complex response in RESPONS)
  Jeppe Olsen,              Aarhus University,            Denmark     (SIRIUS CI/density modules)
  Jogvan Magnus H. Olsen,   Univ. of Southern Denmark,    Denmark     (Polarizable embedding, PE library, QM/MM)
  Anders Osted,             Copenhagen University,        Denmark     (QM/MM)
  Martin J. Packer,         University of Sheffield,      UK          (SOPPA)
  Filip Pawlowski,          Kazimierz Wielki University   Poland      (CC3)
  Thomas B. Pedersen,       University of Oslo,           Norway      (Cholesky decomposition)
  Patricio F. Provasi,      University of Northeastern,   Argentina   (Analysis of coupling constants in localized orbitals)
  Zilvinas Rinkevicius,     KTH Stockholm,                Sweden      (open-shell DFT, ESR)
  Elias Rudberg,            KTH Stockholm,                Sweden      (DFT grid and basis info)
  Torgeir A. Ruden,         University of Oslo,           Norway      (Numerical derivatives in ABACUS)
  Kenneth Ruud,             UiT The Arctic U. of Norway,  Norway      (DALTON; ABACUS magnetic properties and  much more)
  Pawel Salek,              KTH Stockholm,                Sweden      (DALTON; DFT code)
  Claire C. M. Samson       University of Karlsruhe       Germany     (Boys localization, r12 integrals in ERI)
  Alfredo Sanchez de Meras, University of Valencia,       Spain       (CC module, Cholesky decomposition)
  Trond Saue,               Paul Sabatier University,     France      (direct Fock matrix construction)
  Stephan P. A. Sauer,      University of Copenhagen,     Denmark     (SOPPA(CCSD), SOPPA prop., AOSOPPA, vibrational g-factors)
  Bernd Schimmelpfennig,    Forschungszentrum Karlsruhe,  Germany     (AMFI module)
  Kristian Sneskov,         Aarhus University,            Denmark     (QM/MM, PE-CC)
  Arnfinn H. Steindal,      UiT The Arctic U. of Norway,  Norway      (parallel QM/MM)
  K. O. Sylvester-Hvid,     University of Copenhagen,     Denmark     (MC-SCRF)
  Peter R. Taylor,          VLSCI/Univ. of Melbourne,     Australia   (Symmetry handling ABACUS, integral transformation)
  Andrew M. Teale,          University of Nottingham,     England     (DFT-AC, DFT-D)
  David P. Tew,             University of Bristol,        England     (CCSD(R12))
  Olav Vahtras,             KTH Stockholm,                Sweden      (triplet response, spin-orbit, ESR, TDDFT, open-shell DFT)
  David J. Wilson,          La Trobe University,          Australia   (DFT Hessian and DFT magnetizabilities)
  Hans Agren,               KTH Stockholm,                Sweden      (SIRIUS module, RESPONS, MC-SCRF solvation model)
 --------------------------------------------------------------------------------

     Date and time (Linux)  : Sun Sep  8 21:01:30 2013
     Host name              : lpqlx131.ups-tlse.fr                    

 * Work memory size             :    64000000 =  488.28 megabytes.

 * Directories for basis set searches:
   1) /home/bast/DALTON-2013.0-Source/build/test_cc2_r12_he_a2
   2) /home/bast/DALTON-2013.0-Source/build/basis


Compilation information
-----------------------

 Who compiled             | bast
 Host                     | lpqlx131.ups-tlse.fr
 System                   | Linux-3.8.5-201.fc18.x86_64
 CMake generator          | Unix Makefiles
 Processor                | x86_64
 64-bit integers          | OFF
 MPI                      | OFF
 Fortran compiler         | /usr/bin/gfortran
 Fortran compiler version | GNU Fortran (GCC) 4.7.2 20121109 (Red Hat 4.7.2-8)
 C compiler               | /usr/bin/gcc
 C compiler version       | gcc (GCC) 4.7.2 20121109 (Red Hat 4.7.2-8)
 C++ compiler             | /usr/bin/g++
 C++ compiler version     | g++ (GCC) 4.7.2 20121109 (Red Hat 4.7.2-8)
 Static linking           | OFF
 Last Git revision        | f34203295a86316e27f9e7b44f9b6769c4a046c0
 Configuration time       | 2013-09-08 20:31:27.952056


   Content of the .dal input file
 ----------------------------------

**DALTON INPUT                                    
.RUN WAVE FUNCTION                                
.DIRECT                                           
*MOLBAS                                           
.R12AUX                                           
**INTEGRALS                                       
.R12                                              
**WAVE FUNCTION                                   
.CC                                               
*ORBITAL INPUT                                    
.NOSUPSYM                                         
.MOSTART                                          
 H1DIAG                                           
*SCF INPUT                                        
.THRESH                                           
 1.0D-11                                          
*CC INPUT                                         
.CC2                                              
.PRINT                                            
 2                                                
.THRENR                                           
 1.0D-11                                          
.MAX IT                                           
 300                                              
*CCEXCI                                           
.THREXC                                           
 1.D-8                                            
.NCCEXCI                                          
 3 3 3 3 3 3 3 3                                  
*R12 INPUT                                        
.NO HYB                                           
#.R12XXL                                          
#.NO A                                            
#.NO A'                                           
#.NO B'                                           
#.NO 1                                            
.CC2                                              
 2B                                               
**END OF DALTON INPUT                             


   Content of the .mol file
 ----------------------------

#                                                                              
BASIS                                                                          
Ahlrichs-VDZ Ahlrichs-VTZ                                                      
He                                                                             
                                                                               
    2    3  X  Y  Z    .10E-99                                                 
 1     2.0    1    1                                                           
He     .000000000000000    .000000000000000    0.000000000000000      *        
 2     2.0    1    1                                                           
He     .000000000000000    .000000000000000    0.000000000000000      *        


       *******************************************************************
       *********** Output from DALTON general input processing ***********
       *******************************************************************

 --------------------------------------------------------------------------------
   Overall default print level:    0
   Print level for DALTON.STAT:    1

    AO-direct calculation (in sections where implemented)
    HERMIT 1- and 2-electron integral sections will be executed
    "Old" integral transformation used (limited to max 255 basis functions)
    Wave function sections will be executed (SIRIUS module)
 --------------------------------------------------------------------------------


 Changes of defaults for *MOLBAS:
 --------------------------------

 Print level in molecule setup (READIN):    1

 .R12AUX: Reading auxiliary basis sets from .mol file for R12



   ****************************************************************************
   *************** Output of molecule and basis set information ***************
   ****************************************************************************


    The two title cards from your ".mol" input:
    ------------------------------------------------------------------------
 1: He                                                                      
 2:                                                                         
    ------------------------------------------------------------------------

  INFO from READIN: Threshold for discarding integrals was    1.00-100
  INFO from READIN: Threshold is reset to minimum value       1.00D-15

  Atomic type no.    1
  --------------------
  Nuclear charge:   2.00000
  Number of symmetry independent centers:    1
  Number of basis sets to read;    1
  Basis set file used for this atomic type with Z =   2 :
     "/home/bast/DALTON-2013.0-Source/build/basis/Ahlrichs-VDZ"

  Atomic type no.    2
  --------------------
  Nuclear charge:   2.00000
  Number of symmetry independent centers:    1
  This is an auxiliary basis for R12, MBSI:    2
  Basis set file used for this atomic type with Z =   2 :
     "/home/bast/DALTON-2013.0-Source/build/basis/Ahlrichs-VTZ"


                         SYMGRP: Point group information
                         -------------------------------

Point group: D2h

   * The point group was generated by:

      Reflection in the yz-plane
      Reflection in the xz-plane
      Reflection in the xy-plane

   * Group multiplication table

        |  E   C2z  C2y  C2x   i   Oxy  Oxz  Oyz
   -----+----------------------------------------
     E  |  E   C2z  C2y  C2x   i   Oxy  Oxz  Oyz
    C2z | C2z   E   C2x  C2y  Oxy   i   Oyz  Oxz
    C2y | C2y  C2x   E   C2z  Oxz  Oyz   i   Oxy
    C2x | C2x  C2y  C2z   E   Oyz  Oxz  Oxy   i 
     i  |  i   Oxy  Oxz  Oyz   E   C2z  C2y  C2x
    Oxy | Oxy   i   Oyz  Oxz  C2z   E   C2x  C2y
    Oxz | Oxz  Oyz   i   Oxy  C2y  C2x   E   C2z
    Oyz | Oyz  Oxz  Oxy   i   C2x  C2y  C2z   E 

   * Character table

        |  E   C2z  C2y  C2x   i   Oxy  Oxz  Oyz
   -----+----------------------------------------
    Ag  |   1    1    1    1    1    1    1    1
    B3u |   1   -1   -1    1   -1    1    1   -1
    B2u |   1   -1    1   -1   -1    1   -1    1
    B1g |   1    1   -1   -1    1    1   -1   -1
    B1u |   1    1   -1   -1   -1   -1    1    1
    B2g |   1   -1    1   -1    1   -1    1   -1
    B3g |   1   -1   -1    1    1   -1   -1    1
    Au  |   1    1    1    1   -1   -1   -1   -1

   * Direct product table

        | Ag   B3u  B2u  B1g  B1u  B2g  B3g  Au 
   -----+----------------------------------------
    Ag  | Ag   B3u  B2u  B1g  B1u  B2g  B3g  Au 
    B3u | B3u  Ag   B1g  B2u  B2g  B1u  Au   B3g
    B2u | B2u  B1g  Ag   B3u  B3g  Au   B1u  B2g
    B1g | B1g  B2u  B3u  Ag   Au   B3g  B2g  B1u
    B1u | B1u  B2g  B3g  Au   Ag   B3u  B2u  B1g
    B2g | B2g  B1u  Au   B3g  B3u  Ag   B1g  B2u
    B3g | B3g  Au   B1u  B2g  B2u  B1g  Ag   B3u
    Au  | Au   B3g  B2g  B1u  B1g  B2u  B3u  Ag 


                                 Isotopic Masses
                                 ---------------

                           He          4.002603
                           He          0.000000

                       Total mass:     4.002603 amu
                       Natural abundance:   0.000 %

 Center-of-mass coordinates (a.u.):    0.000000    0.000000    0.000000


  Atoms and basis sets
  --------------------

  Number of atom types :    2
  Total number of atoms:    2

  Basis set 1 refers to the basis "Ahlrichs-VDZ" from the basis set library.

  Basis set 2 refers to the basis "Ahlrichs-VTZ" from the basis set library.

  label  basis   atoms  charge   prim  cont     basis
  ------------------------------------------------------------------------------
  He       1       1    2.0000     4     2      [4s|2s]                                            
  He       2       1    0.0000     5     3      [5s|3s]                                            
  ------------------------------------------------------------------------------
  total:           2    2.0000     9     5
  ------------------------------------------------------------------------------

  Threshold for neglecting AO integrals:  1.00D-15


  Cartesian Coordinates (a.u.)
  ----------------------------

  Total number of coordinates:    6
  He      :     1  x   0.0000000000    2  y   0.0000000000    3  z   0.0000000000
  He      :     4  x   0.0000000000    5  y   0.0000000000    6  z   0.0000000000


  Symmetry Coordinates
  --------------------

  Number of coordinates in each symmetry:     0    2    2    0    2    0    0    0

  Symmetry  B3u ( 2)

    1   He    x    1
    2   He    x    4

  Symmetry  B2u ( 3)

    3   He    y    2
    4   He    y    5

  Symmetry  B1u ( 5)

    5   He    z    3
    6   He    z    6


  Bond distances (Angstrom):
  --------------------------

                  atom 1     atom 2       distance
                  ------     ------       --------




 Principal moments of inertia (u*A**2) and principal axes
 --------------------------------------------------------

   IA       0.000000          1.000000    0.000000    0.000000
   IB       0.000000          0.000000    1.000000    0.000000
   IC       0.000000          0.000000    0.000000    1.000000


 Rotational constants
 --------------------

 All are zero as the "molecule" is an atom!



@  Nuclear repulsion energy :    0.000000000000 Hartree


  Symmetry Orbitals
  -----------------

  Number of orbitals in each symmetry:           5    0    0    0    0    0    0    0

  Number of main orbitals in each symmetry:           2    0    0    0    0    0    0    0
  Number of auxiliary functions in each symmetry:     3    0    0    0    0    0    0    0


  Symmetry  Ag ( 1)

    1     He   M   1s         1
    2     He   M   1s         2
    3     He   A   1s         3
    4     He   A   1s         4
    5     He   A   1s         5


  No orbitals in symmetry  B3u( 2)


  No orbitals in symmetry  B2u( 3)


  No orbitals in symmetry  B1g( 4)


  No orbitals in symmetry  B1u( 5)


  No orbitals in symmetry  B2g( 6)


  No orbitals in symmetry  B3g( 7)


  No orbitals in symmetry  Au ( 8)

  Number of floating/multiple basis set orbitals :    1

  Symmetries of electric field:  B3u(2)  B2u(3)  B1u(5)

  Symmetries of magnetic field:  B3g(7)  B2g(6)  B1g(4)


                     .---------------------------------------.
                     | Starting in Integral Section (HERMIT) |
                     `---------------------------------------'



    *************************************************************************
    ****************** Output from HERMIT input processing ******************
    *************************************************************************


 Default print level:        1

 * Nuclear model: Point charge

 Calculation of one-electron Hamiltonian integrals.

 The following one-electron property integrals are calculated as requested:
          - overlap integrals
          - Cartesian multipole moment integrals of orders 2 and lower

 Center of mass  (bohr):      0.000000000000      0.000000000000      0.000000000000
 Operator center (bohr):      0.000000000000      0.000000000000      0.000000000000
 Gauge origin    (bohr):      0.000000000000      0.000000000000      0.000000000000
 Dipole origin   (bohr):      0.000000000000      0.000000000000      0.000000000000


     ************************************************************************
     ************************** Output from HERINT **************************
     ************************************************************************

 >>>> Total CPU  time used in HERMIT:   0.00 seconds
 >>>> Total wall time used in HERMIT:   0.00 seconds


                        .----------------------------------.
                        | End of Integral Section (HERMIT) |
                        `----------------------------------'



                   .--------------------------------------------.
                   | Starting in Wave Function Section (SIRIUS) |
                   `--------------------------------------------'

 NCCEXCI for singlet:           3           3           3           3           3           3           3           3

 >>>> Detected R12 input:
 Direct Fock matrix formation switched on!
 Scale factors for CC excitations manifolds:
 for bra states (projection manifold):   1.0000000000000000     
 for ket states (operator manifold)  :   1.0000000000000000     

 **********************************************************************
 *SIRIUS* a direct, restricted step, second order MCSCF program       *
 **********************************************************************

 
     Date and time (Linux)  : Sun Sep  8 21:01:30 2013
     Host name              : lpqlx131.ups-tlse.fr                    

 Title lines from ".mol" input file:
     He                                                                      
                                                                             

 Print level on unit LUPRI =   2 is   0
 Print level on unit LUW4  =   2 is   5

@    (Integral direct) CC calculation.

@    This is a combination run starting with
@              a restricted, closed shell Hartree-Fock calculation

 Fock matrices are calculated directly without use of integrals on disk.

 Initial molecular orbitals are obtained according to
 ".MOSTART H1DIAG" input option

     Wave function specification
     ============================

     For the specification of the Coupled Cluster: see later.

@    For the wave function of type :      >>> CC <<<
@    Number of closed shell electrons           2
@    Number of electrons in active shells       0
@    Total charge of the molecule               0

@    Spin multiplicity and 2 M_S                1         0
     Total number of symmetries                 8
@    Reference state symmetry                   1

     Orbital specifications
     ======================
     Abelian symmetry species          All |    1    2    3    4    5    6    7    8
                                       --- |  ---  ---  ---  ---  ---  ---  ---  ---
     Total number of orbitals            2 |    2    0    0    0    0    0    0    0
     Number of basis functions           5 |    5    0    0    0    0    0    0    0

      ** Automatic occupation of RHF orbitals **

      -- Initial occupation of symmetries is determined from diagonal of H1 matrix.           
      -- Initial occupation of symmetries is :
@    Occupied SCF orbitals               1 |    1    0    0    0    0    0    0    0

     Maximum number of Fock   iterations      0
     Maximum number of DIIS   iterations     60
     Maximum number of QC-SCF iterations     60
     Threshold for SCF convergence     1.00D-11


 Changes of defaults for CC:
 ---------------------------


 -This is a direct atomic orbital integral based
  calculation for coupled cluster wave function
 -Excitation energies calculated
  


 >>>>> DIIS optimization of Hartree-Fock <<<<<

 C1-DIIS algorithm; max error vectors =    2

 Automatic occupation of symmetries with   2 electrons.

 Iter     Total energy    Error norm  Delta(E)    SCF occupation
 -----------------------------------------------------------------------------
   1  Screening settings (-IFTHRS, DIFDEN)   -5    T
@  1  -2.74189256114       1.35D+00  -2.74D+00     1   0   0   0   0   0   0   0
      Virial theorem: -V/T =      1.680449
@      MULPOP He     -0.00; 
 -----------------------------------------------------------------------------
   2  Screening settings (-IFTHRS, DIFDEN)   -5    T
@  2  -2.85440986875       1.13D-01  -1.13D-01     1   0   0   0   0   0   0   0
      Virial theorem: -V/T =      1.969524
@      MULPOP He      0.00; 
 -----------------------------------------------------------------------------
   3  Screening settings (-IFTHRS, DIFDEN)   -7    F
@  3  -2.85516044774       7.35D-04  -7.51D-04     1   0   0   0   0   0   0   0
      Virial theorem: -V/T =      2.000201
@      MULPOP He      0.00; 
 -----------------------------------------------------------------------------
   4  Screening settings (-IFTHRS, DIFDEN)   -9    F
@  4  -2.85516047935       3.26D-07  -3.16D-08     1   0   0   0   0   0   0   0
      Virial theorem: -V/T =      2.000000
@      MULPOP He      0.00; 
 -----------------------------------------------------------------------------
   5  Screening settings (-IFTHRS, DIFDEN)  -12    F
@  5  -2.85516047935       9.26D-13  -5.77D-15     1   0   0   0   0   0   0   0

@ *** DIIS converged in   5 iterations !
@     Converged SCF energy, gradient:     -2.855160479347    9.26D-13
    - total time used in SIRFCK :              0.00 seconds


 *** SCF orbital energy analysis ***

 Only the five lowest virtual orbital energies printed in each symmetry.

 Number of electrons :    2
 Orbital occupations :    1    0    0    0    0    0    0    0

 Sym       Hartree-Fock orbital energies

  1     -0.91415073     1.39732963

    E(LUMO) :     1.39732963 au (symmetry 1)
  - E(HOMO) :    -0.91415073 au (symmetry 1)
  ------------------------------------------
    gap     :     2.31148036 au

 >>> Writing SIRIFC interface file <<<

  Canonical primary and secondary basis sets
  ISYM       NORB1 MBAS1       NORB2 MBAS2
     1           2     2           3     3
     2           0     0           0     0
     3           0     0           0     0
     4           0     0           0     0
     5           0     0           0     0
     6           0     0           0     0
     7           0     0           0     0
     8           0     0           0     0

 Computation of exchange matrix done [6]

 AUXILIARY BASIS LOW EIGENVALUES
 ISYM         EIGENVALUE
   1      0.030850888885

 >>>> CPU and wall time for SCF :       0.003       0.003


                       .-----------------------------------.
                       | >>> Final results from SIRIUS <<< |
                       `-----------------------------------'


@    Spin multiplicity:           1
@    Spatial symmetry:            1
@    Total charge of molecule:    0

@    Final HF energy:              -2.855160479347                 
@    Nuclear repulsion:             0.000000000000
@    Electronic energy:            -2.855160479347

@    Final gradient norm:           0.000000000001

 
     Date and time (Linux)  : Sun Sep  8 21:01:30 2013
     Host name              : lpqlx131.ups-tlse.fr                    

 (Only coefficients >0.0100 are printed.)

 Molecular orbitals for symmetry species  1
 ------------------------------------------

    Orbital         1        2
   1 He  :1s     0.5926  -1.1495
   2 He  :1s     0.5130   1.1872



 >>>> Total CPU  time used in SIRIUS :      0.01 seconds
 >>>> Total wall time used in SIRIUS :      0.00 seconds

 
     Date and time (Linux)  : Sun Sep  8 21:01:30 2013
     Host name              : lpqlx131.ups-tlse.fr                    


                     .---------------------------------------.
                     | End of Wave Function Section (SIRIUS) |
                     `---------------------------------------'



                    .------------------------------------------.
                    | Starting in Coupled Cluster Section (CC) |
                    `------------------------------------------'

  

 *******************************************************************************
 *******************************************************************************
 *                                                                             *
 *                                                                             *
 *                    START OF COUPLED CLUSTER CALCULATION                     *
 *                                                                             *
 *                                                                             *
 *******************************************************************************
 *******************************************************************************



 CCR12 ANSATZ =   2

 CCR12 APPROX =  10

   NRHF   :       1       0       0       0       0       0       0       0
   NRHFS  :       1       0       0       0       0       0       0       0
   NORB1  :       2       0       0       0       0       0       0       0
   NORB2  :       3       0       0       0       0       0       0       0

 Number of primary orbitals             :            2
 Number of secondary orbitals           :            3
 Total number of orbitals               :            5
 Total number of basis functions        :            5
 Number of (i|p') integrals             :            5
 Number of (i|u') integrals             :            5
 Number of (Ip'|1/r12|jL) integrals     :            0
 Number of (ip'|1/r12|jq') integrals    :           15
 Number of (ip'|r12|jq') integrals      :           15
 Number of (ip'|[T1,r12]|jq') integrals :           25
 Threshold for R12 contributions            =  0.00000    
 Threshold for singular value decomposition = 0.100000E-11

 The B matrix is transformed into an orthogonal basis
 and inverted by diagonalization

 ******************************************************************************
 The MP2-R12/A and MP2-R12/B energies are computed as described in:
 W. Klopper and C. C. M. Samson, J. Chem. Phys. 116, 6397-6410 (2002).
 ------------------------------------------------------------------------------
 Ansatz 2 is used and results are printed for approximations A and B.
 ******************************************************************************

 Core memory required by CCSD_R12 :            180  (double words)

 Computation of (ip'|r12|jq') integrals done
 Backtransformation of (ip'|r12|jq') integrals done
 Computation of V^aj_kl intermediate done

 >>> Time used for V^aj_kl is    0.00 seconds

 Computation of (ip'|1/r12|jq') integrals done
 Computation of (ip'|r12|jq')X(p'r')(kr'|r12|lq') integrals done
 Computation of (i'p'|r12|jq') integrals done
 Computation of (ip'|[T,r12]|jq') integrals done


                 +-----------------------------------------------+
                 ! MP2-R12 ansatz := (1 - O1 - O2 + O1*O2) * R12 !
                 +-----------------------------------------------+



                         +--------------------------------+
                         ! Auxiliary-basis MP2-R12 method !
                         +--------------------------------+


 SECOND-ORDER R12/A   PAIR ENERGIES:

   1   -0.011195677   -0.039963795    0.000000000    0.000000000     3.51675        0.100000+100

       -0.011195677   -0.039963795    0.000000000    0.000000000

              MP2-R12/A   correlation energy =   -0.039963795

 SECOND-ORDER R12/B   PAIR ENERGIES:

   1   -0.011195677   -0.031243893    0.000000000    0.000000000     5.04634        0.100000+100

       -0.011195677   -0.031243893    0.000000000    0.000000000

              MP2-R12/B   correlation energy =   -0.031243893
 Time for MP2-R12 part cpu :   2.5999999999999995E-002
 Time for MP2-R12 part wall:   2.6999980211257935E-002
 Preparing R12 Ansatz 2/3 ... ONEAUX= F
   

 *******************************************************************
 *                                                                 *
 *<<<<<<<<<<                                             >>>>>>>>>>*
 *<<<<<<<<<< OUTPUT FROM COUPLED CLUSTER ENERGY PROGRAM  >>>>>>>>>>*
 *<<<<<<<<<<                                             >>>>>>>>>>*
 *                                                                 *
 *******************************************************************


             The Direct Coupled Cluster Energy Program
             -----------------------------------------


          Number of t1 amplitudes                 :         1
          Number of t2 amplitudes                 :         1
          Number of t2' amplitudes for R12 part   :         1
          Total number of amplitudes in ccsd      :         3

 Iter.  1: Coupled cluster MP2-R12/B energy :      -2.8864043722050572
     Conventional correlation energy:    -0.0074459106614988
     R12 correlation energy         :    -0.0237979821968579
     Total correlation energy       :    -0.0312438928583567

       Norm^2 of Omegar12  in NXTAM:        0.1630107105D-29
 Iter.  1: Coupled cluster CC2-R12/B energy :      -2.8864040880102562
     Conventional correlation energy:    -0.0074456264666978
     R12 correlation energy         :    -0.0237979821968576
     Total correlation energy       :    -0.0312436086635554

       Norm^2 of Omegar12  in NXTAM:        0.6146933625D-10
 Iter.  2: Coupled cluster CC2-R12/B energy :      -2.8864136428940750
     Conventional correlation energy:    -0.0074534998296163
     R12 correlation energy         :    -0.0237996637177580
     Total correlation energy       :    -0.0312531635473743

       Norm^2 of Omegar12  in NXTAM:        0.2748762642D-09
 Iter.  3: Coupled cluster CC2-R12/B energy :      -2.8864113555920232
     Conventional correlation energy:    -0.0074533205683984
     R12 correlation energy         :    -0.0237975556769241
     Total correlation energy       :    -0.0312508762453226

       Norm^2 of Omegar12  in NXTAM:        0.2029235714D-10
 Iter.  4: Coupled cluster CC2-R12/B energy :      -2.8864107990517636
     Conventional correlation energy:    -0.0074537278328051
     R12 correlation energy         :    -0.0237965918722578
     Total correlation energy       :    -0.0312503197050629

       Norm^2 of Omegar12  in NXTAM:        0.6266929506D-19
 Iter.  5: Coupled cluster CC2-R12/B energy :      -2.8864107994571215
     Conventional correlation energy:    -0.0074537286367309
     R12 correlation energy         :    -0.0237965914736901
     Total correlation energy       :    -0.0312503201104210

       Norm^2 of Omegar12  in NXTAM:        0.9001252199D-19
 Iter.  6: Coupled cluster CC2-R12/B energy :      -2.8864107990166912
     Conventional correlation energy:    -0.0074537277632483
     R12 correlation energy         :    -0.0237965919067424
     Total correlation energy       :    -0.0312503196699907

       Norm^2 of Omegar12  in NXTAM:        0.8877785659D-19
 Iter.  7: Coupled cluster CC2-R12/B energy :      -2.8864107992695716
     Conventional correlation energy:    -0.0074537282647724
     R12 correlation energy         :    -0.0237965916580985
     Total correlation energy       :    -0.0312503199228709

       Norm^2 of Omegar12  in NXTAM:        0.2059523742D-20
 Iter.  8: Coupled cluster CC2-R12/B energy :      -2.8864107992408425
     Conventional correlation energy:    -0.0074537282077953
     R12 correlation energy         :    -0.0237965916863465
     Total correlation energy       :    -0.0312503198941418

       Norm^2 of Omegar12  in NXTAM:        0.4065068264D-22
 Iter.  9: Coupled cluster CC2-R12/B energy :      -2.8864107992334960
     Conventional correlation energy:    -0.0074537281992999
     R12 correlation energy         :    -0.0237965916874955
     Total correlation energy       :    -0.0312503198867954


 CC2-R12/B energy converged to within   0.10D-10 is           -2.886410799233
 Final 2-norm of the CC vector function:  1.74998985D-10
 R12       energy converged to within   0.10D-10 is     -0.023796592





             +-------------------------------------------------------+
             ! Final results from the Coupled Cluster energy program !
             +-------------------------------------------------------+



            Total SCF   energy:                    -2.8551604793

            Total MP2-R12/B energy:                -2.8864043722

            Total CC2-R12/B energy:                -2.8864107992




                   +--------------------------------------------+
                   ! Calculating singlet intermediates for CCLR !
                   +--------------------------------------------+





            E-intermediates calculated 
            Fock-intermediate calculated 


   

 *******************************************************************
 *                                                                 *
 *<<<<<<<<<< OUTPUT FROM COUPLED CLUSTER LINEAR RESPONSE >>>>>>>>>>*
 *                                                                 *
 *<<<<<<<<<<     CALCULATION OF EXCITATION ENERGIES      >>>>>>>>>>*
 *                                                                 *
 *******************************************************************



                            +--------------------------+
                            !  CC2 Excitation Energies !
                            +--------------------------+


 --------------------------
 Symmetry class Nr.:     1
 Multiplicity      :     1
 --------------------------

 Length of Excitation vectors in this class is:         3
 Converging for  3 roots.
  >> output from FNDMN3 <<
  NUMBER OF ELEMENTS OBTAINED IN FNDMN3            3
  MIN AND MAX IN SELECTED SUPSPACE    2.3114803577645664        10.000000000000000     
 Start vector guessed from diagonal
 ... selected element no.  1
 Start vector guessed from diagonal
 ... selected element no.  2
 Start vector guessed from diagonal
 ... selected element no.  3



 >>>>> COUPLED CLUSTER RESPONSE SOLVER <<<<<

    Iter  #Vectors  time (min)   residual
    --------------------------------------

 REDUCED EIGENVALUES real part:

               Column   1
       1       1.93753174
       2       4.62294273
       3       5.39117602
    ==== End of matrix output ====
  
 ROOT:  1 RESIDUAL TOT: 5.21313D-16
 ROOT:  1 HAS CONVERGED. RESIDUAL TOT: 5.21313D-16
 ROOT:  2 RESIDUAL TOT: 1.47809D-15
 ROOT:  2 HAS CONVERGED. RESIDUAL TOT: 1.47809D-15
 ROOT:  3 RESIDUAL TOT: 1.70016D-16
 ROOT:  3 HAS CONVERGED. RESIDUAL TOT: 1.70016D-16
      1       3         0.00     0.15E-14
 >>> TIME USED IN THIS MICRO ITERATION        0.02

    --------------------------------------
    converged in  1 iterations
    threshold:    0.10E-07


         Routine          Time (min)
         ---------------------------
         CC_TRDRV            0.00
         CCRED               0.00
         CCNEX               0.00
         ---------------------------
         Total time          0.00


 >>>> Total CPU  time used in CCEQ_SOLV:   0.02 seconds
 >>>> Total wall time used in CCEQ_SOLV:   0.02 seconds


 >>>>>>>>>>>>>>>>>>>>> <<<<<<<<<<<<<<<<<<<<<



  Final eigenvalues :
 =====================
 (convergence threshold:  1.00D-08)

    1   1.9375317433
    2   4.6229427279
    3   5.3911760192


 SYMMETRY CLASS NR.    1
 MULTIPLICITY          1


 CC2-R12/B  right excitation energies:
 ====================================
 (conversion factor used: 1 au = 27.2113957 eV)

 Excitation no.       Hartree               eV 
 --------------       -------               --
         1            1.9375317433       52.7229206866
         2            4.6229427279      125.7966707489
         3            5.3911760192      146.7013620017


 Total excited state energies for states of symmetry/spin    1    1
 Excitation no.       Energy (Hartree) 
 ------------------------------------- 
@@    1    1            -0.948879055909986
@@    1    2             1.736531928643930
@@    1    3             2.504765219956952


 Analysis of the Coupled Cluster Excitation Vector Number :  1
 -------------------------------------------------------------

          Excitation Energy :                            52.7229 eV


          CC_PRAM:Overall Contribution of the Different Components
          --------------------------------------------------------



          Single Excitation Contribution :              99.9461 %

          Double Excitation Contribution :               0.0539 %

          ||T1||/||T2||                  :              43.0420

          Norm of Total Amplitude Vector :               1.0000


 +=============================================================================+
 | symmetry|  orbital index  |   Excitation Numbers             |   Amplitude  |
 |  Index  |   a   b   i   j |      NAI      NBJ |     NAIBJ    |              |
 +=============================================================================+
 | 1   1   |   1       1     |        1          |              |    0.999734  |
 +-----------------------------------------------------------------------------+
 | 1 1 1 1 |   1   1   1   1 |        1        1 |            1 |   -0.023227  |
 +=============================================================================+


          Norm of Printed Amplitude Vector :             1.0000

          Printed all single excitations greater than 0.249933

          Printed all double excitations greater than 0.010000


 Analysis of the Coupled Cluster Excitation Vector Number :  2
 -------------------------------------------------------------

          Excitation Energy :                           125.7967 eV


          CC_PRAM:Overall Contribution of the Different Components
          --------------------------------------------------------



          Single Excitation Contribution :               0.2026 %

          Double Excitation Contribution :              99.7974 %

          ||T1||/||T2||                  :               0.0451

          Norm of Total Amplitude Vector :               1.0084


 +=============================================================================+
 | symmetry|  orbital index  |   Excitation Numbers             |   Amplitude  |
 |  Index  |   a   b   i   j |      NAI      NBJ |     NAIBJ    |              |
 +=============================================================================+
 | 1   1   |   1       1     |        1          |              |    0.045383  |
 +-----------------------------------------------------------------------------+
 | 1 1 1 1 |   1   1   1   1 |        1        1 |            1 |    1.007341  |
 +=============================================================================+


          Norm of Printed Amplitude Vector :             1.0084

          Printed all single excitations greater than 0.011252

          Printed all double excitations greater than 0.249747


 Analysis of the Coupled Cluster Excitation Vector Number :  3
 -------------------------------------------------------------

          Excitation Energy :                           146.7014 eV


          CC_PRAM:Overall Contribution of the Different Components
          --------------------------------------------------------



          Single Excitation Contribution :               0.0087 %

          Double Excitation Contribution :              99.9913 %

          ||T1||/||T2||                  :               0.0093

          Norm of Total Amplitude Vector :               0.0999


 +=============================================================================+
 | symmetry|  orbital index  |   Excitation Numbers             |   Amplitude  |
 |  Index  |   a   b   i   j |      NAI      NBJ |     NAIBJ    |              |
 +=============================================================================+
 | 1   1   |   1       1     |        1          |              |    0.000933  |
 +-----------------------------------------------------------------------------+
 | 1 1 1 1 |   1   1   1   1 |        1        1 |            1 |    0.099890  |
 +=============================================================================+


          Norm of Printed Amplitude Vector :             0.0999

          Printed all single excitations greater than 0.000400

          Printed all double excitations greater than 0.049998

 --------------------------
 Symmetry class Nr.:     1
 Multiplicity      :     3
 --------------------------

 Length of Excitation vectors in this class is:         4
 No Excitation Energies calculated in this symmetry class


 *******************************************************************************

 --------------------------
 Symmetry class Nr.:     2
 Multiplicity      :     1
 --------------------------

 Length of Excitation vectors in this class is:         0
 Demand for more excitation energies than amplitudes with this symmetry/multiplicity!!!!
 Nr. of amplitudes with symmetry            2  and multiplicity            1  is            0
 Nr. of exci.e. requested with sym            2  IS            3
 No Excitation Energies calculated in this symmetry class


 *******************************************************************************

 --------------------------
 Symmetry class Nr.:     2
 Multiplicity      :     3
 --------------------------

 Length of Excitation vectors in this class is:         0
 No Excitation Energies calculated in this symmetry class


 *******************************************************************************

 --------------------------
 Symmetry class Nr.:     3
 Multiplicity      :     1
 --------------------------

 Length of Excitation vectors in this class is:         0
 Demand for more excitation energies than amplitudes with this symmetry/multiplicity!!!!
 Nr. of amplitudes with symmetry            3  and multiplicity            1  is            0
 Nr. of exci.e. requested with sym            3  IS            3
 No Excitation Energies calculated in this symmetry class


 *******************************************************************************

 --------------------------
 Symmetry class Nr.:     3
 Multiplicity      :     3
 --------------------------

 Length of Excitation vectors in this class is:         0
 No Excitation Energies calculated in this symmetry class


 *******************************************************************************

 --------------------------
 Symmetry class Nr.:     4
 Multiplicity      :     1
 --------------------------

 Length of Excitation vectors in this class is:         0
 Demand for more excitation energies than amplitudes with this symmetry/multiplicity!!!!
 Nr. of amplitudes with symmetry            4  and multiplicity            1  is            0
 Nr. of exci.e. requested with sym            4  IS            3
 No Excitation Energies calculated in this symmetry class


 *******************************************************************************

 --------------------------
 Symmetry class Nr.:     4
 Multiplicity      :     3
 --------------------------

 Length of Excitation vectors in this class is:         0
 No Excitation Energies calculated in this symmetry class


 *******************************************************************************

 --------------------------
 Symmetry class Nr.:     5
 Multiplicity      :     1
 --------------------------

 Length of Excitation vectors in this class is:         0
 Demand for more excitation energies than amplitudes with this symmetry/multiplicity!!!!
 Nr. of amplitudes with symmetry            5  and multiplicity            1  is            0
 Nr. of exci.e. requested with sym            5  IS            3
 No Excitation Energies calculated in this symmetry class


 *******************************************************************************

 --------------------------
 Symmetry class Nr.:     5
 Multiplicity      :     3
 --------------------------

 Length of Excitation vectors in this class is:         0
 No Excitation Energies calculated in this symmetry class


 *******************************************************************************

 --------------------------
 Symmetry class Nr.:     6
 Multiplicity      :     1
 --------------------------

 Length of Excitation vectors in this class is:         0
 Demand for more excitation energies than amplitudes with this symmetry/multiplicity!!!!
 Nr. of amplitudes with symmetry            6  and multiplicity            1  is            0
 Nr. of exci.e. requested with sym            6  IS            3
 No Excitation Energies calculated in this symmetry class


 *******************************************************************************

 --------------------------
 Symmetry class Nr.:     6
 Multiplicity      :     3
 --------------------------

 Length of Excitation vectors in this class is:         0
 No Excitation Energies calculated in this symmetry class


 *******************************************************************************

 --------------------------
 Symmetry class Nr.:     7
 Multiplicity      :     1
 --------------------------

 Length of Excitation vectors in this class is:         0
 Demand for more excitation energies than amplitudes with this symmetry/multiplicity!!!!
 Nr. of amplitudes with symmetry            7  and multiplicity            1  is            0
 Nr. of exci.e. requested with sym            7  IS            3
 No Excitation Energies calculated in this symmetry class


 *******************************************************************************

 --------------------------
 Symmetry class Nr.:     7
 Multiplicity      :     3
 --------------------------

 Length of Excitation vectors in this class is:         0
 No Excitation Energies calculated in this symmetry class


 *******************************************************************************

 --------------------------
 Symmetry class Nr.:     8
 Multiplicity      :     1
 --------------------------

 Length of Excitation vectors in this class is:         0
 Demand for more excitation energies than amplitudes with this symmetry/multiplicity!!!!
 Nr. of amplitudes with symmetry            8  and multiplicity            1  is            0
 Nr. of exci.e. requested with sym            8  IS            3
 No Excitation Energies calculated in this symmetry class


 *******************************************************************************

 --------------------------
 Symmetry class Nr.:     8
 Multiplicity      :     3
 --------------------------

 Length of Excitation vectors in this class is:         0
 No Excitation Energies calculated in this symmetry class
  

 *******************************************************************************
 *******************************************************************************
 *                                                                             *
 *                                                                             *
 *                   SUMMARY OF COUPLED CLUSTER CALCULATION                    *
 *                                                                             *
 *                                                                             *
 *******************************************************************************
 *******************************************************************************

                                                                                
                                                                                
            Total SCF   energy:                    -2.8551604793                
            Total MP2-R12/B energy:                -2.8864043722                
            Total CC2-R12/B energy:                -2.8864107992                
                                                                                
                                                                                
 +=============================================================================+
 |  sym. | Exci.  |        CC2-R12/B  Excitation energies            | ||T1||  |
 |(spin, |        +------------------------------------------------------------+
 | spat) |        |     Hartree    |       eV.      |     cm-1       |    %    |
 +=============================================================================+
 | ^1Ag  |    1   |     1.9375317  |      52.72292  |    425239.061  |  99.95  |
 | ^1Ag  |    2   |     4.6229427  |     125.79667  |   1014618.642  |   0.20  |
 | ^1Ag  |    3   |     5.3911760  |     146.70136  |   1183226.359  |   0.01  |
 +=============================================================================+
                                                                                
                                                                                
     Total energies in Hartree:                                                 
             1 ^1Ag        -0.9488790559                                        
             2 ^1Ag         1.7365319286                                        
             3 ^1Ag         2.5047652200                                        

  1 a.u. =        27.21138 eV.  
  1 a.u. =    219474.62934 cm-1.
  

 *******************************************************************************
 *******************************************************************************
 *                                                                             *
 *                                                                             *
 *                      END OF COUPLED CLUSTER CALCULATION                     *
 *                                                                             *
 *                                                                             *
 *******************************************************************************
 *******************************************************************************


 >>>> CPU and wall time for CC :       0.114       0.125

 
     Date and time (Linux)  : Sun Sep  8 21:01:31 2013
     Host name              : lpqlx131.ups-tlse.fr                    


                      .-------------------------------------.
                      | End of Coupled Cluster Section (CC) |
                      `-------------------------------------'

 >>>> Total CPU  time used in DALTON:   0.13 seconds
 >>>> Total wall time used in DALTON:   0.14 seconds

 
     Date and time (Linux)  : Sun Sep  8 21:01:31 2013
     Host name              : lpqlx131.ups-tlse.fr                    
