

     ************************************************************************
     *************** Dalton - An Electronic Structure Program ***************
     ************************************************************************

    This is output from DALTON (Release Dalton2013 patch 0)
   ----------------------------------------------------------------------------
    NOTE:
     
    Dalton is an experimental code for the evaluation of molecular
    properties using (MC)SCF, DFT, CI, and CC wave functions.
    The authors accept no responsibility for the performance of
    the code or for the correctness of the results.
     
    The code (in whole or part) is provided under a licence and
    is not to be reproduced for further distribution without
    the written permission of the authors or their representatives.
     
    See the home page "http://daltonprogram.org" for further information.
     
    If results obtained with this code are published,
    the appropriate citations would be both of:
     
       K. Aidas, C. Angeli, K. L. Bak, V. Bakken, R. Bast,
       L. Boman, O. Christiansen, R. Cimiraglia, S. Coriani,
       P. Dahle, E. K. Dalskov, U. Ekstroem, T. Enevoldsen,
       J. J. Eriksen, P. Ettenhuber, B. Fernandez, L. Ferrighi,
       H. Fliegl, L. Frediani, K. Hald, A. Halkier, C. Haettig,
       H. Heiberg, T. Helgaker, A. C. Hennum, H. Hettema,
       E. Hjertenaes, S. Hoest, I.-M. Hoeyvik, M. F. Iozzi,
       B. Jansik, H. J. Aa. Jensen, D. Jonsson, P. Joergensen,
       J. Kauczor, S. Kirpekar, T. Kjaergaard, W. Klopper,
       S. Knecht, R. Kobayashi, H. Koch, J. Kongsted, A. Krapp,
       K. Kristensen, A. Ligabue, O. B. Lutnaes, J. I. Melo,
       K. V. Mikkelsen, R. H. Myhre, C. Neiss, C. B. Nielsen,
       P. Norman, J. Olsen, J. M. H. Olsen, A. Osted,
       M. J. Packer, F. Pawlowski, T. B. Pedersen, P. F. Provasi,
       S. Reine, Z. Rinkevicius, T. A. Ruden, K. Ruud, V. Rybkin,
       P. Salek, C. C. M. Samson, A. Sanchez de Meras, T. Saue,
       S. P. A. Sauer, B. Schimmelpfennig, K. Sneskov,
       A. H. Steindal, K. O. Sylvester-Hvid, P. R. Taylor,
       A. M. Teale, E. I. Tellgren, D. P. Tew, A. J. Thorvaldsen,
       L. Thoegersen, O. Vahtras, M. A. Watson, D. J. D. Wilson,
       M. Ziolkowski and H. Agren.
       The Dalton quantum chemistry program system.
       WIREs Comput. Mol. Sci. 2013. doi: 10.1002/wcms.1172
    
    and
    
       Dalton, a Molecular Electronic Structure Program,
       Release DALTON2013.0 (2013), see http://daltonprogram.org
   ----------------------------------------------------------------------------

    Authors in alphabetical order (major contribution(s) in parenthesis):

  Kestutis Aidas,           Vilnius University,           Lithuania   (QM/MM)
  Celestino Angeli,         University of Ferrara,        Italy       (NEVPT2)
  Keld L. Bak,              UNI-C,                        Denmark     (AOSOPPA, non-adiabatic coupling, magnetic properties)
  Vebjoern Bakken,          University of Oslo,           Norway      (DALTON; geometry optimizer, symmetry detection)
  Radovan Bast,             KTH Stockholm                 Sweden      (DALTON installation and execution frameworks)
  Linus Boman,              NTNU,                         Norway      (Cholesky decomposition and subsystems)
  Ove Christiansen,         Aarhus University,            Denmark     (CC module)
  Renzo Cimiraglia,         University of Ferrara,        Italy       (NEVPT2)
  Sonia Coriani,            University of Trieste,        Italy       (CC module, MCD in RESPONS)
  Paal Dahle,               University of Oslo,           Norway      (Parallelization)
  Erik K. Dalskov,          UNI-C,                        Denmark     (SOPPA)
  Thomas Enevoldsen,        Univ. of Southern Denmark,    Denmark     (SOPPA)
  Janus J. Eriksen,         Aarhus University,            Denmark     (PE-MP2/SOPPA, TDA)
  Berta Fernandez,          U. of Santiago de Compostela, Spain       (doublet spin, ESR in RESPONS)
  Lara Ferrighi,            Aarhus University,            Denmark     (PCM Cubic response)
  Heike Fliegl,             University of Oslo,           Norway      (CCSD(R12))
  Luca Frediani,            UiT The Arctic U. of Norway,  Norway      (PCM)
  Bin Gao,                  UiT The Arctic U. of Norway,  Norway      (Gen1Int library)
  Christof Haettig,         Ruhr-University Bochum,       Germany     (CC module)
  Kasper Hald,              Aarhus University,            Denmark     (CC module)
  Asger Halkier,            Aarhus University,            Denmark     (CC module)
  Hanne Heiberg,            University of Oslo,           Norway      (geometry analysis, selected one-electron integrals)
  Trygve Helgaker,          University of Oslo,           Norway      (DALTON; ABACUS, ERI, DFT modules, London, and much more)
  Alf Christian Hennum,     University of Oslo,           Norway      (Parity violation)
  Hinne Hettema,            University of Auckland,       New Zealand (quadratic response in RESPONS; SIRIUS supersymmetry)
  Eirik Hjertenaes,         NTNU,                         Norway      (Cholesky decomposition)
  Maria Francesca Iozzi,    University of Oslo,           Norway      (RPA)
  Brano Jansik              Technical Univ. of Ostrava    Czech Rep.  (DFT cubic response)
  Hans Joergen Aa. Jensen,  Univ. of Southern Denmark,    Denmark     (DALTON; SIRIUS, RESPONS, ABACUS modules, London, and much more)
  Dan Jonsson,              UiT The Arctic U. of Norway,  Norway      (cubic response in RESPONS module)
  Poul Joergensen,          Aarhus University,            Denmark     (RESPONS, ABACUS, and CC modules)
  Joanna Kauczor,           Linkoeping University,        Sweden      (Complex polarization propagator (CPP) module)
  Sheela Kirpekar,          Univ. of Southern Denmark,    Denmark     (Mass-velocity & Darwin integrals)
  Wim Klopper,              KIT Karlsruhe,                Germany     (R12 code in CC, SIRIUS, and ABACUS modules)
  Stefan Knecht,            ETH Zurich,                   Switzerland (Parallel CI and MCSCF)
  Rika Kobayashi,           Australian National Univ.,    Australia   (DIIS in CC, London in MCSCF)
  Henrik Koch,              NTNU,                         Norway      (CC module, Cholesky decomposition)
  Jacob Kongsted,           Univ. of Southern Denmark,    Denmark     (Polarizable embedding, QM/MM)
  Andrea Ligabue,           University of Modena,         Italy       (CTOCD, AOSOPPA)
  Ola B. Lutnaes,           University of Oslo,           Norway      (DFT Hessian)
  Juan I. Melo,             University of Buenos Aires,   Argentina   (LRESC, Relativistic Effects on NMR Shieldings)
  Kurt V. Mikkelsen,        University of Copenhagen,     Denmark     (MC-SCRF and QM/MM)
  Rolf H. Myhre,            NTNU,                         Norway      (Cholesky, subsystems and ECC2)
  Christian Neiss,          Univ. Erlangen-Nuernberg,     Germany     (CCSD(R12))
  Christian B. Nielsen,     University of Copenhagen,     Denmark     (QM/MM)
  Patrick Norman,           Linkoeping University,        Sweden      (Cubic response and complex response in RESPONS)
  Jeppe Olsen,              Aarhus University,            Denmark     (SIRIUS CI/density modules)
  Jogvan Magnus H. Olsen,   Univ. of Southern Denmark,    Denmark     (Polarizable embedding, PE library, QM/MM)
  Anders Osted,             Copenhagen University,        Denmark     (QM/MM)
  Martin J. Packer,         University of Sheffield,      UK          (SOPPA)
  Filip Pawlowski,          Kazimierz Wielki University   Poland      (CC3)
  Thomas B. Pedersen,       University of Oslo,           Norway      (Cholesky decomposition)
  Patricio F. Provasi,      University of Northeastern,   Argentina   (Analysis of coupling constants in localized orbitals)
  Zilvinas Rinkevicius,     KTH Stockholm,                Sweden      (open-shell DFT, ESR)
  Elias Rudberg,            KTH Stockholm,                Sweden      (DFT grid and basis info)
  Torgeir A. Ruden,         University of Oslo,           Norway      (Numerical derivatives in ABACUS)
  Kenneth Ruud,             UiT The Arctic U. of Norway,  Norway      (DALTON; ABACUS magnetic properties and  much more)
  Pawel Salek,              KTH Stockholm,                Sweden      (DALTON; DFT code)
  Claire C. M. Samson       University of Karlsruhe       Germany     (Boys localization, r12 integrals in ERI)
  Alfredo Sanchez de Meras, University of Valencia,       Spain       (CC module, Cholesky decomposition)
  Trond Saue,               Paul Sabatier University,     France      (direct Fock matrix construction)
  Stephan P. A. Sauer,      University of Copenhagen,     Denmark     (SOPPA(CCSD), SOPPA prop., AOSOPPA, vibrational g-factors)
  Bernd Schimmelpfennig,    Forschungszentrum Karlsruhe,  Germany     (AMFI module)
  Kristian Sneskov,         Aarhus University,            Denmark     (QM/MM, PE-CC)
  Arnfinn H. Steindal,      UiT The Arctic U. of Norway,  Norway      (parallel QM/MM)
  K. O. Sylvester-Hvid,     University of Copenhagen,     Denmark     (MC-SCRF)
  Peter R. Taylor,          VLSCI/Univ. of Melbourne,     Australia   (Symmetry handling ABACUS, integral transformation)
  Andrew M. Teale,          University of Nottingham,     England     (DFT-AC, DFT-D)
  David P. Tew,             University of Bristol,        England     (CCSD(R12))
  Olav Vahtras,             KTH Stockholm,                Sweden      (triplet response, spin-orbit, ESR, TDDFT, open-shell DFT)
  David J. Wilson,          La Trobe University,          Australia   (DFT Hessian and DFT magnetizabilities)
  Hans Agren,               KTH Stockholm,                Sweden      (SIRIUS module, RESPONS, MC-SCRF solvation model)
 --------------------------------------------------------------------------------

     Date and time (Linux)  : Sun Sep  8 21:05:47 2013
     Host name              : lpqlx131.ups-tlse.fr                    

 * Work memory size             :    64000000 =  488.28 megabytes.

 * Directories for basis set searches:
   1) /home/bast/DALTON-2013.0-Source/build/test_cc2_r12_aux_ch4_sym_lr_nondir
   2) /home/bast/DALTON-2013.0-Source/build/basis


Compilation information
-----------------------

 Who compiled             | bast
 Host                     | lpqlx131.ups-tlse.fr
 System                   | Linux-3.8.5-201.fc18.x86_64
 CMake generator          | Unix Makefiles
 Processor                | x86_64
 64-bit integers          | OFF
 MPI                      | OFF
 Fortran compiler         | /usr/bin/gfortran
 Fortran compiler version | GNU Fortran (GCC) 4.7.2 20121109 (Red Hat 4.7.2-8)
 C compiler               | /usr/bin/gcc
 C compiler version       | gcc (GCC) 4.7.2 20121109 (Red Hat 4.7.2-8)
 C++ compiler             | /usr/bin/g++
 C++ compiler version     | g++ (GCC) 4.7.2 20121109 (Red Hat 4.7.2-8)
 Static linking           | OFF
 Last Git revision        | f34203295a86316e27f9e7b44f9b6769c4a046c0
 Configuration time       | 2013-09-08 20:31:27.952056


   Content of the .dal input file
 ----------------------------------

**DALTON INPUT                                    
.RUN WAVE FUNCTION                                
*MOLBAS                                           
.R12AUX                                           
**INTEGRALS                                       
.R12                                              
.DIPLEN                                           
.SECMOM                                           
**WAVE FUNCTIONS                                  
.CC                                               
*SCF INPUT                                        
.THRESHOLD                                        
 1.0D-10                                          
*ORBITALS                                         
.MOSTART                                          
 H1DIAG                                           
*CC INPUT                                         
.CC2                                              
.PRINT                                            
 3                                                
.FREEZE                                           
 1 0                                              
.THRENR                                           
 1.0D-14                                          
.THRLEQ                                           
 1.0D-12                                          
*CCLR                                             
.OPERAT                                           
XDIPLEN XDIPLEN                                   
ZDIPLEN ZDIPLEN                                   
XXSECMOMXDIPLEN                                   
XXSECMOMZDIPLEN                                   
XXSECMOMXXSECMOM                                  
*R12 INPUT                                        
.CC2                                              
 1A                                               
**END OF DALTON INPUT                             


   Content of the .mol file
 ----------------------------

BASIS                                                                          
6-311G** 6-311++G(3df,3pd)                                                     
nondir MP2-R12/A  linear response using symmetry                               
                                                                               
    4    2 XY XZ                                                               
 1      6.    1                                                                
C      0.000000000000000   0.000000000000000   0.000000000000000       *       
 1      1.    1                                                                
H      1.276731000000000   1.276731000000000   1.276731000000000       *       
 2      6.    1                                                                
C      0.000000000000000   0.000000000000000   0.000000000000000       *       
 2      1.    1                                                                
H      1.276731000000000   1.276731000000000   1.276731000000000       *       


       *******************************************************************
       *********** Output from DALTON general input processing ***********
       *******************************************************************

 --------------------------------------------------------------------------------
   Overall default print level:    0
   Print level for DALTON.STAT:    1

    HERMIT 1- and 2-electron integral sections will be executed
    "Old" integral transformation used (limited to max 255 basis functions)
    Wave function sections will be executed (SIRIUS module)
 --------------------------------------------------------------------------------


 Changes of defaults for *MOLBAS:
 --------------------------------

 Print level in molecule setup (READIN):    1

 .R12AUX: Reading auxiliary basis sets from .mol file for R12



   ****************************************************************************
   *************** Output of molecule and basis set information ***************
   ****************************************************************************


    The two title cards from your ".mol" input:
    ------------------------------------------------------------------------
 1: nondir MP2-R12/A  linear response using symmetry                        
 2:                                                                         
    ------------------------------------------------------------------------

  Atomic type no.    1
  --------------------
  Nuclear charge:   6.00000
  Number of symmetry independent centers:    1
  Number of basis sets to read;    1
  Basis set file used for this atomic type with Z =   6 :
     "/home/bast/DALTON-2013.0-Source/build/basis/6-311G**"

  Info about the basis set file: your basis has no documentation.
  Basis set: 6-311G**                                                                        

  Atomic type no.    2
  --------------------
  Nuclear charge:   1.00000
  Number of symmetry independent centers:    1
  Number of basis sets to read;    1
  Basis set file used for this atomic type with Z =   1 :
     "/home/bast/DALTON-2013.0-Source/build/basis/6-311G**"

  Info about the basis set file: your basis has no documentation.
  Basis set: 6-311G**                                                                        

  Atomic type no.    3
  --------------------
  Nuclear charge:   6.00000
  Number of symmetry independent centers:    1
  This is an auxiliary basis for R12, MBSI:    2
  Basis set file used for this atomic type with Z =   6 :
     "/home/bast/DALTON-2013.0-Source/build/basis/6-311++G(3df,3pd)"

  Info about the basis set file: your basis has no documentation.
  Basis set: 6-311++G(3df,3pd)                                                               

  Atomic type no.    4
  --------------------
  Nuclear charge:   1.00000
  Number of symmetry independent centers:    1
  This is an auxiliary basis for R12, MBSI:    2
  Basis set file used for this atomic type with Z =   1 :
     "/home/bast/DALTON-2013.0-Source/build/basis/6-311++G(3df,3pd)"

  Info about the basis set file: your basis has no documentation.
  Basis set: 6-311++G(3df,3pd)                                                               


                         SYMGRP: Point group information
                         -------------------------------

Point group: D2 

   * The point group was generated by:

      Rotation about the z-axis
      Rotation about the y-axis

   * Group multiplication table

        |  E   C2z  C2y  C2x
   -----+--------------------
     E  |  E   C2z  C2y  C2x
    C2z | C2z   E   C2x  C2y
    C2y | C2y  C2x   E   C2z
    C2x | C2x  C2y  C2z   E 

   * Character table

        |  E   C2z  C2y  C2x
   -----+--------------------
    A   |   1    1    1    1
    B2  |   1   -1    1   -1
    B1  |   1    1   -1   -1
    B3  |   1   -1   -1    1

   * Direct product table

        | A    B2   B1   B3 
   -----+--------------------
    A   | A    B2   B1   B3 
    B2  | B2   A    B3   B1 
    B1  | B1   B3   A    B2 
    B3  | B3   B1   B2   A  


                                 Isotopic Masses
                                 ---------------

                           C          12.000000
                           H   _1      1.007825
                           H   _2      1.007825
                           H   _3      1.007825
                           H   _4      1.007825
                           C           0.000000
                           H   _1      0.000000
                           H   _2      0.000000
                           H   _3      0.000000
                           H   _4      0.000000

                       Total mass:    16.031300 amu
                       Natural abundance:   0.000 %

 Center-of-mass coordinates (a.u.):    0.000000    0.000000    0.000000


  Atoms and basis sets
  --------------------

  Number of atom types :    4
  Total number of atoms:   10

  Basis set 1 refers to the basis "6-311G**" from the basis set library.

  Basis set 2 refers to the basis "6-311++G(3df,3pd)" from the basis set library.

  label  basis   atoms  charge   prim  cont     basis
  ------------------------------------------------------------------------------
  C        1       1    6.0000    31    18      [11s5p1d|4s3p1d]                                   
  H        1       4    1.0000     8     6      [5s1p|3s1p]                                        
  C        2       1    0.0000    52    39      [12s6p3d1f|5s4p3d1f]                               
  H        2       4    0.0000    20    18      [6s3p1d|4s3p1d]                                    
  ------------------------------------------------------------------------------
  total:          10   10.0000   195   153
  ------------------------------------------------------------------------------
  Spherical harmonic basis used.

  Threshold for neglecting AO integrals:  1.00D-12


  Cartesian Coordinates (a.u.)
  ----------------------------

  Total number of coordinates:   30
  C       :     1  x   0.0000000000    2  y   0.0000000000    3  z   0.0000000000
  H   / 1 :     4  x   1.2767310000    5  y   1.2767310000    6  z   1.2767310000
  H   / 2 :     7  x  -1.2767310000    8  y  -1.2767310000    9  z   1.2767310000
  H   / 3 :    10  x  -1.2767310000   11  y   1.2767310000   12  z  -1.2767310000
  H   / 4 :    13  x   1.2767310000   14  y  -1.2767310000   15  z  -1.2767310000
  C       :    16  x   0.0000000000   17  y   0.0000000000   18  z   0.0000000000
  H   / 1 :    19  x   1.2767310000   20  y   1.2767310000   21  z   1.2767310000
  H   / 2 :    22  x  -1.2767310000   23  y  -1.2767310000   24  z   1.2767310000
  H   / 3 :    25  x  -1.2767310000   26  y   1.2767310000   27  z  -1.2767310000
  H   / 4 :    28  x   1.2767310000   29  y  -1.2767310000   30  z  -1.2767310000


  Symmetry Coordinates
  --------------------

  Number of coordinates in each symmetry:     6    8    8    8

  Symmetry  A   ( 1)

    1   H     x    [  4  -    7  -   10  +   13 ]/4
    2   H     y    [  5  -    8  +   11  -   14 ]/4
    3   H     z    [  6  +    9  -   12  -   15 ]/4
    4   H     x    [ 19  -   22  -   25  +   28 ]/4
    5   H     y    [ 20  -   23  +   26  -   29 ]/4
    6   H     z    [ 21  +   24  -   27  -   30 ]/4

  Symmetry  B2  ( 2)

    7   C     y    2
    8   H     x    [  4  +    7  -   10  -   13 ]/4
    9   H     y    [  5  +    8  +   11  +   14 ]/4
   10   H     z    [  6  -    9  -   12  +   15 ]/4
   11   C     y   17
   12   H     x    [ 19  +   22  -   25  -   28 ]/4
   13   H     y    [ 20  +   23  +   26  +   29 ]/4
   14   H     z    [ 21  -   24  -   27  +   30 ]/4

  Symmetry  B1  ( 3)

   15   C     z    3
   16   H     x    [  4  -    7  +   10  -   13 ]/4
   17   H     y    [  5  -    8  -   11  +   14 ]/4
   18   H     z    [  6  +    9  +   12  +   15 ]/4
   19   C     z   18
   20   H     x    [ 19  -   22  +   25  -   28 ]/4
   21   H     y    [ 20  -   23  -   26  +   29 ]/4
   22   H     z    [ 21  +   24  +   27  +   30 ]/4

  Symmetry  B3  ( 4)

   23   C     x    1
   24   H     x    [  4  +    7  +   10  +   13 ]/4
   25   H     y    [  5  +    8  -   11  -   14 ]/4
   26   H     z    [  6  -    9  +   12  -   15 ]/4
   27   C     x   16
   28   H     x    [ 19  +   22  +   25  +   28 ]/4
   29   H     y    [ 20  +   23  -   26  -   29 ]/4
   30   H     z    [ 21  -   24  +   27  -   30 ]/4


   Interatomic separations (in Angstrom):
   --------------------------------------

            C           H   _1      H   _2      H   _3      H   _4      C     
            ------      ------      ------      ------      ------      ------
 C     :    0.000000
 H   _1:    1.170203    0.000000
 H   _2:    1.170203    1.910933    0.000000
 H   _3:    1.170203    1.910933    1.910933    0.000000
 H   _4:    1.170203    1.910933    1.910933    1.910933    0.000000
 C     :    0.000000    1.170203    1.170203    1.170203    1.170203    0.000000
 H   _1:    1.170203    0.000000    1.910933    1.910933    1.910933    1.170203
 H   _2:    1.170203    1.910933    0.000000    1.910933    1.910933    1.170203
 H   _3:    1.170203    1.910933    1.910933    0.000000    1.910933    1.170203
 H   _4:    1.170203    1.910933    1.910933    1.910933    0.000000    1.170203

            H   _1      H   _2      H   _3      H   _4
            ------      ------      ------      ------
 H   _1:    0.000000
 H   _2:    1.910933    0.000000
 H   _3:    1.910933    1.910933    0.000000
 H   _4:    1.910933    1.910933    1.910933    0.000000


  Max    interatomic separation is    1.9109 Angstrom (    3.6111 Bohr)
  between atoms    3 and    2, "H   _2" and "H   _1".

  Min HX interatomic separation is    0.0000 Angstrom (    0.0000 Bohr)

  Min YX interatomic separation is    0.0000 Angstrom (    0.0000 Bohr)

WARNING: Number of short HX and YX bond lengths:    4    1
WARNING: If not intentional, maybe your coordinates were in Angstrom,
WARNING: but "Angstrom" was not specified in .mol file


  Bond distances (Angstrom):
  --------------------------

                  atom 1     atom 2       distance
                  ------     ------       --------
  bond distance:  H   _1     C            1.170203
  bond distance:  H   _2     C            1.170203
  bond distance:  H   _3     C            1.170203
  bond distance:  H   _4     C            1.170203


  Bond angles (degrees):
  ----------------------

                  atom 1     atom 2     atom 3         angle
                  ------     ------     ------         -----
  bond angle:     H   _1     C          H   _2       109.471
  bond angle:     H   _1     C          H   _3       109.471
  bond angle:     H   _1     C          H   _4       109.471
  bond angle:     H   _2     C          H   _3       109.471
  bond angle:     H   _2     C          H   _4       109.471
  bond angle:     H   _3     C          H   _4       109.471




 Principal moments of inertia (u*A**2) and principal axes
 --------------------------------------------------------

   IA       3.680240          1.000000    0.000000    0.000000
   IB       3.680240          0.000000    1.000000    0.000000
   IC       3.680240          0.000000    0.000000    1.000000


 Rotational constants
 --------------------

               A                   B                   C

         137322.2814         137322.2814         137322.2814 MHz
            4.580578            4.580578            4.580578 cm-1


@  Nuclear repulsion energy :   12.514560078913 Hartree


  Symmetry Orbitals
  -----------------

  Number of orbitals in each symmetry:          42   37   37   37

  Number of main orbitals in each symmetry:          12   10   10   10
  Number of auxiliary functions in each symmetry:    30   27   27   27


  Symmetry  A  ( 1)

    1     C    M   1s         1
    2     C    M   1s         2
    3     C    M   1s         3
    4     C    M   1s         4
    5     C    M   3d0       16
    6     C    M   3d2+      18
    7     H    M   1s        19 +   20 +   21 +   22
    8     H    M   1s        23 +   24 +   25 +   26
    9     H    M   1s        27 +   28 +   29 +   30
   10     H    M   2px       31 -   32 -   33 +   34
   11     H    M   2py       35 -   36 +   37 -   38
   12     H    M   2pz       39 +   40 -   41 -   42
   13     C    A   1s        43
   14     C    A   1s        44
   15     C    A   1s        45
   16     C    A   1s        46
   17     C    A   1s        47
   18     C    A   3d0       62
   19     C    A   3d2+      64
   20     C    A   3d0       67
   21     C    A   3d2+      69
   22     C    A   3d0       72
   23     C    A   3d2+      74
   24     C    A   4f2-      76
   25     H    A   1s        82 +   83 +   84 +   85
   26     H    A   1s        86 +   87 +   88 +   89
   27     H    A   1s        90 +   91 +   92 +   93
   28     H    A   1s        94 +   95 +   96 +   97
   29     H    A   2px       98 -   99 -  100 +  101
   30     H    A   2py      102 -  103 +  104 -  105
   31     H    A   2pz      106 +  107 -  108 -  109
   32     H    A   2px      110 -  111 -  112 +  113
   33     H    A   2py      114 -  115 +  116 -  117
   34     H    A   2pz      118 +  119 -  120 -  121
   35     H    A   2px      122 -  123 -  124 +  125
   36     H    A   2py      126 -  127 +  128 -  129
   37     H    A   2pz      130 +  131 -  132 -  133
   38     H    A   3d2-     134 +  135 -  136 -  137
   39     H    A   3d1-     138 -  139 -  140 +  141
   40     H    A   3d0      142 +  143 +  144 +  145
   41     H    A   3d1+     146 -  147 +  148 -  149
   42     H    A   3d2+     150 +  151 +  152 +  153


  Symmetry  B2 ( 2)

   43     C    M   2py        6
   44     C    M   2py        9
   45     C    M   2py       12
   46     C    M   3d1+      17
   47     H    M   1s        19 -   20 +   21 -   22
   48     H    M   1s        23 -   24 +   25 -   26
   49     H    M   1s        27 -   28 +   29 -   30
   50     H    M   2px       31 +   32 -   33 -   34
   51     H    M   2py       35 +   36 +   37 +   38
   52     H    M   2pz       39 -   40 -   41 +   42
   53     C    A   2py       49
   54     C    A   2py       52
   55     C    A   2py       55
   56     C    A   2py       58
   57     C    A   3d1+      63
   58     C    A   3d1+      68
   59     C    A   3d1+      73
   60     C    A   4f3-      75
   61     C    A   4f1-      77
   62     H    A   1s        82 -   83 +   84 -   85
   63     H    A   1s        86 -   87 +   88 -   89
   64     H    A   1s        90 -   91 +   92 -   93
   65     H    A   1s        94 -   95 +   96 -   97
   66     H    A   2px       98 +   99 -  100 -  101
   67     H    A   2py      102 +  103 +  104 +  105
   68     H    A   2pz      106 -  107 -  108 +  109
   69     H    A   2px      110 +  111 -  112 -  113
   70     H    A   2py      114 +  115 +  116 +  117
   71     H    A   2pz      118 -  119 -  120 +  121
   72     H    A   2px      122 +  123 -  124 -  125
   73     H    A   2py      126 +  127 +  128 +  129
   74     H    A   2pz      130 -  131 -  132 +  133
   75     H    A   3d2-     134 -  135 -  136 +  137
   76     H    A   3d1-     138 +  139 -  140 -  141
   77     H    A   3d0      142 -  143 +  144 -  145
   78     H    A   3d1+     146 +  147 +  148 +  149
   79     H    A   3d2+     150 -  151 +  152 -  153


  Symmetry  B1 ( 3)

   80     C    M   2pz        7
   81     C    M   2pz       10
   82     C    M   2pz       13
   83     C    M   3d2-      14
   84     H    M   1s        19 +   20 -   21 -   22
   85     H    M   1s        23 +   24 -   25 -   26
   86     H    M   1s        27 +   28 -   29 -   30
   87     H    M   2px       31 -   32 +   33 -   34
   88     H    M   2py       35 -   36 -   37 +   38
   89     H    M   2pz       39 +   40 +   41 +   42
   90     C    A   2pz       50
   91     C    A   2pz       53
   92     C    A   2pz       56
   93     C    A   2pz       59
   94     C    A   3d2-      60
   95     C    A   3d2-      65
   96     C    A   3d2-      70
   97     C    A   4f0       78
   98     C    A   4f2+      80
   99     H    A   1s        82 +   83 -   84 -   85
  100     H    A   1s        86 +   87 -   88 -   89
  101     H    A   1s        90 +   91 -   92 -   93
  102     H    A   1s        94 +   95 -   96 -   97
  103     H    A   2px       98 -   99 +  100 -  101
  104     H    A   2py      102 -  103 -  104 +  105
  105     H    A   2pz      106 +  107 +  108 +  109
  106     H    A   2px      110 -  111 +  112 -  113
  107     H    A   2py      114 -  115 -  116 +  117
  108     H    A   2pz      118 +  119 +  120 +  121
  109     H    A   2px      122 -  123 +  124 -  125
  110     H    A   2py      126 -  127 -  128 +  129
  111     H    A   2pz      130 +  131 +  132 +  133
  112     H    A   3d2-     134 +  135 +  136 +  137
  113     H    A   3d1-     138 -  139 +  140 -  141
  114     H    A   3d0      142 +  143 -  144 -  145
  115     H    A   3d1+     146 -  147 -  148 +  149
  116     H    A   3d2+     150 +  151 -  152 -  153


  Symmetry  B3 ( 4)

  117     C    M   2px        5
  118     C    M   2px        8
  119     C    M   2px       11
  120     C    M   3d1-      15
  121     H    M   1s        19 -   20 -   21 +   22
  122     H    M   1s        23 -   24 -   25 +   26
  123     H    M   1s        27 -   28 -   29 +   30
  124     H    M   2px       31 +   32 +   33 +   34
  125     H    M   2py       35 +   36 -   37 -   38
  126     H    M   2pz       39 -   40 +   41 -   42
  127     C    A   2px       48
  128     C    A   2px       51
  129     C    A   2px       54
  130     C    A   2px       57
  131     C    A   3d1-      61
  132     C    A   3d1-      66
  133     C    A   3d1-      71
  134     C    A   4f1+      79
  135     C    A   4f3+      81
  136     H    A   1s        82 -   83 -   84 +   85
  137     H    A   1s        86 -   87 -   88 +   89
  138     H    A   1s        90 -   91 -   92 +   93
  139     H    A   1s        94 -   95 -   96 +   97
  140     H    A   2px       98 +   99 +  100 +  101
  141     H    A   2py      102 +  103 -  104 -  105
  142     H    A   2pz      106 -  107 +  108 -  109
  143     H    A   2px      110 +  111 +  112 +  113
  144     H    A   2py      114 +  115 -  116 -  117
  145     H    A   2pz      118 -  119 +  120 -  121
  146     H    A   2px      122 +  123 +  124 +  125
  147     H    A   2py      126 +  127 -  128 -  129
  148     H    A   2pz      130 -  131 +  132 -  133
  149     H    A   3d2-     134 -  135 +  136 -  137
  150     H    A   3d1-     138 +  139 +  140 +  141
  151     H    A   3d0      142 -  143 -  144 +  145
  152     H    A   3d1+     146 +  147 -  148 -  149
  153     H    A   3d2+     150 -  151 -  152 +  153

  Number of floating/multiple basis set orbitals :    5

  Symmetries of electric field:  B3 (4)  B2 (2)  B1 (3)

  Symmetries of magnetic field:  B3 (4)  B2 (2)  B1 (3)


                     .---------------------------------------.
                     | Starting in Integral Section (HERMIT) |
                     `---------------------------------------'



    *************************************************************************
    ****************** Output from HERMIT input processing ******************
    *************************************************************************


 Default print level:        1

 * Nuclear model: Point charge

 Calculation of one- and two-electron Hamiltonian integrals.

 The following one-electron property integrals are calculated as requested:
          - overlap integrals
          - dipole length integrals
          - second moment integrals
          - Cartesian multipole moment integrals of orders 2 and lower

 Center of mass  (bohr):      0.000000000000      0.000000000000      0.000000000000
 Operator center (bohr):      0.000000000000      0.000000000000      0.000000000000
 Gauge origin    (bohr):      0.000000000000      0.000000000000      0.000000000000
 Dipole origin   (bohr):      0.000000000000      0.000000000000      0.000000000000


     ************************************************************************
     ************************** Output from HERINT **************************
     ************************************************************************


 Threshold for neglecting two-electron integrals:  1.00D-12
 Number of two-electron integrals written:      104977 (  0.2% )
 Megabytes written:                              1.202

 >>>> Total CPU  time used in HERMIT:   0.11 seconds
 >>>> Total wall time used in HERMIT:   0.11 seconds


                        .----------------------------------.
                        | End of Integral Section (HERMIT) |
                        `----------------------------------'



                   .--------------------------------------------.
                   | Starting in Wave Function Section (SIRIUS) |
                   `--------------------------------------------'


 >>>> Detected R12 input:
 Direct Fock matrix formation switched on!
 Scale factors for CC excitations manifolds:
 for bra states (projection manifold):   1.0000000000000000     
 for ket states (operator manifold)  :   1.0000000000000000     

 **********************************************************************
 *SIRIUS* a direct, restricted step, second order MCSCF program       *
 **********************************************************************

 
     Date and time (Linux)  : Sun Sep  8 21:05:47 2013
     Host name              : lpqlx131.ups-tlse.fr                    

 Title lines from ".mol" input file:
     nondir MP2-R12/A  linear response using symmetry                        
                                                                             

 Print level on unit LUPRI =   2 is   0
 Print level on unit LUW4  =   2 is   5

@    (Integral direct) CC calculation.

@    This is a combination run starting with
@              a restricted, closed shell Hartree-Fock calculation

 Fock matrices are calculated directly without use of integrals on disk.

 Initial molecular orbitals are obtained according to
 ".MOSTART H1DIAG" input option

     Wave function specification
     ============================

     For the specification of the Coupled Cluster: see later.

@    For the wave function of type :      >>> CC <<<
@    Number of closed shell electrons          10
@    Number of electrons in active shells       0
@    Total charge of the molecule               0

@    Spin multiplicity and 2 M_S                1         0
     Total number of symmetries                 4
@    Reference state symmetry                   1

     Orbital specifications
     ======================
     Abelian symmetry species          All |    1    2    3    4
                                       --- |  ---  ---  ---  ---
     Total number of orbitals           42 |   12   10   10   10
     Number of basis functions         153 |   42   37   37   37

      ** Automatic occupation of RHF orbitals **

      -- Initial occupation of symmetries is determined from diagonal of H1 matrix.           
      -- Initial occupation of symmetries is :
@    Occupied SCF orbitals               5 |    2    1    1    1

     Maximum number of Fock   iterations      0
     Maximum number of DIIS   iterations     60
     Maximum number of QC-SCF iterations     60
     Threshold for SCF convergence     1.00D-10


 Changes of defaults for CC:
 ---------------------------


 -Implicit frozen core calculation
 -Linear response properties calculated
  


 >>>>> DIIS optimization of Hartree-Fock <<<<<

 C1-DIIS algorithm; max error vectors =   10

 Automatic occupation of symmetries with  10 electrons.

 Iter     Total energy    Error norm  Delta(E)    SCF occupation
 -----------------------------------------------------------------------------
   1  Screening settings (-IFTHRS, DIFDEN)   -7    T

***  INFO  GETGAB: GABAOXXX not found on AOPROPER. Regenerating.
@  1  -26.9208461562       1.74D+01  -2.69D+01     2   1   1   1
      Virial theorem: -V/T =      1.397424
@      MULPOP C      -3.96; H   _1  0.99; H   _2  0.99; H   _3  0.99; H   _4  0.99; 
 -----------------------------------------------------------------------------
   2  Screening settings (-IFTHRS, DIFDEN)   -7    T
@  2  -34.5740142129       5.98D+00  -7.65D+00     2   1   1   1
      Virial theorem: -V/T =      2.092202
@      MULPOP C       7.24; H   _1 -1.81; H   _2 -1.81; H   _3 -1.81; H   _4 -1.81; 
 -----------------------------------------------------------------------------
   3  Screening settings (-IFTHRS, DIFDEN)   -7    T
@  3  -38.7812870349       4.97D+00  -4.21D+00     2   1   1   1
      Virial theorem: -V/T =      1.865551
@      MULPOP C      -2.05; H   _1  0.51; H   _2  0.51; H   _3  0.51; H   _4  0.51; 
 -----------------------------------------------------------------------------
   4  Screening settings (-IFTHRS, DIFDEN)   -7    T
@  4  -40.0920858983       1.21D+00  -1.31D+00     2   1   1   1
      Virial theorem: -V/T =      1.982551
@      MULPOP C      -0.78; H   _1  0.19; H   _2  0.19; H   _3  0.19; H   _4  0.19; 
 -----------------------------------------------------------------------------
   5  Screening settings (-IFTHRS, DIFDEN)   -7    T
@  5  -40.1914985533       6.81D-02  -9.94D-02     2   1   1   1
      Virial theorem: -V/T =      2.012916
@      MULPOP C      -0.36; H   _1  0.09; H   _2  0.09; H   _3  0.09; H   _4  0.09; 
 -----------------------------------------------------------------------------
   6  Screening settings (-IFTHRS, DIFDEN)   -9    F
@  6  -40.1917302493       2.39D-02  -2.32D-04     2   1   1   1
      Virial theorem: -V/T =      2.011954
@      MULPOP C      -0.38; H   _1  0.09; H   _2  0.09; H   _3  0.09; H   _4  0.09; 
 -----------------------------------------------------------------------------
   7  Screening settings (-IFTHRS, DIFDEN)   -9    T
@  7  -40.1917714460       1.96D-03  -4.12D-05     2   1   1   1
      Virial theorem: -V/T =      2.011289
@      MULPOP C      -0.38; H   _1  0.10; H   _2  0.10; H   _3  0.10; H   _4  0.10; 
 -----------------------------------------------------------------------------
   8  Screening settings (-IFTHRS, DIFDEN)  -11    F
@  8  -40.1917720842       2.24D-04  -6.38D-07     2   1   1   1
      Virial theorem: -V/T =      2.011253
@      MULPOP C      -0.38; H   _1  0.10; H   _2  0.10; H   _3  0.10; H   _4  0.10; 
 -----------------------------------------------------------------------------
   9  Screening settings (-IFTHRS, DIFDEN)  -11    T
@  9  -40.1917720926       2.77D-05  -8.32D-09     2   1   1   1
      Virial theorem: -V/T =      2.011254
@      MULPOP C      -0.38; H   _1  0.09; H   _2  0.09; H   _3  0.09; H   _4  0.09; 
 -----------------------------------------------------------------------------
  10  Screening settings (-IFTHRS, DIFDEN)  -13    F
@ 10  -40.1917720926       1.91D-06  -7.01D-11     2   1   1   1
      Virial theorem: -V/T =      2.011255
@      MULPOP C      -0.38; H   _1  0.09; H   _2  0.09; H   _3  0.09; H   _4  0.09; 
 -----------------------------------------------------------------------------
  11  Screening settings (-IFTHRS, DIFDEN)  -16    F
@ 11  -40.1917720926       2.04D-07  -3.27D-13     2   1   1   1
      Virial theorem: -V/T =      2.011255
@      MULPOP C      -0.38; H   _1  0.09; H   _2  0.09; H   _3  0.09; H   _4  0.09; 
 -----------------------------------------------------------------------------
  12  Screening settings (-IFTHRS, DIFDEN)  -16    T
@ 12  -40.1917720926       3.20D-08   0.00D+00     2   1   1   1
      Virial theorem: -V/T =      2.011255
@      MULPOP C      -0.38; H   _1  0.09; H   _2  0.09; H   _3  0.09; H   _4  0.09; 
 -----------------------------------------------------------------------------
  13  Screening settings (-IFTHRS, DIFDEN)  -16    T
@ 13  -40.1917720926       6.94D-10   0.00D+00     2   1   1   1
      Virial theorem: -V/T =      2.011255
@      MULPOP C      -0.38; H   _1  0.09; H   _2  0.09; H   _3  0.09; H   _4  0.09; 
 -----------------------------------------------------------------------------
  14  Screening settings (-IFTHRS, DIFDEN)  -16    T
@ 14  -40.1917720926       1.71D-11   1.42D-14     2   1   1   1

@ *** DIIS converged in  14 iterations !
@     Converged SCF energy, gradient:    -40.191772092640    1.71D-11
    - total time used in SIRFCK :              0.00 seconds


 *** SCF orbital energy analysis ***

 Only the five lowest virtual orbital energies printed in each symmetry.

 Number of electrons :   10
 Orbital occupations :    2    1    1    1

 Sym       Hartree-Fock orbital energies

  1    -11.24614520    -0.91114126     0.15222200     0.67112701     0.94587496
         1.19833119     1.19833119

  2     -0.52478334     0.22923252     0.41945542     0.77679176     1.66708634
         1.69778322

  3     -0.52478334     0.22923252     0.41945542     0.77679176     1.66708634
         1.69778322

  4     -0.52478334     0.22923252     0.41945542     0.77679176     1.66708634
         1.69778322

    E(LUMO) :     0.15222200 au (symmetry 1)
  - E(HOMO) :    -0.52478334 au (symmetry 3)
  ------------------------------------------
    gap     :     0.67700534 au

 >>> Writing SIRIFC interface file <<<

  Canonical primary and secondary basis sets
  ISYM       NORB1 MBAS1       NORB2 MBAS2
     1          12    12          30    30
     2          10    10          27    27
     3          10    10          27    27
     4          10    10          27    27

 Computation of exchange matrix done [5]

 AUXILIARY BASIS LOW EIGENVALUES
 ISYM         EIGENVALUE
   1      0.000000000000
   2      0.000000000000
   3      0.000000000000
   4      0.000000000000
 >>>  Time used in R12AUX     is   0.29 seconds

 >>>> CPU and wall time for SCF :       0.854       0.864


                       .-----------------------------------.
                       | >>> Final results from SIRIUS <<< |
                       `-----------------------------------'


@    Spin multiplicity:           1
@    Spatial symmetry:            1
@    Total charge of molecule:    0

@    Final HF energy:             -40.191772092640                 
@    Nuclear repulsion:            12.514560078913
@    Electronic energy:           -52.706332171553

@    Final gradient norm:           0.000000000017

 
     Date and time (Linux)  : Sun Sep  8 21:05:48 2013
     Host name              : lpqlx131.ups-tlse.fr                    

 (Only coefficients >0.0100 are printed.)

 Molecular orbitals for symmetry species  1
 ------------------------------------------

    Orbital         1        2        3        4
   1 C   :1s     0.5636  -0.1015   0.0530   0.0703
   2 C   :1s     0.4666  -0.1682   0.0852   0.1326
   3 C   :1s     0.0034   0.4331  -0.0983  -0.4555
   4 C   :1s    -0.0008   0.2981  -1.9759  -1.0416
   7 H   :1s     0.0003   0.0770   0.0184   0.0634
   8 H   :1s     0.0002   0.1094  -0.0089   0.9859
   9 H   :1s     0.0001   0.0088   0.7492  -0.3081
  10 H   :2px   -0.0001  -0.0110  -0.0006   0.0199
  11 H   :2py   -0.0001  -0.0110  -0.0006   0.0199
  12 H   :2pz   -0.0001  -0.0110  -0.0006   0.0199

 Molecular orbitals for symmetry species  2
 ------------------------------------------

    Orbital         1        2        3
   1 C   :2py    0.1818  -0.1464   0.0159
   2 C   :2py    0.2931  -0.1083  -0.0054
   3 C   :2py    0.2049  -1.1248   1.3166
   4 C   :3d1+   0.0320   0.0232   0.0151
   5 H   :1s     0.0961   0.0193  -0.0386
   6 H   :1s     0.1589  -0.0805  -0.7668
   7 H   :1s     0.0754   1.2270   0.2180
   8 H   :2px   -0.0095   0.0099   0.0117
   9 H   :2py    0.0002   0.0059   0.0259
  10 H   :2pz   -0.0095   0.0099   0.0117

 Molecular orbitals for symmetry species  3
 ------------------------------------------

    Orbital         1        2        3
   1 C   :2pz    0.1818  -0.1464   0.0159
   2 C   :2pz    0.2931  -0.1083  -0.0054
   3 C   :2pz    0.2049  -1.1248   1.3166
   4 C   :3d2-   0.0320   0.0232   0.0151
   5 H   :1s     0.0961   0.0193  -0.0386
   6 H   :1s     0.1589  -0.0805  -0.7668
   7 H   :1s     0.0754   1.2270   0.2180
   8 H   :2px   -0.0095   0.0099   0.0117
   9 H   :2py   -0.0095   0.0099   0.0117
  10 H   :2pz    0.0002   0.0059   0.0259

 Molecular orbitals for symmetry species  4
 ------------------------------------------

    Orbital         1        2        3
   1 C   :2px    0.1818  -0.1464   0.0159
   2 C   :2px    0.2931  -0.1083  -0.0054
   3 C   :2px    0.2049  -1.1248   1.3166
   4 C   :3d1-   0.0320   0.0232   0.0151
   5 H   :1s     0.0961   0.0193  -0.0386
   6 H   :1s     0.1589  -0.0805  -0.7668
   7 H   :1s     0.0754   1.2270   0.2180
   8 H   :2px    0.0002   0.0059   0.0259
   9 H   :2py   -0.0095   0.0099   0.0117
  10 H   :2pz   -0.0095   0.0099   0.0117



 >>>> Total CPU  time used in SIRIUS :      0.86 seconds
 >>>> Total wall time used in SIRIUS :      0.88 seconds

 
     Date and time (Linux)  : Sun Sep  8 21:05:48 2013
     Host name              : lpqlx131.ups-tlse.fr                    


                     .---------------------------------------.
                     | End of Wave Function Section (SIRIUS) |
                     `---------------------------------------'



                    .------------------------------------------.
                    | Starting in Coupled Cluster Section (CC) |
                    `------------------------------------------'

  

 *******************************************************************************
 *******************************************************************************
 *                                                                             *
 *                                                                             *
 *                    START OF COUPLED CLUSTER CALCULATION                     *
 *                                                                             *
 *                                                                             *
 *******************************************************************************
 *******************************************************************************


  I am freezing!
  >> output from FNDMN3 <<
  NUMBER OF ELEMENTS OBTAINED IN FNDMN3            1
  FROM FNDMN3 : 
    PLACES OF LOWEST ELEMENTS 
     1 :      1
  MIN AND MAX IN SELECTED SUPSPACE   -11.246145204413864       -11.246145204413864     
 Freezing HF-orbital   1 of symmetry   1 and with orbital energy  -11.2461
 In total frozen-core per symmetry-class:  1  0  0  0
 


 CCR12 ANSATZ =   1

 CCR12 APPROX =   2


  I am freezing!
 Freezing HF-orbital   1 of symmetry   1 and with orbital energy  -11.2461
 In total frozen-core per symmetry-class:  1  0  0  0
 
   NRHF   :       1       1       1       1
   NRHFS  :       2       1       1       1
   NORB1  :      12      10      10      10
   NORB2  :      30      27      27      27

 Number of primary orbitals             :           42
 Number of secondary orbitals           :          111
 Total number of orbitals               :          153
 Total number of basis functions        :          153
 Number of (i|p') integrals             :          153
 Number of (i|u') integrals             :          153
 Number of (Ip'|1/r12|jL) integrals     :          153
 Number of (ip'|1/r12|jq') integrals    :        47124
 Number of (ip'|r12|jq') integrals      :        47124
 Number of (ip'|[T1,r12]|jq') integrals :        93636
 Threshold for R12 contributions            =  0.00000    
 Threshold for singular value decomposition = 0.100000E-11

 The B matrix is transformed into an orthogonal basis
 and inverted by diagonalization

 ******************************************************************************
 The MP2-R12/A and MP2-R12/B energies are computed as described in:
 W. Klopper, J. Chem. Phys. 120, 10890-10895 (2004).
 To avoid the hybride scheme, the keyword '.NO HYB'
 must be specified in the Dalton input file.
 ------------------------------------------------------------------------------
 Ansatz 1 is used and results are printed for approximations A and B.
 ******************************************************************************

 Core memory required by CCSD_R12 :         255813  (double words)

 Computation of (ip'|r12|jq') integrals done
 >>>  Time used in R  [6]     is  11.26 seconds
 Backtransformation of (ip'|r12|jq') integrals done
 Computation of CC-R12 VXINT response intermediates done

 >>> Time used for VXINT is   0.02 seconds

 Computation of V^aj_kl intermediate done

 >>> Time used for V^aj_kl is    0.07 seconds

 Computation of (ip'|1/r12|jq') integrals done
 >>>  Time used in 1/R[5]     is   3.04 seconds
 Computation of (i* p'|r12|jq') integrals done
 >>>  Time used in R  [5]     is   3.25 seconds
 Computation of (i'p|r12|jq') integrals done
 >>>  Time used in R  [5]     is   3.17 seconds
 Computation of (ip'|[T,r12]|jq') integrals done
 >>>  Time used in T,R[5]     is   4.31 seconds


                 +-----------------------------------------------+
                 ! MP2-R12 ansatz := (1 - P1 - P2 + P1*P2) * R12 !
                 +-----------------------------------------------+


 SECOND-ORDER PAIR ENERGIES:

                    1   -0.008552696    0.000000000
                    2   -0.012167435   -0.004524398
                    3   -0.013386563    0.000000000
                    4   -0.012167435   -0.004524398
                    5   -0.013412621   -0.011368248
                    6   -0.013386563    0.000000000
                    7   -0.012167435   -0.004524398
                    8   -0.013412621   -0.011368248
                    9   -0.013412621   -0.011368248
                   10   -0.013386563    0.000000000

 MP2 =   -0.173130492   -0.125452553   -0.047677939


                         +--------------------------------+
                         ! Auxiliary-basis MP2-R12 method !
                         +--------------------------------+


 SECOND-ORDER R12/A PAIR ENERGIES:

   1   -0.008552696   -0.010623222    0.000000000    0.000000000     1.62962         1.93487    
   2   -0.012167435   -0.014443622   -0.004524398   -0.004706073     1.62962         1.93487    
   3   -0.013386563   -0.016082139    0.000000000    0.000000000     1.62962         1.93487    
   4   -0.012167435   -0.014443622   -0.004524398   -0.004706073     1.62962         1.93487    
   5   -0.013412621   -0.015786039   -0.011368248   -0.012119637     1.62962         1.93487    
   6   -0.013386563   -0.016082139    0.000000000    0.000000000     1.62962         1.93487    
   7   -0.012167435   -0.014443622   -0.004524398   -0.004706073     1.62962         1.93487    
   8   -0.013412621   -0.015786039   -0.011368248   -0.012119637     1.62962         1.93487    
   9   -0.013412621   -0.015786039   -0.011368248   -0.012119637     1.62962         1.93487    
  10   -0.013386563   -0.016082139    0.000000000    0.000000000     1.62962         1.93487    

       -0.125452553   -0.149558622   -0.047677939   -0.050477130

              MP2-R12/A   correlation energy =   -0.200035752

 SECOND-ORDER R12/B PAIR ENERGIES:

   1   -0.008552696   -0.010011093    0.000000000    0.000000000     3.27397         3.66842    
   2   -0.012167435   -0.014035374   -0.004524398   -0.004674765     2.88761         3.28207    
   3   -0.013386563   -0.015365166    0.000000000    0.000000000     2.50126         2.89571    
   4   -0.012167435   -0.014035374   -0.004524398   -0.004674765     2.88761         3.28207    
   5   -0.013412621   -0.015248325   -0.011368248   -0.011870315     2.50126         2.89571    
   6   -0.013386563   -0.015365166    0.000000000    0.000000000     2.50126         2.89571    
   7   -0.012167435   -0.014035374   -0.004524398   -0.004674765     2.88761         3.28207    
   8   -0.013412621   -0.015248325   -0.011368248   -0.011870315     2.50126         2.89571    
   9   -0.013412621   -0.015248325   -0.011368248   -0.011870315     2.50126         2.89571    
  10   -0.013386563   -0.015365166    0.000000000    0.000000000     2.50126         2.89571    

       -0.125452553   -0.143957687   -0.047677939   -0.049635241

              MP2-R12/B   correlation energy =   -0.193592928
 Time for MP2-R12 part cpu :   25.036999999999999     
 Time for MP2-R12 part wall:   26.449999988079071     

  I am freezing!
  >> output from FNDMN3 <<
  NUMBER OF ELEMENTS OBTAINED IN FNDMN3            1
  FROM FNDMN3 : 
    PLACES OF LOWEST ELEMENTS 
     1 :      1
  MIN AND MAX IN SELECTED SUPSPACE   -11.246145204413864       -11.246145204413864     
 Freezing HF-orbital   1 of symmetry   1 and with orbital energy  -11.2461
 In total frozen-core per symmetry-class:  1  0  0  0
 
   

 *******************************************************************
 *                                                                 *
 *<<<<<<<<<<                                             >>>>>>>>>>*
 *<<<<<<<<<< OUTPUT FROM COUPLED CLUSTER ENERGY PROGRAM  >>>>>>>>>>*
 *<<<<<<<<<<                                             >>>>>>>>>>*
 *                                                                 *
 *******************************************************************


             The Direct Coupled Cluster Energy Program
             -----------------------------------------


          Number of t1 amplitudes                 :        37
          Number of t2 amplitudes                 :      2812
          Number of t2' amplitudes for R12 part   :        40
          Total number of amplitudes in ccsd      :      2889

 Iter.  1: Coupled cluster MP2-R12/A energy :     -40.3918078441910424
     Conventional correlation energy:    -0.1731304917318965
     R12 correlation energy         :    -0.0269052598186821
     Total correlation energy       :    -0.2000357515505786


       Iteration no.:  1
       -----------------

       Time used in   RHS - TOTAL  :       0.71 seconds
       Norm^2 of omega1 after ccvec:        0.1281490663D-02
       Norm^2 of omega2 after ccvec:        0.7436877269D-28
       Norm^2 of Omegar12  in NXTAM:        0.1061205815D-26
 Iter.  1: Coupled cluster CC2-R12/A energy :     -40.3916935949252363
     Conventional correlation energy:    -0.1730162424661046
     R12 correlation energy         :    -0.0269052598186676
     Total correlation energy       :    -0.1999215022847722


       Iteration no.:  2
       -----------------

       Time used in   RHS - TOTAL  :       0.71 seconds
       Norm^2 of omega1 after ccvec:        0.1355310791D-04
       Norm^2 of omega2 after ccvec:        0.7541966207D-04
       Norm^2 of Omegar12  in NXTAM:        0.1272005591D-07
 Iter.  2: Coupled cluster CC2-R12/A energy :     -40.3926474070642527
     Conventional correlation energy:    -0.1739375589874967
     R12 correlation energy         :    -0.0269377554362902
     Total correlation energy       :    -0.2008753144237870


       Iteration no.:  3
       -----------------

       Time used in   RHS - TOTAL  :       0.72 seconds
       Norm^2 of omega1 after ccvec:        0.3853339210D-05
       Norm^2 of omega2 after ccvec:        0.2505889212D-05
       Norm^2 of Omegar12  in NXTAM:        0.8832973635D-09
 Iter.  3: Coupled cluster CC2-R12/A energy :     -40.3929293001402456
     Conventional correlation energy:    -0.1742190653200879
     R12 correlation energy         :    -0.0269381421796973
     Total correlation energy       :    -0.2011572074997852


       Iteration no.:  4
       -----------------

       Time used in   RHS - TOTAL  :       0.73 seconds
       Norm^2 of omega1 after ccvec:        0.9533520956D-07
       Norm^2 of omega2 after ccvec:        0.8330092142D-07
       Norm^2 of Omegar12  in NXTAM:        0.2876420559D-10
 Iter.  4: Coupled cluster CC2-R12/A energy :     -40.3929132109680538
     Conventional correlation energy:    -0.1741991662350841
     R12 correlation energy         :    -0.0269419520925039
     Total correlation energy       :    -0.2011411183275880


       Iteration no.:  5
       -----------------

       Time used in   RHS - TOTAL  :       0.72 seconds
       Norm^2 of omega1 after ccvec:        0.3689478227D-08
       Norm^2 of omega2 after ccvec:        0.1606970215D-08
       Norm^2 of Omegar12  in NXTAM:        0.5914472489D-12
 Iter.  5: Coupled cluster CC2-R12/A energy :     -40.3929126311008844
     Conventional correlation energy:    -0.1741981045871484
     R12 correlation energy         :    -0.0269424338732767
     Total correlation energy       :    -0.2011405384604251


       Iteration no.:  6
       -----------------

       Time used in   RHS - TOTAL  :       0.72 seconds
       Norm^2 of omega1 after ccvec:        0.4573432160D-10
       Norm^2 of omega2 after ccvec:        0.5393229551D-10
       Norm^2 of Omegar12  in NXTAM:        0.1049127405D-13
 Iter.  6: Coupled cluster CC2-R12/A energy :     -40.3929124267534974
     Conventional correlation energy:    -0.1741977787617088
     R12 correlation energy         :    -0.0269425553513283
     Total correlation energy       :    -0.2011403341130371


       Iteration no.:  7
       -----------------

       Time used in   RHS - TOTAL  :       0.72 seconds
       Norm^2 of omega1 after ccvec:        0.1441141850D-11
       Norm^2 of omega2 after ccvec:        0.7042952624D-12
       Norm^2 of Omegar12  in NXTAM:        0.1797109760D-15
 Iter.  7: Coupled cluster CC2-R12/A energy :     -40.3929123970207868
     Conventional correlation energy:    -0.1741977266025074
     R12 correlation energy         :    -0.0269425777778144
     Total correlation energy       :    -0.2011403043803219


       Iteration no.:  8
       -----------------

       Time used in   RHS - TOTAL  :       0.71 seconds
       Norm^2 of omega1 after ccvec:        0.5073465837D-13
       Norm^2 of omega2 after ccvec:        0.3283218690D-13
       Norm^2 of Omegar12  in NXTAM:        0.1888754409D-17
 Iter.  8: Coupled cluster CC2-R12/A energy :     -40.3929123945920949
     Conventional correlation energy:    -0.1741977247000861
     R12 correlation energy         :    -0.0269425772515438
     Total correlation energy       :    -0.2011403019516299


       Iteration no.:  9
       -----------------

       Time used in   RHS - TOTAL  :       0.71 seconds
       Norm^2 of omega1 after ccvec:        0.5485065934D-15
       Norm^2 of omega2 after ccvec:        0.7534513822D-15
       Norm^2 of Omegar12  in NXTAM:        0.5263259489D-19
 Iter.  9: Coupled cluster CC2-R12/A energy :     -40.3929123941236199
     Conventional correlation energy:    -0.1741977244731743
     R12 correlation energy         :    -0.0269425770099837
     Total correlation energy       :    -0.2011403014831580


       Iteration no.: 10
       -----------------

       Time used in   RHS - TOTAL  :       0.71 seconds
       Norm^2 of omega1 after ccvec:        0.4116331168D-16
       Norm^2 of omega2 after ccvec:        0.5076788354D-16
       Norm^2 of Omegar12  in NXTAM:        0.5772032374D-20
 Iter. 10: Coupled cluster CC2-R12/A energy :     -40.3929123947382038
     Conventional correlation energy:    -0.1741977250648006
     R12 correlation energy         :    -0.0269425770329436
     Total correlation energy       :    -0.2011403020977442


       Iteration no.: 11
       -----------------

       Time used in   RHS - TOTAL  :       0.71 seconds
       Norm^2 of omega1 after ccvec:        0.3248849969D-17
       Norm^2 of omega2 after ccvec:        0.2070333758D-17
       Norm^2 of Omegar12  in NXTAM:        0.1823950025D-21
 Iter. 11: Coupled cluster CC2-R12/A energy :     -40.3929123947565571
     Conventional correlation energy:    -0.1741977250820952
     R12 correlation energy         :    -0.0269425770340014
     Total correlation energy       :    -0.2011403021160966


       Iteration no.: 12
       -----------------

       Time used in   RHS - TOTAL  :       0.71 seconds
       Norm^2 of omega1 after ccvec:        0.6013458144D-19
       Norm^2 of omega2 after ccvec:        0.9971553743D-19
       Norm^2 of Omegar12  in NXTAM:        0.2860986295D-22
 Iter. 12: Coupled cluster CC2-R12/A energy :     -40.3929123947636199
     Conventional correlation energy:    -0.1741977250831397
     R12 correlation energy         :    -0.0269425770400149
     Total correlation energy       :    -0.2011403021231546


       Iteration no.: 13
       -----------------

       Time used in   RHS - TOTAL  :       0.71 seconds
       Norm^2 of omega1 after ccvec:        0.2445746359D-20
       Norm^2 of omega2 after ccvec:        0.2884903791D-20
       Norm^2 of Omegar12  in NXTAM:        0.5203858651D-24
 Iter. 13: Coupled cluster CC2-R12/A energy :     -40.3929123947639610
     Conventional correlation energy:    -0.1741977250828981
     R12 correlation energy         :    -0.0269425770405998
     Total correlation energy       :    -0.2011403021234979


       Iteration no.: 14
       -----------------

       Time used in   RHS - TOTAL  :       0.71 seconds
       Norm^2 of omega1 after ccvec:        0.9863206508D-22
       Norm^2 of omega2 after ccvec:        0.7436079407D-22
       Norm^2 of Omegar12  in NXTAM:        0.1796380651D-25
 Iter. 14: Coupled cluster CC2-R12/A energy :     -40.3929123947647142
     Conventional correlation energy:    -0.1741977250835802
     R12 correlation energy         :    -0.0269425770406725
     Total correlation energy       :    -0.2011403021242527


       Iteration no.: 15
       -----------------

       Time used in   RHS - TOTAL  :       0.71 seconds
       Norm^2 of omega1 after ccvec:        0.3126759580D-23
       Norm^2 of omega2 after ccvec:        0.2794886600D-23
       Norm^2 of Omegar12  in NXTAM:        0.7597541836D-27
 Iter. 15: Coupled cluster CC2-R12/A energy :     -40.3929123947648563
     Conventional correlation energy:    -0.1741977250837508
     R12 correlation energy         :    -0.0269425770406397
     Total correlation energy       :    -0.2011403021243905


       Iteration no.: 16
       -----------------

       Time used in   RHS - TOTAL  :       0.71 seconds
       Norm^2 of omega1 after ccvec:        0.5414480354D-25
       Norm^2 of omega2 after ccvec:        0.8730331420D-25
       Norm^2 of Omegar12  in NXTAM:        0.4144015263D-28
 Iter. 16: Coupled cluster CC2-R12/A energy :     -40.3929123947647852
     Conventional correlation energy:    -0.1741977250836797
     R12 correlation energy         :    -0.0269425770406412
     Total correlation energy       :    -0.2011403021243209


       Iteration no.: 17
       -----------------

       Time used in   RHS - TOTAL  :       0.71 seconds
       Norm^2 of omega1 after ccvec:        0.5889206878D-26
       Norm^2 of omega2 after ccvec:        0.4360426134D-26
       Norm^2 of Omegar12  in NXTAM:        0.1507559333D-28
 Iter. 17: Coupled cluster CC2-R12/A energy :     -40.3929123947647710
     Conventional correlation energy:    -0.1741977250836655
     R12 correlation energy         :    -0.0269425770406434
     Total correlation energy       :    -0.2011403021243089


       Iteration no.: 18
       -----------------

       Time used in   RHS - TOTAL  :       0.71 seconds
       Norm^2 of omega1 after ccvec:        0.9246503596D-27
       Norm^2 of omega2 after ccvec:        0.7272520896D-27
       Norm^2 of Omegar12  in NXTAM:        0.6533114210D-29
 Iter. 18: Coupled cluster CC2-R12/A energy :     -40.3929123947647710
     Conventional correlation energy:    -0.1741977250836655
     R12 correlation energy         :    -0.0269425770406436
     Total correlation energy       :    -0.2011403021243091


 CC2-R12/A energy converged to within   0.10D-13 is          -40.392912394765
 Final 2-norm of the CC vector function:  4.06436028D-14
 R12       energy converged to within   0.10D-13 is     -0.026942577


                    +------------------------------------------+
                    ! Largest amplitudes in converged solution !
                    +------------------------------------------+



          CC_PRAM:Overall Contribution of the Different Components
          --------------------------------------------------------



          Single Excitation Contribution :               1.4223 %

          Double Excitation Contribution :              98.5777 %

          ||T1||/||T2||                  :               0.1201

          Tau1 diagnostic                :               0.0074

          Norm of Total Amplitude Vector :               0.1749


 +=============================================================================+
 | symmetry|  orbital index  |   Excitation Numbers             |   Amplitude  |
 |  Index  |   a   b   i   j |      NAI      NBJ |     NAIBJ    |              |
 +=============================================================================+
 | 2   2   |   1       1     |       11          |              |   -0.005419  |
 | 2   2   |   2       1     |       12          |              |    0.005334  |
 | 2   2   |   3       1     |       13          |              |    0.006748  |
 | 2   2   |   7       1     |       17          |              |   -0.004435  |
 | 3   3   |   1       1     |       20          |              |   -0.005419  |
 | 3   3   |   2       1     |       21          |              |    0.005334  |
 | 3   3   |   3       1     |       22          |              |    0.006748  |
 | 3   3   |   7       1     |       26          |              |   -0.004435  |
 | 4   4   |   1       1     |       29          |              |   -0.005419  |
 | 4   4   |   2       1     |       30          |              |    0.005334  |
 | 4   4   |   3       1     |       31          |              |    0.006748  |
 | 4   4   |   7       1     |       35          |              |   -0.004435  |
 +-----------------------------------------------------------------------------+
 | 1 1 1 1 |   1   1   1   1 |        1        1 |            1 |   -0.011773  |
 | 1 1 1 1 |   2   1   1   1 |        2        1 |            2 |   -0.008708  |
 | 1 1 1 1 |   3   1   1   1 |        3        1 |            4 |   -0.008728  |
 | 1 1 1 1 |   2   2   1   1 |        2        2 |            3 |   -0.011025  |
 | 1 1 1 1 |   3   3   1   1 |        3        3 |            6 |   -0.010281  |
 | 1 1 1 1 |   4   4   1   1 |        4        4 |           10 |   -0.009741  |
 | 1 1 1 1 |   5   5   1   1 |        5        5 |           15 |   -0.009741  |
 | 2 1 2 1 |   1   1   1   1 |       11        1 |           56 |   -0.013969  |
 | 2 1 2 1 |   3   1   1   1 |       13        1 |           79 |    0.014735  |
 | 2 1 2 1 |   1   2   1   1 |       11        2 |           57 |   -0.010060  |
 | 2 1 2 1 |   3   2   1   1 |       13        2 |           80 |    0.013804  |
 | 2 1 2 1 |   1   3   1   1 |       11        3 |           58 |   -0.008801  |
 | 2 1 2 1 |   3   3   1   1 |       13        3 |           81 |    0.012880  |
 | 3 1 3 1 |   1   1   1   1 |       20        1 |          191 |   -0.013969  |
 | 3 1 3 1 |   3   1   1   1 |       22        1 |          232 |    0.014735  |
 | 3 1 3 1 |   1   2   1   1 |       20        2 |          192 |   -0.010060  |
 | 3 1 3 1 |   3   2   1   1 |       22        2 |          233 |    0.013804  |
 | 3 1 3 1 |   1   3   1   1 |       20        3 |          193 |   -0.008801  |
 | 3 1 3 1 |   3   3   1   1 |       22        3 |          234 |    0.012880  |
 | 4 1 4 1 |   1   1   1   1 |       29        1 |          407 |   -0.013969  |
 | 4 1 4 1 |   3   1   1   1 |       31        1 |          466 |    0.014735  |
 | 4 1 4 1 |   1   2   1   1 |       29        2 |          408 |   -0.010060  |
 | 4 1 4 1 |   3   2   1   1 |       31        2 |          467 |    0.013804  |
 | 4 1 4 1 |   1   3   1   1 |       29        3 |          409 |   -0.008801  |
 | 4 1 4 1 |   3   3   1   1 |       31        3 |          468 |    0.012880  |
 | 2 2 2 2 |   1   1   1   1 |       11       11 |           66 |   -0.020762  |
 | 2 2 2 2 |   3   1   1   1 |       13       11 |           89 |    0.019063  |
 | 2 2 2 2 |   2   2   1   1 |       12       12 |           78 |   -0.010448  |
 | 2 2 2 2 |   3   3   1   1 |       13       13 |           91 |   -0.025526  |
 | 3 2 3 2 |   1   1   1   1 |       20       11 |          201 |   -0.016543  |
 | 3 2 3 2 |   3   1   1   1 |       22       11 |          242 |    0.015395  |
 | 3 2 3 2 |   1   3   1   1 |       20       13 |          203 |    0.015395  |
 | 3 2 3 2 |   3   3   1   1 |       22       13 |          244 |   -0.019823  |
 | 4 2 4 2 |   1   1   1   1 |       29       11 |          417 |   -0.016543  |
 | 4 2 4 2 |   3   1   1   1 |       31       11 |          476 |    0.015395  |
 | 4 2 4 2 |   1   3   1   1 |       29       13 |          419 |    0.015395  |
 | 4 2 4 2 |   3   3   1   1 |       31       13 |          478 |   -0.019823  |
 | 3 3 3 3 |   1   1   1   1 |       20       20 |          210 |   -0.020762  |
 | 3 3 3 3 |   3   1   1   1 |       22       20 |          251 |    0.019063  |
 | 3 3 3 3 |   2   2   1   1 |       21       21 |          231 |   -0.010448  |
 | 3 3 3 3 |   3   3   1   1 |       22       22 |          253 |   -0.025526  |
 | 4 3 4 3 |   1   1   1   1 |       29       20 |          426 |   -0.016543  |
 | 4 3 4 3 |   3   1   1   1 |       31       20 |          485 |    0.015395  |
 | 4 3 4 3 |   1   3   1   1 |       29       22 |          428 |    0.015395  |
 | 4 3 4 3 |   3   3   1   1 |       31       22 |          487 |   -0.019823  |
 | 4 4 4 4 |   1   1   1   1 |       29       29 |          435 |   -0.020762  |
 | 4 4 4 4 |   3   1   1   1 |       31       29 |          494 |    0.019063  |
 | 4 4 4 4 |   2   2   1   1 |       30       30 |          465 |   -0.010448  |
 | 4 4 4 4 |   3   3   1   1 |       31       31 |          496 |   -0.025526  |
 | 2 2 1 1 |   1   1   1   1 |        1        1 |          704 |   -0.006649  |
 | 2 2 1 1 |   2   2   1   1 |        2        2 |          706 |   -0.008194  |
 | 2 2 1 1 |   3   3   1   1 |        3        3 |          709 |   -0.009329  |
 | 1 2 2 1 |   4   1   1   1 |       13        1 |          782 |    0.006885  |
 | 1 2 2 1 |   2   2   1   1 |       11        2 |          760 |    0.007055  |
 | 1 2 2 1 |   1   3   1   1 |       10        3 |          751 |    0.006672  |
 | 1 2 2 1 |   2   3   1   1 |       11        3 |          761 |    0.007452  |
 | 1 1 2 2 |   1   1   1   1 |       10       10 |          758 |   -0.008883  |
 | 1 1 2 2 |   2   1   1   1 |       11       10 |          768 |   -0.006866  |
 | 1 1 2 2 |   2   2   1   1 |       11       11 |          769 |   -0.014153  |
 | 1 1 2 2 |   4   4   1   1 |       13       13 |          794 |   -0.015877  |
 | 1 1 2 2 |   5   5   1   1 |       14       14 |          808 |   -0.008847  |
 | 4 1 3 2 |   2   2   1   1 |       21       11 |          924 |    0.008682  |
 | 4 1 3 2 |   2   4   1   1 |       21       13 |          926 |    0.011038  |
 | 4 1 3 2 |   5   4   1   1 |       24       13 |          992 |    0.007852  |
 | 3 1 4 2 |   2   2   1   1 |       30       11 |         1149 |    0.008682  |
 | 3 1 4 2 |   2   4   1   1 |       30       13 |         1151 |    0.008029  |
 | 3 1 4 2 |   2   5   1   1 |       30       14 |         1152 |    0.008110  |
 | 4 4 3 3 |   1   1   1   1 |       20       20 |          913 |   -0.006691  |
 | 4 4 3 3 |   2   1   1   1 |       21       20 |          933 |    0.006767  |
 | 4 4 3 3 |   2   2   1   1 |       21       21 |          934 |   -0.018920  |
 | 4 4 3 3 |   5   2   1   1 |       24       21 |         1000 |   -0.007659  |
 | 4 4 3 3 |   5   5   1   1 |       24       24 |         1003 |   -0.008984  |
 | 3 4 4 3 |   2   2   1   1 |       30       21 |         1159 |   -0.014852  |
 | 3 3 4 4 |   1   1   1   1 |       29       29 |         1138 |   -0.006691  |
 | 3 3 4 4 |   2   1   1   1 |       30       29 |         1167 |    0.006767  |
 | 3 3 4 4 |   2   2   1   1 |       30       30 |         1168 |   -0.018920  |
 | 3 3 4 4 |   5   2   1   1 |       33       30 |         1261 |   -0.007659  |
 | 3 3 4 4 |   5   5   1   1 |       33       33 |         1264 |   -0.008984  |
 | 3 3 1 1 |   1   1   1   1 |        1        1 |         1407 |   -0.006649  |
 | 3 3 1 1 |   2   2   1   1 |        2        2 |         1409 |   -0.008194  |
 | 3 3 1 1 |   3   3   1   1 |        3        3 |         1412 |   -0.009329  |
 | 1 3 3 1 |   5   1   1   1 |       23        1 |         1660 |   -0.007950  |
 | 1 3 3 1 |   2   2   1   1 |       20        2 |         1598 |    0.007055  |
 | 1 3 3 1 |   1   3   1   1 |       19        3 |         1580 |    0.006672  |
 | 1 3 3 1 |   2   3   1   1 |       20        3 |         1599 |    0.007452  |
 | 4 4 2 2 |   1   1   1   1 |       10       10 |         1461 |   -0.006691  |
 | 4 4 2 2 |   2   1   1   1 |       11       10 |         1471 |    0.006767  |
 | 4 4 2 2 |   2   2   1   1 |       11       11 |         1472 |   -0.018920  |
 | 4 4 2 2 |   5   2   1   1 |       14       11 |         1508 |   -0.007659  |
 | 4 4 2 2 |   5   5   1   1 |       14       14 |         1511 |   -0.008984  |
 | 1 4 3 2 |   2   2   1   1 |       20       11 |         1607 |    0.008682  |
 | 1 4 3 2 |   5   2   1   1 |       23       11 |         1670 |   -0.011009  |
 | 1 4 3 2 |   5   5   1   1 |       23       14 |         1673 |   -0.007363  |
 | 2 4 4 2 |   2   2   1   1 |       30       11 |         1852 |   -0.014852  |
 | 1 1 3 3 |   1   1   1   1 |       19       19 |         1596 |   -0.008883  |
 | 1 1 3 3 |   2   1   1   1 |       20       19 |         1615 |   -0.006866  |
 | 1 1 3 3 |   2   2   1   1 |       20       20 |         1616 |   -0.014153  |
 | 1 1 3 3 |   5   5   1   1 |       23       23 |         1682 |   -0.019391  |
 | 2 1 4 3 |   2   2   1   1 |       30       20 |         1861 |    0.008682  |
 | 2 1 4 3 |   2   5   1   1 |       30       23 |         1864 |   -0.011008  |
 | 2 1 4 3 |   5   5   1   1 |       33       23 |         1957 |   -0.007363  |
 | 2 2 4 4 |   1   1   1   1 |       29       29 |         1841 |   -0.006691  |
 | 2 2 4 4 |   2   1   1   1 |       30       29 |         1870 |    0.006767  |
 | 2 2 4 4 |   2   2   1   1 |       30       30 |         1871 |   -0.018920  |
 | 2 2 4 4 |   5   2   1   1 |       33       30 |         1964 |   -0.007659  |
 | 2 2 4 4 |   5   5   1   1 |       33       33 |         1967 |   -0.008984  |
 | 4 4 1 1 |   1   1   1   1 |        1        1 |         2110 |   -0.006649  |
 | 4 4 1 1 |   2   2   1   1 |        2        2 |         2112 |   -0.008194  |
 | 4 4 1 1 |   3   3   1   1 |        3        3 |         2115 |   -0.009329  |
 | 1 4 4 1 |   4   1   1   1 |       31        1 |         2575 |   -0.006885  |
 | 1 4 4 1 |   2   2   1   1 |       29        2 |         2517 |    0.007055  |
 | 1 4 4 1 |   1   3   1   1 |       28        3 |         2490 |    0.006672  |
 | 1 4 4 1 |   2   3   1   1 |       29        3 |         2518 |    0.007452  |
 | 3 3 2 2 |   1   1   1   1 |       10       10 |         2164 |   -0.006691  |
 | 3 3 2 2 |   2   1   1   1 |       11       10 |         2174 |    0.006767  |
 | 3 3 2 2 |   2   2   1   1 |       11       11 |         2175 |   -0.018920  |
 | 3 3 2 2 |   5   2   1   1 |       14       11 |         2211 |   -0.007659  |
 | 3 3 2 2 |   5   5   1   1 |       14       14 |         2214 |   -0.008984  |
 | 2 3 3 2 |   2   2   1   1 |       20       11 |         2310 |   -0.014852  |
 | 1 3 4 2 |   2   2   1   1 |       29       11 |         2526 |    0.008682  |
 | 1 3 4 2 |   4   2   1   1 |       31       11 |         2585 |   -0.008029  |
 | 1 3 4 2 |   5   2   1   1 |       32       11 |         2616 |    0.008111  |
 | 2 2 3 3 |   1   1   1   1 |       19       19 |         2299 |   -0.006691  |
 | 2 2 3 3 |   2   1   1   1 |       20       19 |         2318 |    0.006767  |
 | 2 2 3 3 |   2   2   1   1 |       20       20 |         2319 |   -0.018920  |
 | 2 2 3 3 |   5   2   1   1 |       23       20 |         2382 |   -0.007659  |
 | 2 2 3 3 |   5   5   1   1 |       23       23 |         2385 |   -0.008984  |
 | 1 2 4 3 |   2   2   1   1 |       29       20 |         2535 |    0.008682  |
 | 1 2 4 3 |   4   2   1   1 |       31       20 |         2594 |   -0.011038  |
 | 1 2 4 3 |   4   5   1   1 |       31       23 |         2597 |   -0.007852  |
 | 1 1 4 4 |   1   1   1   1 |       28       28 |         2515 |   -0.008883  |
 | 1 1 4 4 |   2   1   1   1 |       29       28 |         2543 |   -0.006866  |
 | 1 1 4 4 |   2   2   1   1 |       29       29 |         2544 |   -0.014153  |
 | 1 1 4 4 |   4   4   1   1 |       31       31 |         2605 |   -0.015876  |
 | 1 1 4 4 |   5   5   1   1 |       32       32 |         2637 |   -0.008848  |
 +=============================================================================+


          Norm of Printed Amplitude Vector :             0.1444

          Printed all single excitations greater than 0.003975

          Printed all double excitations greater than 0.006619





             +-------------------------------------------------------+
             ! Final results from the Coupled Cluster energy program !
             +-------------------------------------------------------+



            Total SCF   energy:                   -40.1917720926

            Total MP2-R12/A energy:               -40.3918078442

            Total CC2-R12/A energy:               -40.3929123948




                   +--------------------------------------------+
                   ! Calculating singlet intermediates for CCLR !
                   +--------------------------------------------+



[...]

 Finding gradient for 
 Frequency  0.000000 and label: XDIPLEN  and symmetry:   4
  
 ROOT:  1 RESIDUAL TOT: 1.95686D-03
      4       1         0.00     0.20E-02
 Dimension of the reduced space:     5
 >>> TIME USED IN THIS MICRO ITERATION        0.01


 Finding gradient for 
 Frequency  0.000000 and label: XDIPLEN  and symmetry:   4

 Finding gradient for 
 Frequency  0.000000 and label: XDIPLEN  and symmetry:   4
  
 ROOT:  1 RESIDUAL TOT: 3.20699D-04
      5       1         0.00     0.32E-03
 Dimension of the reduced space:     6
 >>> TIME USED IN THIS MICRO ITERATION        0.01


 Finding gradient for 
 Frequency  0.000000 and label: XDIPLEN  and symmetry:   4

 Finding gradient for 
 Frequency  0.000000 and label: XDIPLEN  and symmetry:   4
  
 ROOT:  1 RESIDUAL TOT: 7.97567D-05
      6       1         0.00     0.80E-04
 Dimension of the reduced space:     7
 >>> TIME USED IN THIS MICRO ITERATION        0.01


 Finding gradient for 
 Frequency  0.000000 and label: XDIPLEN  and symmetry:   4

 Finding gradient for 
 Frequency  0.000000 and label: XDIPLEN  and symmetry:   4
  
 ROOT:  1 RESIDUAL TOT: 1.63494D-05
      7       1         0.00     0.16E-04
 Dimension of the reduced space:     8
 >>> TIME USED IN THIS MICRO ITERATION        0.01


 Finding gradient for 
 Frequency  0.000000 and label: XDIPLEN  and symmetry:   4

 Finding gradient for 
 Frequency  0.000000 and label: XDIPLEN  and symmetry:   4
  
 ROOT:  1 RESIDUAL TOT: 2.88766D-06
      8       1         0.00     0.29E-05
 Dimension of the reduced space:     9
 >>> TIME USED IN THIS MICRO ITERATION        0.01


 Finding gradient for 
 Frequency  0.000000 and label: XDIPLEN  and symmetry:   4

 Finding gradient for 
 Frequency  0.000000 and label: XDIPLEN  and symmetry:   4
  
 ROOT:  1 RESIDUAL TOT: 4.02804D-07
      9       1         0.00     0.40E-06
 Dimension of the reduced space:    10
 >>> TIME USED IN THIS MICRO ITERATION        0.01


 Finding gradient for 
 Frequency  0.000000 and label: XDIPLEN  and symmetry:   4

 Finding gradient for 
 Frequency  0.000000 and label: XDIPLEN  and symmetry:   4
  
 ROOT:  1 RESIDUAL TOT: 7.01107D-08
     10       1         0.00     0.70E-07
 Dimension of the reduced space:    11
 >>> TIME USED IN THIS MICRO ITERATION        0.01


 Finding gradient for 
 Frequency  0.000000 and label: XDIPLEN  and symmetry:   4

 Finding gradient for 
 Frequency  0.000000 and label: XDIPLEN  and symmetry:   4
  
 ROOT:  1 RESIDUAL TOT: 1.32856D-08
     11       1         0.00     0.13E-07
 Dimension of the reduced space:    12
 >>> TIME USED IN THIS MICRO ITERATION        0.01


 Finding gradient for 
 Frequency  0.000000 and label: XDIPLEN  and symmetry:   4

 Finding gradient for 
 Frequency  0.000000 and label: XDIPLEN  and symmetry:   4
  
 ROOT:  1 RESIDUAL TOT: 1.78912D-09
     12       1         0.00     0.18E-08
 Dimension of the reduced space:    13
 >>> TIME USED IN THIS MICRO ITERATION        0.01


 Finding gradient for 
 Frequency  0.000000 and label: XDIPLEN  and symmetry:   4

 Finding gradient for 
 Frequency  0.000000 and label: XDIPLEN  and symmetry:   4
  
 ROOT:  1 RESIDUAL TOT: 2.88655D-10
     13       1         0.00     0.29E-09
 Dimension of the reduced space:    14
 >>> TIME USED IN THIS MICRO ITERATION        0.01


 Finding gradient for 
 Frequency  0.000000 and label: XDIPLEN  and symmetry:   4

 Finding gradient for 
 Frequency  0.000000 and label: XDIPLEN  and symmetry:   4
  
 ROOT:  1 RESIDUAL TOT: 4.70608D-11
     14       1         0.00     0.47E-10
 Dimension of the reduced space:    15
 >>> TIME USED IN THIS MICRO ITERATION        0.01


 Finding gradient for 
 Frequency  0.000000 and label: XDIPLEN  and symmetry:   4

 Finding gradient for 
 Frequency  0.000000 and label: XDIPLEN  and symmetry:   4
  
 ROOT:  1 RESIDUAL TOT: 7.20199D-12
     15       1         0.00     0.72E-11
 Dimension of the reduced space:    16
 >>> TIME USED IN THIS MICRO ITERATION        0.01


 Finding gradient for 
 Frequency  0.000000 and label: XDIPLEN  and symmetry:   4

 Finding gradient for 
 Frequency  0.000000 and label: XDIPLEN  and symmetry:   4
  
 ROOT:  1 RESIDUAL TOT: 1.08797D-12
     16       1         0.00     0.11E-11
 Dimension of the reduced space:    17
 >>> TIME USED IN THIS MICRO ITERATION        0.01


 Finding gradient for 
 Frequency  0.000000 and label: XDIPLEN  and symmetry:   4

 Finding gradient for 
 Frequency  0.000000 and label: XDIPLEN  and symmetry:   4
  
 ROOT:  1 RESIDUAL TOT: 1.91251D-13
 ROOT:  1 HAS CONVERGED. RESIDUAL TOT: 1.91251D-13
     17       1         0.00     0.19E-12
 Dimension of the reduced space:    17
 >>> TIME USED IN THIS MICRO ITERATION        0.01

    --------------------------------------
    converged in 17 iterations
    threshold:    0.10E-11


         Routine          Time (min)
         ---------------------------
         CC_TRDRV            0.00
         CCRED               0.00
         CCNEX               0.00
         ---------------------------
         Total time          0.00


 >>>> Total CPU  time used in CCEQ_SOLV:   0.13 seconds
 >>>> Total wall time used in CCEQ_SOLV:   0.13 seconds


 >>>>>>>>>>>>>>>>>>>>> <<<<<<<<<<<<<<<<<<<<<



 Analysis of CC Response/Cauchy vector:
 --------------------------------------


          CC_PRAM:Overall Contribution of the Different Components
          --------------------------------------------------------



          Single Excitation Contribution :              97.8484 %

          Double Excitation Contribution :               2.1516 %

          ||T1||/||T2||                  :               6.7437

          Norm of Total Amplitude Vector :               2.6620


 +=============================================================================+
 | symmetry|  orbital index  |   Excitation Numbers             |   Amplitude  |
 |  Index  |   a   b   i   j |      NAI      NBJ |     NAIBJ    |              |
 +=============================================================================+
 | 1   4   |   1       1     |       28          |              |   -1.517262  |
 | 1   4   |   2       1     |       29          |              |   -0.366101  |
 | 1   4   |   4       1     |       31          |              |    0.375668  |
 | 1   4   |   5       1     |       32          |              |   -0.216909  |
 | 2   3   |   1       1     |       19          |              |   -1.151729  |
 | 2   3   |   2       1     |       20          |              |    0.834399  |
 | 2   3   |   3       1     |       21          |              |    0.205159  |
 | 3   2   |   1       1     |       10          |              |   -1.151729  |
 | 3   2   |   2       1     |       11          |              |    0.834399  |
 | 3   2   |   3       1     |       12          |              |    0.205159  |
 | 4   1   |   1       1     |        1          |              |   -0.185161  |
 | 4   1   |   2       1     |        2          |              |   -0.231134  |
 | 4   1   |   3       1     |        3          |              |    0.198557  |
 +-----------------------------------------------------------------------------+
 | 3 2 1 1 |   1   1   1   1 |        1        1 |            1 |    0.032167  |
 | 4 2 2 1 |   4   1   1   1 |       13        1 |           13 |   -0.025319  |
 | 1 2 3 1 |   3   1   1   1 |       21        1 |           21 |    0.031725  |
 | 2 2 4 1 |   2   1   1   1 |       30        1 |           30 |    0.030854  |
 | 2 2 4 1 |   2   2   1   1 |       30        2 |           67 |   -0.028559  |
 | 3 1 1 2 |   1   2   1   1 |        1       11 |          371 |    0.031725  |
 | 4 1 2 2 |   1   1   1   1 |       10       10 |          343 |    0.026995  |
 | 4 1 2 2 |   2   1   1   1 |       11       10 |          344 |    0.025514  |
 | 4 1 2 2 |   2   2   1   1 |       11       11 |          381 |   -0.032854  |
 | 1 1 3 2 |   2  10   1   1 |       20       19 |          686 |    0.026995  |
 | 2 1 4 2 |   2  10   1   1 |       30       19 |          696 |    0.026250  |
 | 3 4 1 3 |   1   4   1   1 |        1       23 |          815 |    0.031513  |
 | 1 4 3 3 |   2   1   1   1 |       20       20 |          723 |    0.025514  |
 | 1 4 3 3 |   3   1   1   1 |       21       20 |          724 |   -0.032854  |
 | 3 3 1 4 |   1   2   1   1 |        1       30 |         1074 |    0.030854  |
 | 3 3 1 4 |   2   2   1   1 |        2       30 |         1075 |   -0.028559  |
 | 4 3 2 4 |   1   2   1   1 |       10       30 |         1083 |    0.026250  |
 | 2 3 4 4 |   1   1   1   1 |       29       29 |         1065 |    0.033764  |
 | 2 3 4 4 |   2   2   1   1 |       30       30 |         1103 |   -0.030844  |
 | 3 1 2 1 |   2  10   1   1 |       11       10 |         1713 |    0.052010  |
 | 3 1 2 1 |   4  10   1   1 |       13       10 |         1715 |   -0.031042  |
 | 2 1 3 1 |   2  10   1   1 |       20       10 |         1722 |    0.035616  |
 | 1 1 4 1 |   2  10   1   1 |       29       10 |         1731 |    0.051217  |
 | 1 1 4 1 |   4  10   1   1 |       31       10 |         1733 |   -0.028231  |
 | 4 2 1 2 |   1   1   1   1 |        1       11 |         1740 |    0.026291  |
 | 4 2 1 2 |   1   2   1   1 |        1       12 |         1777 |    0.031864  |
 | 4 2 1 2 |   1   4   1   1 |        1       14 |         1851 |    0.031094  |
 | 3 2 2 2 |   4   1   1   1 |       13       11 |         1752 |    0.032928  |
 | 3 2 2 2 |   2   4   1   1 |       11       14 |         1861 |    0.025363  |
 | 3 2 2 2 |   2   9   1   1 |       11       19 |         2046 |    0.035616  |
 | 2 2 3 2 |   3   1   1   1 |       21       11 |         1760 |   -0.025139  |
 | 2 2 3 2 |   2   2   1   1 |       20       12 |         1796 |    0.029294  |
 | 2 2 3 2 |   2   9   1   1 |       20       19 |         2055 |    0.052010  |
 | 2 2 3 2 |   4   9   1   1 |       22       19 |         2057 |   -0.031042  |
 | 1 2 4 2 |   2   1   1   1 |       29       11 |         1768 |   -0.028549  |
 | 1 2 4 2 |   4   1   1   1 |       31       11 |         1770 |    0.033108  |
 | 1 2 4 2 |   2   9   1   1 |       29       19 |         2064 |    0.051217  |
 | 1 2 4 2 |   4   9   1   1 |       31       19 |         2066 |   -0.028231  |
 | 4 3 1 3 |   1   1   1   1 |        1       20 |         2073 |    0.026291  |
 | 4 3 1 3 |   1   2   1   1 |        1       21 |         2110 |    0.031864  |
 | 4 3 1 3 |   1   4   1   1 |        1       23 |         2184 |    0.031094  |
 | 4 3 1 3 |   1   9   1   1 |        1       28 |         2369 |    0.047995  |
 | 3 3 2 3 |   3   1   1   1 |       12       20 |         2084 |   -0.025139  |
 | 3 3 2 3 |   2   2   1   1 |       11       21 |         2120 |    0.029294  |
 | 3 3 2 3 |   2   9   1   1 |       11       28 |         2379 |    0.065321  |
 | 3 3 2 3 |   3   9   1   1 |       12       28 |         2380 |    0.025083  |
 | 3 3 2 3 |   4   9   1   1 |       13       28 |         2381 |   -0.037462  |
 | 2 3 3 3 |   4   1   1   1 |       22       20 |         2094 |    0.032928  |
 | 2 3 3 3 |   2   4   1   1 |       20       23 |         2203 |    0.025363  |
 | 2 3 3 3 |   2   9   1   1 |       20       28 |         2388 |    0.065321  |
 | 2 3 3 3 |   3   9   1   1 |       21       28 |         2389 |    0.025083  |
 | 2 3 3 3 |   4   9   1   1 |       22       28 |         2390 |   -0.037462  |
 | 1 3 4 3 |   2   1   1   1 |       29       20 |         2101 |   -0.028549  |
 | 1 3 4 3 |   4   1   1   1 |       31       20 |         2103 |    0.033108  |
 | 1 3 4 3 |   2   9   1   1 |       29       28 |         2397 |    0.089859  |
 | 1 3 4 3 |   4   9   1   1 |       31       28 |         2399 |   -0.048075  |
 | 4 4 1 4 |   1   3   1   1 |        1       31 |         2480 |    0.028733  |
 +=============================================================================+


          Norm of Printed Amplitude Vector :             2.6374

          Printed all single excitations greater than 0.164864

          Printed all double excitations greater than 0.024447
            Norm of singles part:        0.2633243619E+01
            Norm of doubles part:        0.3904756302E+00
        Norm of r12 doubles part:        0.6638188884E+00


 +==================================================+
 |        F MATRIX TRANSFORMATION SECTION           |
 |          (result is written to file)             |
 +--------------------------------------------------+
 | time for zero order intermediat.:      0.00 secs.|
 | time for  1 sets of left interm.:      0.00 secs.|
 | time for  3 sets of right inter.:      0.01 secs.|
 | time for  3 sets of 2. ord. int.:      0.01 secs.|
 | intermediates calculated in   1 batches          |
 +--------------------------------------------------+
 | L vector | R vector |    result    |             |
 | L0   No. |  R1  No. |   F1   No.   |  time/secs  |
 +--------------------------------------------------+
 |     0    |     1    |      1       |       0.72  |
 |     0    |     2    |      2       |       0.72  |
 |     0    |     3    |      3       |       0.72  |
 +--------------------------------------------------+
 | total time for   3 F transforms.:      2.18 secs.|
 +--------------------------------------------------+
 |  % of time used in start up org.:      0.00      |
 |  % of time used in Fock interm. :      0.60      |
 |  % of time used in ERI          :      0.00      |
 |  % of time used in CCRDAO       :      0.05      |
 |  % of time used in (**|k del)   :      0.05      |
 |  % of time used in BF term      :      0.00      |
 |  % of time used in C term       :      0.00      |
 |  % of time used in GZ terms     :      0.00      |
 |  % of time used in FG terms     :      0.00      |
 |  % of time used in D term       :      0.00      |
 |  % of time used in I/O          :      0.05      |
 +==================================================+



 Solution of CC response equations completed.


 *******************************************************************
 *                                                                 *
 *<<<<<<<<  OUTPUT FROM COUPLED CLUSTER LINEAR RESPONSE   >>>>>>>>>*
 *                                                                 *
 *<<<<<<<<     CALCULATION OF SECOND ORDER PROPERTIES     >>>>>>>>>*
 *                                                                 *
 *******************************************************************

 


   For the requested  3 second-order properties
         -   3 F matrix transformations with R1 vectors
         -   0 J matrix transformations with L1 vectors
         -   3 ETA and XKSI vector calculations 
         -   0 X intermediate calculations 
         -   0 2. order reortho./relax. contributions
   will be performed.




 +==================================================+
 |        F MATRIX TRANSFORMATION SECTION           |
 |    (result used to calculate dot products)       |
 +--------------------------------------------------+
 | time for zero order intermediat.:      0.00 secs.|
 | time for  1 sets of left interm.:      0.00 secs.|
 | time for  3 sets of right inter.:      0.00 secs.|
 | time for  3 sets of 2. ord. int.:      0.01 secs.|
 | intermediates calculated in   1 batches          |
 +--------------------------------------------------+
 | L vector | R vector |  # products  |             |
 |  L0  No. |  R1  No. |   with R1    |  time/secs  |
 +--------------------------------------------------+
 |     0    |     3    |      1       |       0.72  |
 |     0    |     2    |      1       |       0.72  |
 |     0    |     1    |      1       |       0.72  |
 +--------------------------------------------------+
 | total time for   3 F transforms.:      2.18 secs.|
 +--------------------------------------------------+
 |  % of time used in start up org.:      0.00      |
 |  % of time used in Fock interm. :      0.55      |
 |  % of time used in ERI          :      0.00      |
 |  % of time used in CCRDAO       :      0.05      |
 |  % of time used in (**|k del)   :      0.05      |
 |  % of time used in BF term      :      0.00      |
 |  % of time used in C term       :      0.00      |
 |  % of time used in GZ terms     :      0.00      |
 |  % of time used in FG terms     :      0.00      |
 |  % of time used in D term       :      0.00      |
 |  % of time used in I/O          :      0.09      |
 +==================================================+



>>> Time used for    3 F matrix transformations:        2.18 seconds.

>>> Time used for    3 O1/X1 vector calculation:        0.01 seconds.

>>> Total time for   5 linear response function:        2.18 seconds.


             +--------------------------------------------------------+
             !      FINAL CC2 RESULTS FOR THE SECOND-ORDER PROPERTIES !
             +--------------------------------------------------------+


  A operator                  B operator                     property 
------------------------------------------------------------------------

 XDIPLEN  (unrel.) -0.0000   XDIPLEN  (unrel.)  0.0000      15.514431    

 ZDIPLEN  (unrel.) -0.0000   ZDIPLEN  (unrel.)  0.0000      15.514431    

 XXSECMOM (unrel.)    -.-    XDIPLEN  (unrel.)    -.-          ---

 XXSECMOM (unrel.)    -.-    ZDIPLEN  (unrel.)    -.-          ---

 XXSECMOM (unrel.) -0.0000   XXSECMOM (unrel.)  0.0000      56.232170    
------------------------------------------------------------------------


  

 *******************************************************************************
 *******************************************************************************
 *                                                                             *
 *                                                                             *
 *                   SUMMARY OF COUPLED CLUSTER CALCULATION                    *
 *                                                                             *
 *                                                                             *
 *******************************************************************************
 *******************************************************************************

                                                                                
                                                                                
            Total SCF   energy:                   -40.1917720926                
            Total MP2-R12/A energy:               -40.3918078442                
            Total CC2-R12/A energy:               -40.3929123948                
  

 *******************************************************************************
 *******************************************************************************
 *                                                                             *
 *                                                                             *
 *                      END OF COUPLED CLUSTER CALCULATION                     *
 *                                                                             *
 *                                                                             *
 *******************************************************************************
 *******************************************************************************


 >>>> CPU and wall time for CC :      43.529      45.333

 
     Date and time (Linux)  : Sun Sep  8 21:06:33 2013
     Host name              : lpqlx131.ups-tlse.fr                    


                      .-------------------------------------.
                      | End of Coupled Cluster Section (CC) |
                      `-------------------------------------'

 >>>> Total CPU  time used in DALTON:  44.52 seconds
 >>>> Total wall time used in DALTON:  46.33 seconds

 
     Date and time (Linux)  : Sun Sep  8 21:06:33 2013
     Host name              : lpqlx131.ups-tlse.fr                    
