

     ************************************************************************
     *************** Dalton - An Electronic Structure Program ***************
     ************************************************************************

    This is output from DALTON (Release Dalton2013 patch 0)
   ----------------------------------------------------------------------------
    NOTE:
     
    Dalton is an experimental code for the evaluation of molecular
    properties using (MC)SCF, DFT, CI, and CC wave functions.
    The authors accept no responsibility for the performance of
    the code or for the correctness of the results.
     
    The code (in whole or part) is provided under a licence and
    is not to be reproduced for further distribution without
    the written permission of the authors or their representatives.
     
    See the home page "http://daltonprogram.org" for further information.
     
    If results obtained with this code are published,
    the appropriate citations would be both of:
     
       K. Aidas, C. Angeli, K. L. Bak, V. Bakken, R. Bast,
       L. Boman, O. Christiansen, R. Cimiraglia, S. Coriani,
       P. Dahle, E. K. Dalskov, U. Ekstroem, T. Enevoldsen,
       J. J. Eriksen, P. Ettenhuber, B. Fernandez, L. Ferrighi,
       H. Fliegl, L. Frediani, K. Hald, A. Halkier, C. Haettig,
       H. Heiberg, T. Helgaker, A. C. Hennum, H. Hettema,
       E. Hjertenaes, S. Hoest, I.-M. Hoeyvik, M. F. Iozzi,
       B. Jansik, H. J. Aa. Jensen, D. Jonsson, P. Joergensen,
       J. Kauczor, S. Kirpekar, T. Kjaergaard, W. Klopper,
       S. Knecht, R. Kobayashi, H. Koch, J. Kongsted, A. Krapp,
       K. Kristensen, A. Ligabue, O. B. Lutnaes, J. I. Melo,
       K. V. Mikkelsen, R. H. Myhre, C. Neiss, C. B. Nielsen,
       P. Norman, J. Olsen, J. M. H. Olsen, A. Osted,
       M. J. Packer, F. Pawlowski, T. B. Pedersen, P. F. Provasi,
       S. Reine, Z. Rinkevicius, T. A. Ruden, K. Ruud, V. Rybkin,
       P. Salek, C. C. M. Samson, A. Sanchez de Meras, T. Saue,
       S. P. A. Sauer, B. Schimmelpfennig, K. Sneskov,
       A. H. Steindal, K. O. Sylvester-Hvid, P. R. Taylor,
       A. M. Teale, E. I. Tellgren, D. P. Tew, A. J. Thorvaldsen,
       L. Thoegersen, O. Vahtras, M. A. Watson, D. J. D. Wilson,
       M. Ziolkowski and H. Agren.
       The Dalton quantum chemistry program system.
       WIREs Comput. Mol. Sci. 2013. doi: 10.1002/wcms.1172
    
    and
    
       Dalton, a Molecular Electronic Structure Program,
       Release DALTON2013.0 (2013), see http://daltonprogram.org
   ----------------------------------------------------------------------------

    Authors in alphabetical order (major contribution(s) in parenthesis):

  Kestutis Aidas,           Vilnius University,           Lithuania   (QM/MM)
  Celestino Angeli,         University of Ferrara,        Italy       (NEVPT2)
  Keld L. Bak,              UNI-C,                        Denmark     (AOSOPPA, non-adiabatic coupling, magnetic properties)
  Vebjoern Bakken,          University of Oslo,           Norway      (DALTON; geometry optimizer, symmetry detection)
  Radovan Bast,             KTH Stockholm                 Sweden      (DALTON installation and execution frameworks)
  Linus Boman,              NTNU,                         Norway      (Cholesky decomposition and subsystems)
  Ove Christiansen,         Aarhus University,            Denmark     (CC module)
  Renzo Cimiraglia,         University of Ferrara,        Italy       (NEVPT2)
  Sonia Coriani,            University of Trieste,        Italy       (CC module, MCD in RESPONS)
  Paal Dahle,               University of Oslo,           Norway      (Parallelization)
  Erik K. Dalskov,          UNI-C,                        Denmark     (SOPPA)
  Thomas Enevoldsen,        Univ. of Southern Denmark,    Denmark     (SOPPA)
  Janus J. Eriksen,         Aarhus University,            Denmark     (PE-MP2/SOPPA, TDA)
  Berta Fernandez,          U. of Santiago de Compostela, Spain       (doublet spin, ESR in RESPONS)
  Lara Ferrighi,            Aarhus University,            Denmark     (PCM Cubic response)
  Heike Fliegl,             University of Oslo,           Norway      (CCSD(R12))
  Luca Frediani,            UiT The Arctic U. of Norway,  Norway      (PCM)
  Bin Gao,                  UiT The Arctic U. of Norway,  Norway      (Gen1Int library)
  Christof Haettig,         Ruhr-University Bochum,       Germany     (CC module)
  Kasper Hald,              Aarhus University,            Denmark     (CC module)
  Asger Halkier,            Aarhus University,            Denmark     (CC module)
  Hanne Heiberg,            University of Oslo,           Norway      (geometry analysis, selected one-electron integrals)
  Trygve Helgaker,          University of Oslo,           Norway      (DALTON; ABACUS, ERI, DFT modules, London, and much more)
  Alf Christian Hennum,     University of Oslo,           Norway      (Parity violation)
  Hinne Hettema,            University of Auckland,       New Zealand (quadratic response in RESPONS; SIRIUS supersymmetry)
  Eirik Hjertenaes,         NTNU,                         Norway      (Cholesky decomposition)
  Maria Francesca Iozzi,    University of Oslo,           Norway      (RPA)
  Brano Jansik              Technical Univ. of Ostrava    Czech Rep.  (DFT cubic response)
  Hans Joergen Aa. Jensen,  Univ. of Southern Denmark,    Denmark     (DALTON; SIRIUS, RESPONS, ABACUS modules, London, and much more)
  Dan Jonsson,              UiT The Arctic U. of Norway,  Norway      (cubic response in RESPONS module)
  Poul Joergensen,          Aarhus University,            Denmark     (RESPONS, ABACUS, and CC modules)
  Joanna Kauczor,           Linkoeping University,        Sweden      (Complex polarization propagator (CPP) module)
  Sheela Kirpekar,          Univ. of Southern Denmark,    Denmark     (Mass-velocity & Darwin integrals)
  Wim Klopper,              KIT Karlsruhe,                Germany     (R12 code in CC, SIRIUS, and ABACUS modules)
  Stefan Knecht,            ETH Zurich,                   Switzerland (Parallel CI and MCSCF)
  Rika Kobayashi,           Australian National Univ.,    Australia   (DIIS in CC, London in MCSCF)
  Henrik Koch,              NTNU,                         Norway      (CC module, Cholesky decomposition)
  Jacob Kongsted,           Univ. of Southern Denmark,    Denmark     (Polarizable embedding, QM/MM)
  Andrea Ligabue,           University of Modena,         Italy       (CTOCD, AOSOPPA)
  Ola B. Lutnaes,           University of Oslo,           Norway      (DFT Hessian)
  Juan I. Melo,             University of Buenos Aires,   Argentina   (LRESC, Relativistic Effects on NMR Shieldings)
  Kurt V. Mikkelsen,        University of Copenhagen,     Denmark     (MC-SCRF and QM/MM)
  Rolf H. Myhre,            NTNU,                         Norway      (Cholesky, subsystems and ECC2)
  Christian Neiss,          Univ. Erlangen-Nuernberg,     Germany     (CCSD(R12))
  Christian B. Nielsen,     University of Copenhagen,     Denmark     (QM/MM)
  Patrick Norman,           Linkoeping University,        Sweden      (Cubic response and complex response in RESPONS)
  Jeppe Olsen,              Aarhus University,            Denmark     (SIRIUS CI/density modules)
  Jogvan Magnus H. Olsen,   Univ. of Southern Denmark,    Denmark     (Polarizable embedding, PE library, QM/MM)
  Anders Osted,             Copenhagen University,        Denmark     (QM/MM)
  Martin J. Packer,         University of Sheffield,      UK          (SOPPA)
  Filip Pawlowski,          Kazimierz Wielki University   Poland      (CC3)
  Thomas B. Pedersen,       University of Oslo,           Norway      (Cholesky decomposition)
  Patricio F. Provasi,      University of Northeastern,   Argentina   (Analysis of coupling constants in localized orbitals)
  Zilvinas Rinkevicius,     KTH Stockholm,                Sweden      (open-shell DFT, ESR)
  Elias Rudberg,            KTH Stockholm,                Sweden      (DFT grid and basis info)
  Torgeir A. Ruden,         University of Oslo,           Norway      (Numerical derivatives in ABACUS)
  Kenneth Ruud,             UiT The Arctic U. of Norway,  Norway      (DALTON; ABACUS magnetic properties and  much more)
  Pawel Salek,              KTH Stockholm,                Sweden      (DALTON; DFT code)
  Claire C. M. Samson       University of Karlsruhe       Germany     (Boys localization, r12 integrals in ERI)
  Alfredo Sanchez de Meras, University of Valencia,       Spain       (CC module, Cholesky decomposition)
  Trond Saue,               Paul Sabatier University,     France      (direct Fock matrix construction)
  Stephan P. A. Sauer,      University of Copenhagen,     Denmark     (SOPPA(CCSD), SOPPA prop., AOSOPPA, vibrational g-factors)
  Bernd Schimmelpfennig,    Forschungszentrum Karlsruhe,  Germany     (AMFI module)
  Kristian Sneskov,         Aarhus University,            Denmark     (QM/MM, PE-CC)
  Arnfinn H. Steindal,      UiT The Arctic U. of Norway,  Norway      (parallel QM/MM)
  K. O. Sylvester-Hvid,     University of Copenhagen,     Denmark     (MC-SCRF)
  Peter R. Taylor,          VLSCI/Univ. of Melbourne,     Australia   (Symmetry handling ABACUS, integral transformation)
  Andrew M. Teale,          University of Nottingham,     England     (DFT-AC, DFT-D)
  David P. Tew,             University of Bristol,        England     (CCSD(R12))
  Olav Vahtras,             KTH Stockholm,                Sweden      (triplet response, spin-orbit, ESR, TDDFT, open-shell DFT)
  David J. Wilson,          La Trobe University,          Australia   (DFT Hessian and DFT magnetizabilities)
  Hans Agren,               KTH Stockholm,                Sweden      (SIRIUS module, RESPONS, MC-SCRF solvation model)
 --------------------------------------------------------------------------------

     Date and time (Linux)  : Sun Sep  8 21:06:34 2013
     Host name              : lpqlx131.ups-tlse.fr                    

 * Work memory size             :    64000000 =  488.28 megabytes.

 * Directories for basis set searches:
   1) /home/bast/DALTON-2013.0-Source/build/test_cc2_r12_aux_ch4_ff2
   2) /home/bast/DALTON-2013.0-Source/build/basis


Compilation information
-----------------------

 Who compiled             | bast
 Host                     | lpqlx131.ups-tlse.fr
 System                   | Linux-3.8.5-201.fc18.x86_64
 CMake generator          | Unix Makefiles
 Processor                | x86_64
 64-bit integers          | OFF
 MPI                      | OFF
 Fortran compiler         | /usr/bin/gfortran
 Fortran compiler version | GNU Fortran (GCC) 4.7.2 20121109 (Red Hat 4.7.2-8)
 C compiler               | /usr/bin/gcc
 C compiler version       | gcc (GCC) 4.7.2 20121109 (Red Hat 4.7.2-8)
 C++ compiler             | /usr/bin/g++
 C++ compiler version     | g++ (GCC) 4.7.2 20121109 (Red Hat 4.7.2-8)
 Static linking           | OFF
 Last Git revision        | f34203295a86316e27f9e7b44f9b6769c4a046c0
 Configuration time       | 2013-09-08 20:31:27.952056


   Content of the .dal input file
 ----------------------------------

**DALTON INPUT                                    
.RUN WAVE FUNCTION                                
*MOLBAS                                           
.R12AUX                                           
**INTEGRALS                                       
.R12                                              
.DIPLEN                                           
**WAVE FUNCTIONS                                  
.CC                                               
*SCF INPUT                                        
.THRESHOLD                                        
 1.0D-10                                          
*ORBITALS                                         
.MOSTART                                          
 H1DIAG                                           
*CC INPUT                                         
.CC2                                              
.PRINT                                            
 3                                                
.FREEZE                                           
 1 0                                              
.THRENR                                           
 1.0D-12                                          
.THRLEQ                                           
 1.0D-10                                          
.FIELD                                            
 1.0D-02                                          
 XDIPLEN                                          
.PACK                                             
 1.0D-15                                          
*CCFOP                                            
.NONREL                                           
.DIPMOM                                           
*CCLR                                             
.OPERAT                                           
XDIPLEN XDIPLEN                                   
.ASYMSD                                           
*CCQR                                             
.OPERAT                                           
XDIPLEN XDIPLEN XDIPLEN                           
.NOBMAT                                           
*R12 INPUT                                        
.CC2                                              
 1A                                               
**END OF DALTON INPUT                             


   Content of the .mol file
 ----------------------------

BASIS                                                                          
6-311G** 6-311++G(3df,3pd)                                                     
CH4: CC2-R12/A finite field calculation without symmetry                       
                                                                               
    4    0                                                                     
 1      6.    1                                                                
C      0.000000000000000   0.000000000000000   0.000000000000000       *       
 1      1.    4                                                                
H      1.276731000000000   1.276731000000000   1.276731000000000       *       
H     -1.276731000000000  -1.276731000000000   1.276731000000000       *       
H     -1.276731000000000   1.276731000000000  -1.276731000000000       *       
H      1.276731000000000  -1.276731000000000  -1.276731000000000       *       
 2      6.    1                                                                
C      0.000000000000000   0.000000000000000   0.000000000000000       *       
 2      1.    4                                                                
H      1.276731000000000   1.276731000000000   1.276731000000000       *       
H     -1.276731000000000  -1.276731000000000   1.276731000000000       *       
H     -1.276731000000000   1.276731000000000  -1.276731000000000       *       
H      1.276731000000000  -1.276731000000000  -1.276731000000000       *       


       *******************************************************************
       *********** Output from DALTON general input processing ***********
       *******************************************************************

 --------------------------------------------------------------------------------
   Overall default print level:    0
   Print level for DALTON.STAT:    1

    HERMIT 1- and 2-electron integral sections will be executed
    "Old" integral transformation used (limited to max 255 basis functions)
    Wave function sections will be executed (SIRIUS module)
 --------------------------------------------------------------------------------


 Changes of defaults for *MOLBAS:
 --------------------------------

 Print level in molecule setup (READIN):    1

 .R12AUX: Reading auxiliary basis sets from .mol file for R12



   ****************************************************************************
   *************** Output of molecule and basis set information ***************
   ****************************************************************************


    The two title cards from your ".mol" input:
    ------------------------------------------------------------------------
 1: CH4: CC2-R12/A finite field calculation without symmetry                
 2:                                                                         
    ------------------------------------------------------------------------

  Atomic type no.    1
  --------------------
  Nuclear charge:   6.00000
  Number of symmetry independent centers:    1
  Number of basis sets to read;    1
  Basis set file used for this atomic type with Z =   6 :
     "/home/bast/DALTON-2013.0-Source/build/basis/6-311G**"

  Info about the basis set file: your basis has no documentation.
  Basis set: 6-311G**                                                                        

  Atomic type no.    2
  --------------------
  Nuclear charge:   1.00000
  Number of symmetry independent centers:    4
  Number of basis sets to read;    1
  Basis set file used for this atomic type with Z =   1 :
     "/home/bast/DALTON-2013.0-Source/build/basis/6-311G**"

  Info about the basis set file: your basis has no documentation.
  Basis set: 6-311G**                                                                        

  Atomic type no.    3
  --------------------
  Nuclear charge:   6.00000
  Number of symmetry independent centers:    1
  This is an auxiliary basis for R12, MBSI:    2
  Basis set file used for this atomic type with Z =   6 :
     "/home/bast/DALTON-2013.0-Source/build/basis/6-311++G(3df,3pd)"

  Info about the basis set file: your basis has no documentation.
  Basis set: 6-311++G(3df,3pd)                                                               

  Atomic type no.    4
  --------------------
  Nuclear charge:   1.00000
  Number of symmetry independent centers:    4
  This is an auxiliary basis for R12, MBSI:    2
  Basis set file used for this atomic type with Z =   1 :
     "/home/bast/DALTON-2013.0-Source/build/basis/6-311++G(3df,3pd)"

  Info about the basis set file: your basis has no documentation.
  Basis set: 6-311++G(3df,3pd)                                                               


                         SYMGRP: Point group information
                         -------------------------------

Point group: C1 


                                 Isotopic Masses
                                 ---------------

                           C          12.000000
                           H           1.007825
                           H           1.007825
                           H           1.007825
                           H           1.007825
                           C           0.000000
                           H           0.000000
                           H           0.000000
                           H           0.000000
                           H           0.000000

                       Total mass:    16.031300 amu
                       Natural abundance:   0.000 %

 Center-of-mass coordinates (a.u.):    0.000000    0.000000    0.000000


  Atoms and basis sets
  --------------------

  Number of atom types :    4
  Total number of atoms:   10

  Basis set 1 refers to the basis "6-311G**" from the basis set library.

  Basis set 2 refers to the basis "6-311++G(3df,3pd)" from the basis set library.

  label  basis   atoms  charge   prim  cont     basis
  ------------------------------------------------------------------------------
  C        1       1    6.0000    31    18      [11s5p1d|4s3p1d]                                   
  H        1       4    1.0000     8     6      [5s1p|3s1p]                                        
  C        2       1    0.0000    52    39      [12s6p3d1f|5s4p3d1f]                               
  H        2       4    0.0000    20    18      [6s3p1d|4s3p1d]                                    
  ------------------------------------------------------------------------------
  total:          10   10.0000   195   153
  ------------------------------------------------------------------------------
  Spherical harmonic basis used.

  Threshold for neglecting AO integrals:  1.00D-12


  Cartesian Coordinates (a.u.)
  ----------------------------

  Total number of coordinates:   30
  C       :     1  x   0.0000000000    2  y   0.0000000000    3  z   0.0000000000
  H       :     4  x   1.2767310000    5  y   1.2767310000    6  z   1.2767310000
  H       :     7  x  -1.2767310000    8  y  -1.2767310000    9  z   1.2767310000
  H       :    10  x  -1.2767310000   11  y   1.2767310000   12  z  -1.2767310000
  H       :    13  x   1.2767310000   14  y  -1.2767310000   15  z  -1.2767310000
  C       :    16  x   0.0000000000   17  y   0.0000000000   18  z   0.0000000000
  H       :    19  x   1.2767310000   20  y   1.2767310000   21  z   1.2767310000
  H       :    22  x  -1.2767310000   23  y  -1.2767310000   24  z   1.2767310000
  H       :    25  x  -1.2767310000   26  y   1.2767310000   27  z  -1.2767310000
  H       :    28  x   1.2767310000   29  y  -1.2767310000   30  z  -1.2767310000


   Interatomic separations (in Angstrom):
   --------------------------------------

            C           H           H           H           H           C     
            ------      ------      ------      ------      ------      ------
 C     :    0.000000
 H     :    1.170203    0.000000
 H     :    1.170203    1.910933    0.000000
 H     :    1.170203    1.910933    1.910933    0.000000
 H     :    1.170203    1.910933    1.910933    1.910933    0.000000
 C     :    0.000000    1.170203    1.170203    1.170203    1.170203    0.000000
 H     :    1.170203    0.000000    1.910933    1.910933    1.910933    1.170203
 H     :    1.170203    1.910933    0.000000    1.910933    1.910933    1.170203
 H     :    1.170203    1.910933    1.910933    0.000000    1.910933    1.170203
 H     :    1.170203    1.910933    1.910933    1.910933    0.000000    1.170203

            H           H           H           H     
            ------      ------      ------      ------
 H     :    0.000000
 H     :    1.910933    0.000000
 H     :    1.910933    1.910933    0.000000
 H     :    1.910933    1.910933    1.910933    0.000000


  Max    interatomic separation is    1.9109 Angstrom (    3.6111 Bohr)
  between atoms    3 and    2, "H     " and "H     ".

  Min HX interatomic separation is    0.0000 Angstrom (    0.0000 Bohr)

  Min YX interatomic separation is    0.0000 Angstrom (    0.0000 Bohr)

WARNING: Number of short HX and YX bond lengths:    4    1
WARNING: If not intentional, maybe your coordinates were in Angstrom,
WARNING: but "Angstrom" was not specified in .mol file


  Bond distances (Angstrom):
  --------------------------

                  atom 1     atom 2       distance
                  ------     ------       --------
  bond distance:  H          C            1.170203
  bond distance:  H          C            1.170203
  bond distance:  H          C            1.170203
  bond distance:  H          C            1.170203


  Bond angles (degrees):
  ----------------------

                  atom 1     atom 2     atom 3         angle
                  ------     ------     ------         -----
  bond angle:     H          C          H            109.471
  bond angle:     H          C          H            109.471
  bond angle:     H          C          H            109.471
  bond angle:     H          C          H            109.471
  bond angle:     H          C          H            109.471
  bond angle:     H          C          H            109.471




 Principal moments of inertia (u*A**2) and principal axes
 --------------------------------------------------------

   IA       3.680240          1.000000    0.000000    0.000000
   IB       3.680240          0.000000    1.000000    0.000000
   IC       3.680240          0.000000    0.000000    1.000000


 Rotational constants
 --------------------

               A                   B                   C

         137322.2814         137322.2814         137322.2814 MHz
            4.580578            4.580578            4.580578 cm-1


@  Nuclear repulsion energy :   12.514560078913 Hartree

  Number of main orbitals in each symmetry:          42
  Number of auxiliary functions in each symmetry:   111

  Number of floating/multiple basis set orbitals :    5


                     .---------------------------------------.
                     | Starting in Integral Section (HERMIT) |
                     `---------------------------------------'



    *************************************************************************
    ****************** Output from HERMIT input processing ******************
    *************************************************************************


 Default print level:        1

 * Nuclear model: Point charge

 Calculation of one- and two-electron Hamiltonian integrals.

 The following one-electron property integrals are calculated as requested:
          - overlap integrals
          - dipole length integrals
          - Cartesian multipole moment integrals of orders 2 and lower

 Center of mass  (bohr):      0.000000000000      0.000000000000      0.000000000000
 Operator center (bohr):      0.000000000000      0.000000000000      0.000000000000
 Gauge origin    (bohr):      0.000000000000      0.000000000000      0.000000000000
 Dipole origin   (bohr):      0.000000000000      0.000000000000      0.000000000000


     ************************************************************************
     ************************** Output from HERINT **************************
     ************************************************************************


 Threshold for neglecting two-electron integrals:  1.00D-12
 Number of two-electron integrals written:      377953 (  0.5% )
 Megabytes written:                              4.328

 >>>  Time used in TWOINT     is   0.10 seconds
 >>>> Total CPU  time used in HERMIT:   0.27 seconds
 >>>> Total wall time used in HERMIT:   0.27 seconds


                        .----------------------------------.
                        | End of Integral Section (HERMIT) |
                        `----------------------------------'



                   .--------------------------------------------.
                   | Starting in Wave Function Section (SIRIUS) |
                   `--------------------------------------------'


 >>>> Detected R12 input:
 Direct Fock matrix formation switched on!
 Scale factors for CC excitations manifolds:
 for bra states (projection manifold):   1.0000000000000000     
 for ket states (operator manifold)  :   1.0000000000000000     

 **********************************************************************
 *SIRIUS* a direct, restricted step, second order MCSCF program       *
 **********************************************************************

 
     Date and time (Linux)  : Sun Sep  8 21:06:35 2013
     Host name              : lpqlx131.ups-tlse.fr                    

 Title lines from ".mol" input file:
     CH4: CC2-R12/A finite field calculation without symmetry                
                                                                             

 Print level on unit LUPRI =   2 is   0
 Print level on unit LUW4  =   2 is   5

@    (Integral direct) CC calculation.

@    This is a combination run starting with
@              a restricted, closed shell Hartree-Fock calculation

 Fock matrices are calculated directly without use of integrals on disk.

 Initial molecular orbitals are obtained according to
 ".MOSTART H1DIAG" input option

     Wave function specification
     ============================

     For the specification of the Coupled Cluster: see later.

@    For the wave function of type :      >>> CC <<<
@    Number of closed shell electrons          10
@    Number of electrons in active shells       0
@    Total charge of the molecule               0

@    Spin multiplicity and 2 M_S                1         0
     Total number of symmetries                 1
@    Reference state symmetry                   1

     Orbital specifications
     ======================
     Abelian symmetry species          All |    1
                                       --- |  ---
@    Occupied SCF orbitals               5 |    5
     Secondary orbitals                 37 |   37
     Total number of orbitals           42 |   42
     Number of basis functions         153 |  153

     Optimization information
     ========================
@    Number of configurations                 1
@    Number of orbital rotations            185
     ------------------------------------------
@    Total number of variables              186

     Maximum number of Fock   iterations      0
     Maximum number of DIIS   iterations     60
     Maximum number of QC-SCF iterations     60
     Threshold for SCF convergence     1.00D-10


 Changes of defaults for CC:
 ---------------------------


 -Implicit frozen core calculation
 -Calculation with finite fields:
    Field strength:   0.010000Field Label:  XDIPLEN 

 Electric field:      0.01000000    0.00000000    0.00000000
 Total norm:          0.01000000
Center of charge:    0.00000000    0.00000000    0.00000000
Charge correction to interaction with electric field:   -0.00000000

 -Linear response properties calculated
 -Quadratic response properties calculated
 -Dipole moment calculated
  


 >>>>> DIIS optimization of Hartree-Fock <<<<<

 C1-DIIS algorithm; max error vectors =   10

 Iter      Total energy        Error norm    Delta(E)  DIIS dim.
 -----------------------------------------------------------------------------
   1  Screening settings (-IFTHRS, DIFDEN)   -8    T

***  INFO  GETGAB: GABAOXXX not found on AOPROPER. Regenerating.
@  1    -26.9208461510        1.73607D+01   -2.69D+01    1
      Virial theorem: -V/T =      1.397424
@      MULPOP C      -3.96; H       0.99; H       0.99; H       0.99; H       0.99; 
 -----------------------------------------------------------------------------
   2  Screening settings (-IFTHRS, DIFDEN)   -8    T
@  2    -34.5740137557        5.98235D+00   -7.65D+00    2
      Virial theorem: -V/T =      2.092202
@      MULPOP C       7.24; H      -1.81; H      -1.81; H      -1.81; H      -1.81; 
 -----------------------------------------------------------------------------
   3  Screening settings (-IFTHRS, DIFDEN)   -8    T
@  3    -38.7812868907        4.97171D+00   -4.21D+00    3
      Virial theorem: -V/T =      1.865551
@      MULPOP C      -2.05; H       0.51; H       0.51; H       0.51; H       0.51; 
 -----------------------------------------------------------------------------
   4  Screening settings (-IFTHRS, DIFDEN)   -8    T
@  4    -40.0920858805        1.20614D+00   -1.31D+00    4
      Virial theorem: -V/T =      1.982551
@      MULPOP C      -0.78; H       0.19; H       0.19; H       0.19; H       0.19; 
 -----------------------------------------------------------------------------
   5  Screening settings (-IFTHRS, DIFDEN)   -8    T
@  5    -40.1914985460        6.81150D-02   -9.94D-02    5
      Virial theorem: -V/T =      2.012916
@      MULPOP C      -0.36; H       0.09; H       0.09; H       0.09; H       0.09; 
 -----------------------------------------------------------------------------
   6  Screening settings (-IFTHRS, DIFDEN)  -10    F
@  6    -40.1917302489        2.38626D-02   -2.32D-04    6
      Virial theorem: -V/T =      2.011954
@      MULPOP C      -0.38; H       0.09; H       0.09; H       0.09; H       0.09; 
 -----------------------------------------------------------------------------
   7  Screening settings (-IFTHRS, DIFDEN)  -10    T
@  7    -40.1917714459        1.95575D-03   -4.12D-05    7
      Virial theorem: -V/T =      2.011289
@      MULPOP C      -0.38; H       0.10; H       0.10; H       0.10; H       0.10; 
 -----------------------------------------------------------------------------
   8  Screening settings (-IFTHRS, DIFDEN)  -12    F
@  8    -40.1917720842        2.23608D-04   -6.38D-07    8
      Virial theorem: -V/T =      2.011253
@      MULPOP C      -0.38; H       0.10; H       0.10; H       0.10; H       0.10; 
 -----------------------------------------------------------------------------
   9  Screening settings (-IFTHRS, DIFDEN)  -12    T
@  9    -40.1917720926        2.77388D-05   -8.32D-09    9
      Virial theorem: -V/T =      2.011254
@      MULPOP C      -0.38; H       0.09; H       0.09; H       0.09; H       0.09; 
 -----------------------------------------------------------------------------
  10  Screening settings (-IFTHRS, DIFDEN)  -12    T
@ 10    -40.1917720926        1.90472D-06   -6.96D-11   10
      Virial theorem: -V/T =      2.011255
@      MULPOP C      -0.38; H       0.09; H       0.09; H       0.09; H       0.09; 
 -----------------------------------------------------------------------------
  11  Screening settings (-IFTHRS, DIFDEN)  -17    F
@ 11    -40.1917720926        2.04077D-07   -1.49D-13   10
      Virial theorem: -V/T =      2.011255
@      MULPOP C      -0.38; H       0.09; H       0.09; H       0.09; H       0.09; 
 -----------------------------------------------------------------------------
  12  Screening settings (-IFTHRS, DIFDEN)  -17    T
@ 12    -40.1917720926        3.20208D-08   -4.26D-14   10
      Virial theorem: -V/T =      2.011255
@      MULPOP C      -0.38; H       0.09; H       0.09; H       0.09; H       0.09; 
 -----------------------------------------------------------------------------
  13  Screening settings (-IFTHRS, DIFDEN)  -17    T
@ 13    -40.1917720926        6.94055D-10    3.55D-14   10
      Virial theorem: -V/T =      2.011255
@      MULPOP C      -0.38; H       0.09; H       0.09; H       0.09; H       0.09; 
 -----------------------------------------------------------------------------
  14  Screening settings (-IFTHRS, DIFDEN)  -17    T
@ 14    -40.1917720926        1.71052D-11   -7.11D-14   10

@ *** DIIS converged in  14 iterations !
@     Converged SCF energy, gradient:    -40.191772092640    1.71D-11
    - total time used in SIRFCK :              0.00 seconds


 *** SCF orbital energy analysis ***

 Only the five lowest virtual orbital energies printed in each symmetry.

 Number of electrons :   10
 Orbital occupations :    5

 Sym       Hartree-Fock orbital energies

  1    -11.24614520    -0.91114126    -0.52478334    -0.52478334    -0.52478334
         0.15222200     0.22923252     0.22923252     0.22923252     0.41945542

    E(LUMO) :     0.15222200 au (symmetry 1)
  - E(HOMO) :    -0.52478334 au (symmetry 1)
  ------------------------------------------
    gap     :     0.67700534 au

 >>> Writing SIRIFC interface file <<<

  Canonical primary and secondary basis sets
  ISYM       NORB1 MBAS1       NORB2 MBAS2
     1          42    42         111   111

 Computation of exchange matrix done [5]

 AUXILIARY BASIS LOW EIGENVALUES
 ISYM         EIGENVALUE
   1      0.000000000000
 >>>  Time used in R12AUX     is   1.07 seconds

 >>>> CPU and wall time for SCF :       2.873       3.147


                       .-----------------------------------.
                       | >>> Final results from SIRIUS <<< |
                       `-----------------------------------'


@    Spin multiplicity:           1
@    Spatial symmetry:            1
@    Total charge of molecule:    0

@    Final HF energy:             -40.191772092640                 
@    Nuclear repulsion:            12.514560078913
@    Electronic energy:           -52.706332171553

@    Final gradient norm:           0.000000000017

 
     Date and time (Linux)  : Sun Sep  8 21:06:38 2013
     Host name              : lpqlx131.ups-tlse.fr                    

 (Only coefficients >0.0100 are printed.)

 Molecular orbitals for symmetry species  1
 ------------------------------------------

    Orbital         1        2        3        4        5        6        7
   1 C   :1s     0.5636  -0.1015   0.0000  -0.0000   0.0000   0.0530   0.0000
   2 C   :1s     0.4666  -0.1682   0.0000  -0.0000  -0.0000   0.0852   0.0000
   3 C   :1s     0.0034   0.4331  -0.0000   0.0000   0.0000  -0.0983  -0.0000
   4 C   :1s    -0.0008   0.2981   0.0000  -0.0000  -0.0000  -1.9759   0.0000
   5 C   :2px    0.0000  -0.0000  -0.1140   0.1217  -0.0723  -0.0000   0.1398
   6 C   :2py    0.0000   0.0000  -0.0752  -0.1307  -0.1015   0.0000   0.0201
   7 C   :2pz   -0.0000  -0.0000  -0.1200  -0.0337   0.1323  -0.0000   0.0387
   8 C   :2px   -0.0000   0.0000  -0.1838   0.1963  -0.1166   0.0000   0.1034
   9 C   :2py    0.0000   0.0000  -0.1212  -0.2108  -0.1637   0.0000   0.0148
  10 C   :2pz    0.0000  -0.0000  -0.1935  -0.0544   0.2134  -0.0000   0.0286
  11 C   :2px    0.0000  -0.0000  -0.1285   0.1372  -0.0815  -0.0000   1.0738
  12 C   :2py    0.0000   0.0000  -0.0847  -0.1473  -0.1144   0.0000   0.1540
  13 C   :2pz   -0.0000   0.0000  -0.1352  -0.0380   0.1491  -0.0000   0.2972
  14 C   :3d2-   0.0000   0.0000  -0.0211  -0.0059   0.0233  -0.0000  -0.0061
  15 C   :3d1-  -0.0000  -0.0000  -0.0200   0.0214  -0.0127   0.0000  -0.0222
  17 C   :3d1+   0.0000   0.0000  -0.0132  -0.0230  -0.0178   0.0000  -0.0032
  19 H   :1s     0.0003   0.0770  -0.1634  -0.0226  -0.0219   0.0184  -0.0262
  20 H   :1s     0.0002   0.1094  -0.2703  -0.0373  -0.0363  -0.0089   0.1091
  21 H   :1s     0.0001   0.0088  -0.1282  -0.0177  -0.0172   0.7492  -1.6636
  22 H   :2px   -0.0001  -0.0110   0.0101   0.0088  -0.0017  -0.0006  -0.0096
  23 H   :2py   -0.0001  -0.0110   0.0122  -0.0048  -0.0033  -0.0006  -0.0129
  24 H   :2pz   -0.0001  -0.0110   0.0098   0.0004   0.0093  -0.0006  -0.0124
  25 H   :1s     0.0003   0.0770   0.0366  -0.0131   0.1618   0.0184   0.0160
  26 H   :1s     0.0002   0.1094   0.0605  -0.0217   0.2676  -0.0089  -0.0666
  27 H   :1s     0.0001   0.0088   0.0287  -0.0103   0.1269   0.7492   1.0151
  28 H   :2px    0.0001   0.0110  -0.0025   0.0052   0.0122   0.0006  -0.0044
  29 H   :2py    0.0001   0.0110  -0.0004  -0.0083   0.0106   0.0006  -0.0076
  30 H   :2pz   -0.0001  -0.0110  -0.0101  -0.0005  -0.0089  -0.0006   0.0093
  31 H   :1s     0.0003   0.0770   0.0839  -0.1156  -0.0854   0.0184   0.0209
  32 H   :1s     0.0002   0.1094   0.1388  -0.1912  -0.1412  -0.0089  -0.0871
  33 H   :1s     0.0001   0.0088   0.0658  -0.0907  -0.0670   0.7492   1.3276
  34 H   :2px    0.0001   0.0110   0.0022  -0.0049  -0.0123   0.0006  -0.0069
  35 H   :2py   -0.0001  -0.0110  -0.0123   0.0045   0.0030  -0.0006   0.0113
  36 H   :2pz    0.0001   0.0110   0.0019  -0.0133  -0.0014   0.0006  -0.0097
  37 H   :1s     0.0003   0.0770   0.0429   0.1513  -0.0545   0.0184  -0.0107
  38 H   :1s     0.0002   0.1094   0.0710   0.2502  -0.0901  -0.0089   0.0445
  39 H   :1s     0.0001   0.0088   0.0337   0.1187  -0.0428   0.7492  -0.6791
  40 H   :2px   -0.0001  -0.0110  -0.0104  -0.0085   0.0015  -0.0006  -0.0016
  41 H   :2py    0.0001   0.0110   0.0002   0.0080  -0.0108   0.0006   0.0060
  42 H   :2pz    0.0001   0.0110  -0.0022   0.0132   0.0017   0.0006   0.0065



 >>>> Total CPU  time used in SIRIUS :      2.91 seconds
 >>>> Total wall time used in SIRIUS :      3.18 seconds

 
     Date and time (Linux)  : Sun Sep  8 21:06:38 2013
     Host name              : lpqlx131.ups-tlse.fr                    


                     .---------------------------------------.
                     | End of Wave Function Section (SIRIUS) |
                     `---------------------------------------'



                    .------------------------------------------.
                    | Starting in Coupled Cluster Section (CC) |
                    `------------------------------------------'

  

 *******************************************************************************
 *******************************************************************************
 *                                                                             *
 *                                                                             *
 *                    START OF COUPLED CLUSTER CALCULATION                     *
 *                                                                             *
 *                                                                             *
 *******************************************************************************
 *******************************************************************************


  I am freezing!
  >> output from FNDMN3 <<
  NUMBER OF ELEMENTS OBTAINED IN FNDMN3            1
  FROM FNDMN3 : 
    PLACES OF LOWEST ELEMENTS 
     1 :      1
  MIN AND MAX IN SELECTED SUPSPACE   -11.246145204413889       -11.246145204413889     
 Freezing HF-orbital   1 of symmetry   1 and with orbital energy  -11.2461
 In total frozen-core per symmetry-class:  1
 


          Time needed to pack integrals:       0.03 seconds
          Threshold used for packing:      0.10E-14
          Reduction obtained by packing:      23.29 %


 CCR12 ANSATZ =   1

 CCR12 APPROX =   2


  I am freezing!
 Freezing HF-orbital   1 of symmetry   1 and with orbital energy  -11.2461
 In total frozen-core per symmetry-class:  1
 
   NRHF   :       4
   NRHFS  :       5
   NORB1  :      42
   NORB2  :     111

 Number of primary orbitals             :           42
 Number of secondary orbitals           :          111
 Total number of orbitals               :          153
 Total number of basis functions        :          153
 Number of (i|p') integrals             :          612
 Number of (i|u') integrals             :          612
 Number of (Ip'|1/r12|jL) integrals     :          612
 Number of (ip'|1/r12|jq') integrals    :       187578
 Number of (ip'|r12|jq') integrals      :       187578
 Number of (ip'|[T1,r12]|jq') integrals :       374544
 Threshold for R12 contributions            =  0.00000    
 Threshold for singular value decomposition = 0.100000E-11

 The B matrix is transformed into an orthogonal basis
 and inverted by diagonalization

 ******************************************************************************
 The MP2-R12/A and MP2-R12/B energies are computed as described in:
 W. Klopper, J. Chem. Phys. 120, 10890-10895 (2004).
 To avoid the hybride scheme, the keyword '.NO HYB'
 must be specified in the Dalton input file.
 ------------------------------------------------------------------------------
 Ansatz 1 is used and results are printed for approximations A and B.
 ******************************************************************************

 Core memory required by CCSD_R12 :         985941  (double words)

 Computation of (ip'|r12|jq') integrals done
 >>>  Time used in R  [6]     is  27.64 seconds
 Backtransformation of (ip'|r12|jq') integrals done
 >>>  Time used in R12BATF    is   0.21 seconds
 Computation of CC-R12 VXINT response intermediates done

 >>> Time used for VXINT is   0.27 seconds

 Computation of V^aj_kl intermediate done

 >>> Time used for V^aj_kl is    0.35 seconds

 Computation of (ip'|1/r12|jq') integrals done
 >>>  Time used in 1/R[5]     is   9.08 seconds
 Computation of (i* p'|r12|jq') integrals done
 >>>  Time used in R  [5]     is   8.90 seconds
 Computation of (i'p|r12|jq') integrals done
 >>>  Time used in R  [5]     is   9.41 seconds
 Computation of (ip'|[T,r12]|jq') integrals done
 >>>  Time used in T,R[5]     is  12.26 seconds


                 +-----------------------------------------------+
                 ! MP2-R12 ansatz := (1 - P1 - P2 + P1*P2) * R12 !
                 +-----------------------------------------------+


 SECOND-ORDER PAIR ENERGIES:

                    1   -0.008552696    0.000000000
                    2   -0.012167435   -0.004524398
                    3   -0.018869224    0.000000000
                    4   -0.012167435   -0.004524398
                    5   -0.008513272   -0.011368248
                    6   -0.018029269    0.000000000
                    7   -0.012167435   -0.004524398
                    8   -0.007346649   -0.011368248
                    9   -0.009026558   -0.011368248
                   10   -0.018612580    0.000000000

 MP2 =   -0.173130492   -0.125452553   -0.047677939


                         +--------------------------------+
                         ! Auxiliary-basis MP2-R12 method !
                         +--------------------------------+


 SECOND-ORDER R12/A PAIR ENERGIES:

   1   -0.008552696   -0.010623222    0.000000000   -0.000000000     1.62962         1.93487    
   2   -0.012167435   -0.014443622   -0.004524398   -0.004706073     1.62962         1.93487    
   3   -0.018869224   -0.022245588    0.000000000   -0.000000000     1.62962         1.93487    
   4   -0.012167435   -0.014443622   -0.004524398   -0.004706073     1.62962         1.93487    
   5   -0.008513272   -0.010278332   -0.011368248   -0.012119637     1.62962         1.93487    
   6   -0.018029269   -0.021301335    0.000000000   -0.000000000     1.62962         1.93487    
   7   -0.012167435   -0.014443622   -0.004524398   -0.004706073     1.62962         1.93487    
   8   -0.007346649   -0.008966848   -0.011368248   -0.012119637     1.62962         1.93487    
   9   -0.009026558   -0.010855354   -0.011368248   -0.012119637     1.62962         1.93487    
  10   -0.018612580   -0.021957077    0.000000000   -0.000000000     1.62962         1.93487    

       -0.125452553   -0.149558622   -0.047677939   -0.050477130

              MP2-R12/A   correlation energy =   -0.200035752

 SECOND-ORDER R12/B PAIR ENERGIES:

   1   -0.008552696   -0.010011093    0.000000000   -0.000000000     3.27397         3.66842    
   2   -0.012167435   -0.014035374   -0.004524398   -0.004674765     2.88761         3.28207    
   3   -0.018869224   -0.021472602    0.000000000   -0.000000000     2.50126         2.89571    
   4   -0.012167435   -0.014035374   -0.004524398   -0.004674765     2.88761         3.28207    
   5   -0.008513272   -0.009790672   -0.011368248   -0.011870315     2.50126         2.89571    
   6   -0.018029269   -0.020536930    0.000000000   -0.000000000     2.50126         2.89571    
   7   -0.012167435   -0.014035374   -0.004524398   -0.004674765     2.88761         3.28207    
   8   -0.007346649   -0.008491107   -0.011368248   -0.011870315     2.50126         2.89571    
   9   -0.009026558   -0.010362450   -0.011368248   -0.011870315     2.50126         2.89571    
  10   -0.018612580   -0.021186713    0.000000000   -0.000000000     2.50126         2.89571    

       -0.125452553   -0.143957687   -0.047677939   -0.049635241

              MP2-R12/B   correlation energy =   -0.193592928
 Time for MP2-R12 part cpu :   67.599999999999994     
 Time for MP2-R12 part wall:   71.781000018119812     

  I am freezing!
  >> output from FNDMN3 <<
  NUMBER OF ELEMENTS OBTAINED IN FNDMN3            1
  FROM FNDMN3 : 
    PLACES OF LOWEST ELEMENTS 
     1 :      1
  MIN AND MAX IN SELECTED SUPSPACE   -11.246145204413889       -11.246145204413889     
 Freezing HF-orbital   1 of symmetry   1 and with orbital energy  -11.2461
 In total frozen-core per symmetry-class:  1
 
   

 *******************************************************************
 *                                                                 *
 *<<<<<<<<<<                                             >>>>>>>>>>*
 *<<<<<<<<<< OUTPUT FROM COUPLED CLUSTER ENERGY PROGRAM  >>>>>>>>>>*
 *<<<<<<<<<<                                             >>>>>>>>>>*
 *                                                                 *
 *******************************************************************


             The Direct Coupled Cluster Energy Program
             -----------------------------------------


          Number of t1 amplitudes                 :       148
          Number of t2 amplitudes                 :     11026
          Number of t2' amplitudes for R12 part   :       136
          Total number of amplitudes in ccsd      :     11310

 Iter.  1: Coupled cluster MP2-R12/A energy :     -40.3918078441908577
     Conventional correlation energy:    -0.1731304917326995
     R12 correlation energy         :    -0.0269052598176684
     Total correlation energy       :    -0.2000357515503678


       Iteration no.:  1
       -----------------

       Time used in   RHS - TOTAL  :       1.63 seconds
       Norm^2 of omega1 after ccvec:        0.1546719499D-02
       Norm^2 of omega2 after ccvec:        0.5329092579D-05
       Norm^2 of Omegar12  in NXTAM:        0.4060665168D-08
 Iter.  1: Coupled cluster CC2-R12/A energy :     -40.3916613537858140
     Conventional correlation energy:    -0.1729840013278121
     R12 correlation energy         :    -0.0269052598175104
     Total correlation energy       :    -0.1998892611453225


       Iteration no.:  2
       -----------------

       Time used in   RHS - TOTAL  :       1.63 seconds
       Norm^2 of omega1 after ccvec:        0.3022950824D-04
       Norm^2 of omega2 after ccvec:        0.1090396761D-03
       Norm^2 of Omegar12  in NXTAM:        0.1959380528D-07
 Iter.  2: Coupled cluster CC2-R12/A energy :     -40.3932938003618531
     Conventional correlation energy:    -0.1745801972749774
     R12 correlation energy         :    -0.0269415104463863
     Total correlation energy       :    -0.2015217077213638


       Iteration no.:  3
       -----------------

       Time used in   RHS - TOTAL  :       1.63 seconds
       Norm^2 of omega1 after ccvec:        0.7245524317D-05
       Norm^2 of omega2 after ccvec:        0.3594388950D-05
       Norm^2 of Omegar12  in NXTAM:        0.1054771021D-08
 Iter.  3: Coupled cluster CC2-R12/A energy :     -40.3936151582177914
     Conventional correlation energy:    -0.1749058358423952
     R12 correlation energy         :    -0.0269372297349064
     Total correlation energy       :    -0.2018430655773015


       Iteration no.:  4
       -----------------

       Time used in   RHS - TOTAL  :       1.63 seconds
       Norm^2 of omega1 after ccvec:        0.2482323098D-06
       Norm^2 of omega2 after ccvec:        0.1738565543D-06
       Norm^2 of Omegar12  in NXTAM:        0.4081673802D-10
 Iter.  4: Coupled cluster CC2-R12/A energy :     -40.3936852134066697
     Conventional correlation energy:    -0.1749718202484658
     R12 correlation energy         :    -0.0269413005177143
     Total correlation energy       :    -0.2019131207661801


       Iteration no.:  5
       -----------------

       Time used in   RHS - TOTAL  :       1.64 seconds
       Norm^2 of omega1 after ccvec:        0.1072115752D-07
       Norm^2 of omega2 after ccvec:        0.1303341987D-07
       Norm^2 of Omegar12  in NXTAM:        0.1187669170D-11
 Iter.  5: Coupled cluster CC2-R12/A energy :     -40.3936851204221483
     Conventional correlation energy:    -0.1749718691403714
     R12 correlation energy         :    -0.0269411586412853
     Total correlation energy       :    -0.2019130277816567


       Iteration no.:  6
       -----------------

       Time used in   RHS - TOTAL  :       1.64 seconds
       Norm^2 of omega1 after ccvec:        0.3976008966D-09
       Norm^2 of omega2 after ccvec:        0.3124988262D-09
       Norm^2 of Omegar12  in NXTAM:        0.5399718755D-13
 Iter.  6: Coupled cluster CC2-R12/A energy :     -40.3936881046471115
     Conventional correlation energy:    -0.1749748244982996
     R12 correlation energy         :    -0.0269411875083196
     Total correlation energy       :    -0.2019160120066192


       Iteration no.:  7
       -----------------

       Time used in   RHS - TOTAL  :       1.64 seconds
       Norm^2 of omega1 after ccvec:        0.1462385413D-10
       Norm^2 of omega2 after ccvec:        0.1696538333D-10
       Norm^2 of Omegar12  in NXTAM:        0.2604603789D-14
 Iter.  7: Coupled cluster CC2-R12/A energy :     -40.3936882265526762
     Conventional correlation energy:    -0.1749749681787094
     R12 correlation energy         :    -0.0269411657334784
     Total correlation energy       :    -0.2019161339121878


       Iteration no.:  8
       -----------------

       Time used in   RHS - TOTAL  :       1.64 seconds
       Norm^2 of omega1 after ccvec:        0.8838070341D-12
       Norm^2 of omega2 after ccvec:        0.7106067118D-12
       Norm^2 of Omegar12  in NXTAM:        0.1457474703D-15
 Iter.  8: Coupled cluster CC2-R12/A energy :     -40.3936882466582006
     Conventional correlation energy:    -0.1749750031000090
     R12 correlation energy         :    -0.0269411509177009
     Total correlation energy       :    -0.2019161540177099


       Iteration no.:  9
       -----------------

       Time used in   RHS - TOTAL  :       1.63 seconds
       Norm^2 of omega1 after ccvec:        0.2221358040D-13
       Norm^2 of omega2 after ccvec:        0.1814053981D-13
       Norm^2 of Omegar12  in NXTAM:        0.2455892570D-17
 Iter.  9: Coupled cluster CC2-R12/A energy :     -40.3936882527938721
     Conventional correlation energy:    -0.1749750095944691
     R12 correlation energy         :    -0.0269411505589104
     Total correlation energy       :    -0.2019161601533795


       Iteration no.: 10
       -----------------

       Time used in   RHS - TOTAL  :       1.64 seconds
       Norm^2 of omega1 after ccvec:        0.2842287060D-14
       Norm^2 of omega2 after ccvec:        0.2673602370D-14
       Norm^2 of Omegar12  in NXTAM:        0.3926128004D-18
 Iter. 10: Coupled cluster CC2-R12/A energy :     -40.3936882550907086
     Conventional correlation energy:    -0.1749750118451487
     R12 correlation energy         :    -0.0269411506050720
     Total correlation energy       :    -0.2019161624502208


       Iteration no.: 11
       -----------------

       Time used in   RHS - TOTAL  :       1.64 seconds
       Norm^2 of omega1 after ccvec:        0.1315686360D-15
       Norm^2 of omega2 after ccvec:        0.1335359718D-15
       Norm^2 of Omegar12  in NXTAM:        0.1445737127D-19
 Iter. 11: Coupled cluster CC2-R12/A energy :     -40.3936882551621466
     Conventional correlation energy:    -0.1749750119832285
     R12 correlation energy         :    -0.0269411505384252
     Total correlation energy       :    -0.2019161625216537


       Iteration no.: 12
       -----------------

       Time used in   RHS - TOTAL  :       1.64 seconds
       Norm^2 of omega1 after ccvec:        0.8097983470D-17
       Norm^2 of omega2 after ccvec:        0.6812705676D-17
       Norm^2 of Omegar12  in NXTAM:        0.1298734549D-20
 Iter. 12: Coupled cluster CC2-R12/A energy :     -40.3936882552958565
     Conventional correlation energy:    -0.1749750121210880
     R12 correlation energy         :    -0.0269411505342746
     Total correlation energy       :    -0.2019161626553626


       Iteration no.: 13
       -----------------

       Time used in   RHS - TOTAL  :       1.64 seconds
       Norm^2 of omega1 after ccvec:        0.2054319103D-18
       Norm^2 of omega2 after ccvec:        0.2010760413D-18
       Norm^2 of Omegar12  in NXTAM:        0.2446237280D-22
 Iter. 13: Coupled cluster CC2-R12/A energy :     -40.3936882552843670
     Conventional correlation energy:    -0.1749750121106715
     R12 correlation energy         :    -0.0269411505332025
     Total correlation energy       :    -0.2019161626438740


       Iteration no.: 14
       -----------------

       Time used in   RHS - TOTAL  :       1.63 seconds
       Norm^2 of omega1 after ccvec:        0.1294081104D-19
       Norm^2 of omega2 after ccvec:        0.9780967720D-20
       Norm^2 of Omegar12  in NXTAM:        0.1939849416D-23
 Iter. 14: Coupled cluster CC2-R12/A energy :     -40.3936882552876426
     Conventional correlation energy:    -0.1749750121126681
     R12 correlation energy         :    -0.0269411505344835
     Total correlation energy       :    -0.2019161626471516


       Iteration no.: 15
       -----------------

       Time used in   RHS - TOTAL  :       1.64 seconds
       Norm^2 of omega1 after ccvec:        0.4348619629D-21
       Norm^2 of omega2 after ccvec:        0.3815301871D-21
       Norm^2 of Omegar12  in NXTAM:        0.6146866014D-25
 Iter. 15: Coupled cluster CC2-R12/A energy :     -40.3936882552875716
     Conventional correlation energy:    -0.1749750121125615
     R12 correlation energy         :    -0.0269411505345194
     Total correlation energy       :    -0.2019161626470809


 CC2-R12/A energy converged to within   0.10D-11 is          -40.393688255288
 Final 2-norm of the CC vector function:  2.85725769D-11
 R12       energy converged to within   0.10D-11 is     -0.026941151


                    +------------------------------------------+
                    ! Largest amplitudes in converged solution !
                    +------------------------------------------+



          CC_PRAM:Overall Contribution of the Different Components
          --------------------------------------------------------



          Single Excitation Contribution :               3.6093 %

          Double Excitation Contribution :              96.3907 %

          ||T1||/||T2||                  :               0.1935

          Tau1 diagnostic                :               0.0119

          Norm of Total Amplitude Vector :               0.1767


 +=============================================================================+
 | symmetry|  orbital index  |   Excitation Numbers             |   Amplitude  |
 |  Index  |   a   b   i   j |      NAI      NBJ |     NAIBJ    |              |
 +=============================================================================+
 | 1   1   |   1       2     |       38          |              |    0.009524  |
 | 1   1   |   2       2     |       39          |              |   -0.006521  |
 | 1   1   |   4       2     |       41          |              |    0.011361  |
 | 1   1   |   7       2     |       44          |              |   -0.010825  |
 | 1   1   |   1       3     |       75          |              |   -0.010171  |
 | 1   1   |   4       3     |       78          |              |    0.011170  |
 | 1   1   |   6       3     |       80          |              |    0.007335  |
 | 1   1   |  11       3     |       85          |              |   -0.006353  |
 +-----------------------------------------------------------------------------+
 | 1 1 1 1 |   1   1   1   1 |        1        1 |            1 |   -0.011774  |
 | 1 1 1 1 |   8   1   1   1 |        8        1 |           29 |   -0.008707  |
 | 1 1 1 1 |  12   1   1   1 |       12        1 |           67 |    0.008725  |
 | 1 1 1 1 |   2   1   2   1 |       39        1 |          742 |   -0.011562  |
 | 1 1 1 1 |   4   1   2   1 |       41        1 |          821 |    0.007519  |
 | 1 1 1 1 |   9   1   2   1 |       46        1 |         1036 |   -0.011992  |
 | 1 1 1 1 |  10   1   2   1 |       47        1 |         1082 |    0.008174  |
 | 1 1 1 1 |   2   1   3   1 |       76        1 |         2851 |    0.006903  |
 | 1 1 1 1 |   4   1   3   1 |       78        1 |         3004 |    0.011279  |
 | 1 1 1 1 |  11   1   3   1 |       85        1 |         3571 |   -0.013065  |
 | 1 1 1 1 |   3   1   4   1 |      114        1 |         6442 |   -0.013314  |
 | 1 1 1 1 |  10   1   4   1 |      121        1 |         7261 |   -0.011605  |
 | 1 1 1 1 |   2   2   1   1 |        2        2 |            3 |   -0.006638  |
 | 1 1 1 1 |   3   3   1   1 |        3        3 |            6 |   -0.006982  |
 | 1 1 1 1 |   5   5   1   1 |        5        5 |           15 |   -0.008107  |
 | 1 1 1 1 |   8   5   4   1 |      119        5 |         7026 |   -0.006568  |
 | 1 1 1 1 |   6   6   1   1 |        6        6 |           21 |   -0.008215  |
 | 1 1 1 1 |   7   7   1   1 |        7        7 |           28 |   -0.008268  |
 | 1 1 1 1 |   8   7   2   1 |       45        7 |          997 |   -0.006898  |
 | 1 1 1 1 |   8   8   1   1 |        8        8 |           36 |   -0.011023  |
 | 1 1 1 1 |  12   8   1   1 |       12        8 |           74 |    0.006576  |
 | 1 1 1 1 |   2   8   2   1 |       39        8 |          749 |   -0.008338  |
 | 1 1 1 1 |   9   8   2   1 |       46        8 |         1043 |   -0.011196  |
 | 1 1 1 1 |  10   8   2   1 |       47        8 |         1089 |    0.007593  |
 | 1 1 1 1 |   4   8   3   1 |       78        8 |         3011 |    0.008156  |
 | 1 1 1 1 |  11   8   3   1 |       85        8 |         3578 |   -0.012212  |
 | 1 1 1 1 |   3   8   4   1 |      114        8 |         6449 |   -0.009537  |
 | 1 1 1 1 |  10   8   4   1 |      121        8 |         7268 |   -0.010980  |
 | 1 1 1 1 |   9   9   1   1 |        9        9 |           45 |   -0.009328  |
 | 1 1 1 1 |  10  10   1   1 |       10       10 |           55 |   -0.009333  |
 | 1 1 1 1 |  11  11   1   1 |       11       11 |           66 |   -0.009331  |
 | 1 1 1 1 |   8  11   3   1 |       82       11 |         3332 |   -0.006586  |
 | 1 1 1 1 |  12  12   1   1 |       12       12 |           78 |   -0.010283  |
 | 1 1 1 1 |   2  12   2   1 |       39       12 |          753 |    0.007280  |
 | 1 1 1 1 |   9  12   2   1 |       46       12 |         1047 |    0.010460  |
 | 1 1 1 1 |  10  12   2   1 |       47       12 |         1093 |   -0.007102  |
 | 1 1 1 1 |   4  12   3   1 |       78       12 |         3015 |   -0.007081  |
 | 1 1 1 1 |  11  12   3   1 |       85       12 |         3582 |    0.011405  |
 | 1 1 1 1 |   3  12   4   1 |      114       12 |         6453 |    0.008434  |
 | 1 1 1 1 |  10  12   4   1 |      121       12 |         7272 |    0.010222  |
 | 1 1 1 1 |  13  13   1   1 |       13       13 |           91 |   -0.009742  |
 | 1 1 1 1 |  14  14   1   1 |       14       14 |          105 |   -0.009741  |
 | 1 1 1 1 |   1   1   2   2 |       38       38 |          741 |   -0.008910  |
 | 1 1 1 1 |   8   1   2   2 |       45       38 |         1028 |   -0.006945  |
 | 1 1 1 1 |   2   2   2   2 |       39       39 |          780 |   -0.018573  |
 | 1 1 1 1 |   4   2   2   2 |       41       39 |          859 |    0.009800  |
 | 1 1 1 1 |   9   2   2   2 |       46       39 |         1074 |   -0.015456  |
 | 1 1 1 1 |  10   2   2   2 |       47       39 |         1120 |    0.009108  |
 | 1 1 1 1 |   4   2   3   2 |       78       39 |         3042 |    0.008131  |
 | 1 1 1 1 |  11   2   3   2 |       85       39 |         3609 |   -0.010141  |
 | 1 1 1 1 |   3   2   4   2 |      114       39 |         6480 |   -0.011936  |
 | 1 1 1 1 |  10   2   4   2 |      121       39 |         7299 |   -0.008769  |
 | 1 1 1 1 |   4   4   2   2 |       41       41 |          861 |   -0.010455  |
 | 1 1 1 1 |   9   4   2   2 |       46       41 |         1076 |    0.008735  |
 | 1 1 1 1 |  10   4   2   2 |       47       41 |         1122 |   -0.007181  |
 | 1 1 1 1 |   4   4   3   2 |       78       41 |         3044 |   -0.008291  |
 | 1 1 1 1 |  11   4   3   2 |       85       41 |         3611 |    0.007268  |
 | 1 1 1 1 |   5   5   2   2 |       42       42 |          903 |   -0.010563  |
 | 1 1 1 1 |   6   6   2   2 |       43       43 |          946 |   -0.009597  |
 | 1 1 1 1 |   7   7   2   2 |       44       44 |          990 |   -0.028375  |
 | 1 1 1 1 |   8   7   2   2 |       45       44 |         1034 |    0.009282  |
 | 1 1 1 1 |   9   7   2   2 |       46       44 |         1079 |   -0.007050  |
 | 1 1 1 1 |  20   7   2   2 |       57       44 |         1640 |   -0.008619  |
 | 1 1 1 1 |  13   7   3   2 |       87       44 |         3785 |    0.009133  |
 | 1 1 1 1 |  14   7   4   2 |      125       44 |         7794 |    0.008227  |
 | 1 1 1 1 |   8   8   2   2 |       45       45 |         1035 |   -0.014047  |
 | 1 1 1 1 |   9   9   2   2 |       46       46 |         1081 |   -0.020675  |
 | 1 1 1 1 |  10   9   2   2 |       47       46 |         1127 |    0.011379  |
 | 1 1 1 1 |   4   9   3   2 |       78       46 |         3049 |    0.008327  |
 | 1 1 1 1 |  11   9   3   2 |       85       46 |         3616 |   -0.012491  |
 | 1 1 1 1 |   3   9   4   2 |      114       46 |         6487 |   -0.011244  |
 | 1 1 1 1 |   9   9   4   2 |      120       46 |         7186 |   -0.007468  |
 | 1 1 1 1 |  10   9   4   2 |      121       46 |         7306 |   -0.010750  |
 | 1 1 1 1 |  11   9   4   2 |      122       46 |         7427 |   -0.007180  |
 | 1 1 1 1 |  10  10   2   2 |       47       47 |         1128 |   -0.011238  |
 | 1 1 1 1 |   4  10   3   2 |       78       47 |         3050 |   -0.007188  |
 | 1 1 1 1 |  11  10   3   2 |       85       47 |         3617 |    0.010203  |
 | 1 1 1 1 |   3  10   4   2 |      114       47 |         6488 |    0.006996  |
 | 1 1 1 1 |  10  10   4   2 |      121       47 |         7307 |    0.008262  |
 | 1 1 1 1 |  13  13   2   2 |       50       50 |         1275 |   -0.011307  |
 | 1 1 1 1 |  14  14   2   2 |       51       51 |         1326 |   -0.013509  |
 | 1 1 1 1 |   6  14   3   2 |       80       51 |         3211 |   -0.006859  |
 | 1 1 1 1 |  15  15   2   2 |       52       52 |         1378 |   -0.007704  |
 | 1 1 1 1 |  17  17   2   2 |       54       54 |         1485 |   -0.007330  |
 | 1 1 1 1 |  20  20   2   2 |       57       57 |         1653 |   -0.011265  |
 | 1 1 1 1 |   1   1   3   3 |       75       75 |         2850 |   -0.008910  |
 | 1 1 1 1 |   8   1   3   3 |       82       75 |         3396 |   -0.006903  |
 | 1 1 1 1 |   2   2   3   3 |       76       76 |         2926 |   -0.008765  |
 | 1 1 1 1 |   4   2   3   3 |       78       76 |         3079 |   -0.008302  |
 | 1 1 1 1 |  11   2   3   3 |       85       76 |         3646 |    0.008909  |
 | 1 1 1 1 |   3   2   4   3 |      114       76 |         6517 |    0.007824  |
 | 1 1 1 1 |   3   3   3   3 |       77       77 |         3003 |   -0.006867  |
 | 1 1 1 1 |  11   3   3   3 |       85       77 |         3647 |   -0.006661  |
 | 1 1 1 1 |   4   4   3   3 |       78       78 |         3081 |   -0.018346  |
 | 1 1 1 1 |  10   4   3   3 |       84       78 |         3564 |   -0.006614  |
 | 1 1 1 1 |  11   4   3   3 |       85       78 |         3648 |    0.015276  |
 | 1 1 1 1 |   3   4   4   3 |      114       78 |         6519 |    0.010203  |
 | 1 1 1 1 |  10   4   4   3 |      121       78 |         7338 |    0.009480  |
 | 1 1 1 1 |   5   5   3   3 |       79       79 |         3160 |   -0.013080  |
 | 1 1 1 1 |   6   5   4   3 |      117       79 |         6865 |    0.007993  |
 | 1 1 1 1 |   6   6   3   3 |       80       80 |         3240 |   -0.023630  |
 | 1 1 1 1 |  19   6   3   3 |       93       80 |         4358 |    0.007564  |
 | 1 1 1 1 |  14   6   4   3 |      125       80 |         7830 |    0.007482  |
 | 1 1 1 1 |   7   7   3   3 |       81       81 |         3321 |   -0.011708  |
 | 1 1 1 1 |   8   8   3   3 |       82       82 |         3403 |   -0.014103  |
 | 1 1 1 1 |   9   9   3   3 |       83       83 |         3486 |   -0.007454  |
 | 1 1 1 1 |  11   9   3   3 |       85       83 |         3653 |    0.009192  |
 | 1 1 1 1 |  10   9   4   3 |      121       83 |         7343 |    0.006841  |
 | 1 1 1 1 |  10  10   3   3 |       84       84 |         3570 |   -0.007541  |
 | 1 1 1 1 |  11  11   3   3 |       85       85 |         3655 |   -0.023075  |
 | 1 1 1 1 |   3  11   4   3 |      114       85 |         6526 |   -0.012272  |
 | 1 1 1 1 |  10  11   4   3 |      121       85 |         7345 |   -0.013124  |
 | 1 1 1 1 |  11  11   4   3 |      122       85 |         7466 |   -0.007151  |
 | 1 1 1 1 |  13  13   3   3 |       87       87 |         3828 |   -0.015524  |
 | 1 1 1 1 |   5  13   4   3 |      116       87 |         6757 |   -0.008076  |
 | 1 1 1 1 |  14  14   3   3 |       88       88 |         3916 |   -0.009244  |
 | 1 1 1 1 |  16  16   3   3 |       90       90 |         4095 |   -0.006724  |
 | 1 1 1 1 |  19  19   3   3 |       93       93 |         4371 |   -0.010550  |
 | 1 1 1 1 |   1   1   4   4 |      112      112 |         6328 |   -0.008899  |
 | 1 1 1 1 |   8   1   4   4 |      119      112 |         7133 |   -0.006742  |
 | 1 1 1 1 |   2   2   4   4 |      113      113 |         6441 |   -0.006776  |
 | 1 1 1 1 |   3   3   4   4 |      114      114 |         6555 |   -0.023984  |
 | 1 1 1 1 |   9   3   4   4 |      120      114 |         7254 |   -0.008720  |
 | 1 1 1 1 |  10   3   4   4 |      121      114 |         7374 |   -0.016156  |
 | 1 1 1 1 |  11   3   4   4 |      122      114 |         7495 |   -0.009351  |
 | 1 1 1 1 |   5   5   4   4 |      116      116 |         6786 |   -0.023899  |
 | 1 1 1 1 |   8   5   4   4 |      119      116 |         7137 |   -0.006925  |
 | 1 1 1 1 |  18   5   4   4 |      129      116 |         8372 |   -0.007562  |
 | 1 1 1 1 |   6   6   4   4 |      117      117 |         6903 |   -0.015254  |
 | 1 1 1 1 |  13   6   4   4 |      124      117 |         7743 |   -0.006608  |
 | 1 1 1 1 |   7   7   4   4 |      118      118 |         7021 |   -0.008816  |
 | 1 1 1 1 |   8   8   4   4 |      119      119 |         7140 |   -0.014317  |
 | 1 1 1 1 |   9   9   4   4 |      120      120 |         7260 |   -0.009827  |
 | 1 1 1 1 |  10   9   4   4 |      121      120 |         7380 |   -0.009190  |
 | 1 1 1 1 |  10  10   4   4 |      121      121 |         7381 |   -0.019152  |
 | 1 1 1 1 |  11  10   4   4 |      122      121 |         7502 |   -0.008429  |
 | 1 1 1 1 |  11  11   4   4 |      122      122 |         7503 |   -0.008586  |
 | 1 1 1 1 |  13  13   4   4 |      124      124 |         7750 |   -0.010250  |
 | 1 1 1 1 |  14  14   4   4 |      125      125 |         7875 |   -0.014332  |
 | 1 1 1 1 |  16  16   4   4 |      127      127 |         8128 |   -0.008571  |
 | 1 1 1 1 |  18  18   4   4 |      129      129 |         8385 |   -0.010808  |
 | 1 1 1 1 |  30  30   4   4 |      141      141 |        10011 |   -0.007071  |
 +=============================================================================+


          Norm of Printed Amplitude Vector :             0.1330

          Printed all single excitations greater than 0.006333

          Printed all double excitations greater than 0.006545





             +-------------------------------------------------------+
             ! Final results from the Coupled Cluster energy program !
             +-------------------------------------------------------+



            Total SCF   energy:                   -40.1917720926

            Total MP2-R12/A energy:               -40.3918078442

            Total CC2-R12/A energy:               -40.3936882553




                   +--------------------------------------------+
                   ! Calculating singlet intermediates for CCLR !
                   +--------------------------------------------+



       Time used in   RHS - TOTAL  :       1.75 seconds


            E-intermediates calculated 
            Fock-intermediate calculated 


   

 *******************************************************************
 *                                                                 *
 *<<<<<<<<<<<<< OUTPUT FROM COUPLED CLUSTER RESPONSE  >>>>>>>>>>>>>*
 *                                                                 *
 *<<<<<<<<<<    CALCULATION OF FIRST ORDER PROPERTIES    >>>>>>>>>>*
 *                                                                 *
 *******************************************************************



                         +-------------------------------+
                         ! Coupled Cluster model is: CC2 !
                         +-------------------------------+


 Solving   1 response equations:
 L0 :
 RPA: call cceq_str
     Start vector generated from gradient
 RPA: exit cceq_str



 >>>>> COUPLED CLUSTER RESPONSE SOLVER <<<<<

    Iter  #Vectors  time (min)   residual
    --------------------------------------
  
 ROOT:  1 RESIDUAL TOT: 1.84083D-01
      1       1         0.00     0.18E+00
 Dimension of the reduced space:     2
 >>> TIME USED IN THIS MICRO ITERATION        0.12

  
 ROOT:  1 RESIDUAL TOT: 1.22436D-02
      2       1         0.00     0.12E-01
 Dimension of the reduced space:     3
 >>> TIME USED IN THIS MICRO ITERATION        0.12

  
 ROOT:  1 RESIDUAL TOT: 2.68016D-03
      3       1         0.00     0.27E-02
 Dimension of the reduced space:     4
 >>> TIME USED IN THIS MICRO ITERATION        0.12

  
 ROOT:  1 RESIDUAL TOT: 1.33499D-03
      4       1         0.00     0.13E-02
 Dimension of the reduced space:     5
 >>> TIME USED IN THIS MICRO ITERATION        0.12

  
 ROOT:  1 RESIDUAL TOT: 4.93319D-04
      5       1         0.00     0.49E-03
 Dimension of the reduced space:     6
 >>> TIME USED IN THIS MICRO ITERATION        0.12

  
 ROOT:  1 RESIDUAL TOT: 7.36344D-05
      6       1         0.00     0.74E-04
 Dimension of the reduced space:     7
 >>> TIME USED IN THIS MICRO ITERATION        0.12

  
 ROOT:  1 RESIDUAL TOT: 1.30545D-05
      7       1         0.00     0.13E-04
 Dimension of the reduced space:     8
 >>> TIME USED IN THIS MICRO ITERATION        0.12

  
 ROOT:  1 RESIDUAL TOT: 3.68848D-06
      8       1         0.00     0.37E-05
 Dimension of the reduced space:     9
 >>> TIME USED IN THIS MICRO ITERATION        0.12

  
 ROOT:  1 RESIDUAL TOT: 1.39033D-06
      9       1         0.00     0.14E-05
 Dimension of the reduced space:    10
 >>> TIME USED IN THIS MICRO ITERATION        0.12

  
 ROOT:  1 RESIDUAL TOT: 5.12399D-07
     10       1         0.00     0.51E-06
 Dimension of the reduced space:    11
 >>> TIME USED IN THIS MICRO ITERATION        0.12

  
 ROOT:  1 RESIDUAL TOT: 1.00141D-07
     11       1         0.00     0.10E-06
 Dimension of the reduced space:    12
 >>> TIME USED IN THIS MICRO ITERATION        0.12

  
 ROOT:  1 RESIDUAL TOT: 2.40251D-08
     12       1         0.00     0.24E-07
 Dimension of the reduced space:    13
 >>> TIME USED IN THIS MICRO ITERATION        0.12

  
 ROOT:  1 RESIDUAL TOT: 3.48791D-09
     13       1         0.00     0.35E-08
 Dimension of the reduced space:    14
 >>> TIME USED IN THIS MICRO ITERATION        0.12

  
 ROOT:  1 RESIDUAL TOT: 8.15160D-10
     14       1         0.00     0.82E-09
 Dimension of the reduced space:    15
 >>> TIME USED IN THIS MICRO ITERATION        0.12

  
 ROOT:  1 RESIDUAL TOT: 2.08067D-10
     15       1         0.00     0.21E-09
 Dimension of the reduced space:    16
 >>> TIME USED IN THIS MICRO ITERATION        0.12

  
 ROOT:  1 RESIDUAL TOT: 8.07025D-11
 ROOT:  1 HAS CONVERGED. RESIDUAL TOT: 8.07025D-11
     16       1         0.00     0.81E-10
 Dimension of the reduced space:    16
 >>> TIME USED IN THIS MICRO ITERATION        0.12

    --------------------------------------
    converged in 16 iterations
    threshold:    0.10E-09


         Routine          Time (min)
         ---------------------------
         CC_TRDRV            0.03
         CCRED               0.00
         CCNEX               0.00
         ---------------------------
         Total time          0.03


 >>>> Total CPU  time used in CCEQ_SOLV:   1.92 seconds
 >>>> Total wall time used in CCEQ_SOLV:   1.96 seconds


 >>>>>>>>>>>>>>>>>>>>> <<<<<<<<<<<<<<<<<<<<<



 Analysis of CC Response/Cauchy vector:
 --------------------------------------


          CC_PRAM:Overall Contribution of the Different Components
          --------------------------------------------------------



          Single Excitation Contribution :               1.5535 %

          Double Excitation Contribution :              98.4465 %

          ||T1||/||T2||                  :               0.1256

          Norm of Total Amplitude Vector :               0.4660


 +=============================================================================+
 | symmetry|  orbital index  |   Excitation Numbers             |   Amplitude  |
 |  Index  |   a   b   i   j |      NAI      NBJ |     NAIBJ    |              |
 +=============================================================================+
 | 1   1   |   6       1     |        6          |              |   -0.004314  |
 | 1   1   |   1       2     |       38          |              |    0.017902  |
 | 1   1   |   2       2     |       39          |              |   -0.007989  |
 | 1   1   |   4       2     |       41          |              |    0.018236  |
 | 1   1   |   7       2     |       44          |              |   -0.020009  |
 | 1   1   |   9       2     |       46          |              |   -0.007686  |
 | 1   1   |  10       2     |       47          |              |    0.005836  |
 | 1   1   |  20       2     |       57          |              |   -0.006445  |
 | 1   1   |  28       2     |       65          |              |    0.007725  |
 | 1   1   |   1       3     |       75          |              |   -0.019120  |
 | 1   1   |   3       3     |       77          |              |    0.006453  |
 | 1   1   |   4       3     |       78          |              |    0.016601  |
 | 1   1   |   6       3     |       80          |              |    0.014026  |
 | 1   1   |   7       3     |       81          |              |   -0.010598  |
 | 1   1   |  11       3     |       85          |              |   -0.008154  |
 | 1   1   |  19       3     |       93          |              |   -0.006368  |
 | 1   1   |  29       3     |      103          |              |   -0.007533  |
 | 1   1   |   1       4     |      112          |              |    0.011359  |
 | 1   1   |   3       4     |      114          |              |    0.014576  |
 | 1   1   |   6       4     |      117          |              |   -0.005516  |
 | 1   1   |  10       4     |      121          |              |   -0.005247  |
 | 1   1   |  18       4     |      129          |              |   -0.006211  |
 | 1   1   |  27       4     |      138          |              |    0.007435  |
 +-----------------------------------------------------------------------------+
 | 1 1 1 1 |   2   1   2   1 |       39        1 |          742 |   -0.037805  |
 | 1 1 1 1 |   9   1   2   1 |       46        1 |         1036 |   -0.037115  |
 | 1 1 1 1 |   4   1   3   1 |       78        1 |         3004 |    0.036879  |
 | 1 1 1 1 |  11   1   3   1 |       85        1 |         3571 |   -0.040411  |
 | 1 1 1 1 |   3   1   4   1 |      114        1 |         6442 |   -0.043447  |
 | 1 1 1 1 |  10   1   4   1 |      121        1 |         7261 |   -0.035850  |
 | 1 1 1 1 |  11   8   3   1 |       85        8 |         3578 |   -0.035578  |
 | 1 1 1 1 |   9  12   2   1 |       46       12 |         1047 |    0.033890  |
 | 1 1 1 1 |  11  12   3   1 |       85       12 |         3582 |    0.036957  |
 | 1 1 1 1 |  10  12   4   1 |      121       12 |         7272 |    0.033163  |
 | 1 1 1 1 |   2   2   2   2 |       39       39 |          780 |   -0.037284  |
 | 1 1 1 1 |   4   2   3   2 |       78       39 |         3042 |    0.036240  |
 | 1 1 1 1 |  11   2   3   2 |       85       39 |         3609 |   -0.039243  |
 | 1 1 1 1 |   3   2   4   2 |      114       39 |         6480 |   -0.041889  |
 | 1 1 1 1 |  10   2   4   2 |      121       39 |         7299 |   -0.035502  |
 | 1 1 1 1 |   7   7   2   2 |       44       44 |          990 |   -0.056702  |
 | 1 1 1 1 |  13   7   3   2 |       87       44 |         3785 |    0.041765  |
 | 1 1 1 1 |  14   7   4   2 |      125       44 |         7794 |    0.037367  |
 | 1 1 1 1 |   9   9   2   2 |       46       46 |         1081 |   -0.041126  |
 | 1 1 1 1 |   4   9   3   2 |       78       46 |         3049 |    0.036064  |
 | 1 1 1 1 |  11   9   3   2 |       85       46 |         3616 |   -0.047137  |
 | 1 1 1 1 |   3   9   4   2 |      114       46 |         6487 |   -0.041170  |
 | 1 1 1 1 |  10   9   4   2 |      121       46 |         7306 |   -0.045703  |
 | 1 1 1 1 |   4   4   3   3 |       78       78 |         3081 |   -0.036795  |
 | 1 1 1 1 |   3   4   4   3 |      114       78 |         6519 |    0.038679  |
[...]
 | 1 1 1 1 |  20   7   2   1 |       57        7 |         1603 |    0.044103  |
 | 1 1 1 1 |   6   7   3   1 |       80        7 |         3167 |    0.042069  |
 | 1 1 1 1 |   1   8   2   1 |       38        8 |          711 |   -0.052700  |
 | 1 1 1 1 |   1   8   3   1 |       75        8 |         2783 |    0.056284  |
 | 1 1 1 1 |   3   8   4   1 |      114        8 |         6449 |   -0.040342  |
 | 1 1 1 1 |   1  12   2   1 |       38       12 |          715 |    0.061309  |
 | 1 1 1 1 |   1  12   3   1 |       75       12 |         2787 |   -0.065479  |
 | 1 1 1 1 |   1  12   4   1 |      112       12 |         6228 |    0.038900  |
 | 1 1 1 1 |   3  12   4   1 |      114       12 |         6453 |    0.041404  |
 | 1 1 1 1 |   2   1   2   2 |       39       38 |          779 |   -0.121512  |
 | 1 1 1 1 |   4   1   2   2 |       41       38 |          858 |    0.057567  |
 | 1 1 1 1 |   7   1   2   2 |       44       38 |          984 |    0.049898  |
 | 1 1 1 1 |   9   1   2   2 |       46       38 |         1073 |   -0.050211  |
 | 1 1 1 1 |   4   1   3   2 |       78       38 |         3041 |    0.177401  |
 | 1 1 1 1 |   7   1   3   2 |       81       38 |         3278 |   -0.041771  |
 | 1 1 1 1 |  10   1   3   2 |       84       38 |         3524 |    0.066576  |
 | 1 1 1 1 |  11   1   3   2 |       85       38 |         3608 |   -0.104484  |
 | 1 1 1 1 |   3   1   4   2 |      114       38 |         6479 |   -0.089333  |
 | 1 1 1 1 |   4   1   4   2 |      115       38 |         6593 |   -0.056674  |
 | 1 1 1 1 |   5   1   4   2 |      116       38 |         6708 |    0.047673  |
 | 1 1 1 1 |  10   1   4   2 |      121       38 |         7298 |   -0.094693  |
 | 1 1 1 1 |   2   2   2   2 |       39       39 |          780 |    0.051451  |
 | 1 1 1 1 |   4   2   2   2 |       41       39 |          859 |   -0.091348  |
 | 1 1 1 1 |   1   2   3   2 |       75       39 |         2814 |    0.102614  |
 | 1 1 1 1 |   3   2   3   2 |       77       39 |         2965 |   -0.042951  |
 | 1 1 1 1 |   4   2   3   2 |       78       39 |         3042 |   -0.066574  |
 | 1 1 1 1 |   7   2   3   2 |       81       39 |         3279 |    0.064241  |
 | 1 1 1 1 |  10   2   3   2 |       84       39 |         3525 |    0.055557  |
 | 1 1 1 1 |   1   2   4   2 |      112       39 |         6255 |   -0.058045  |
 | 1 1 1 1 |   3   2   4   2 |      114       39 |         6480 |   -0.098966  |
 | 1 1 1 1 |   5   2   4   2 |      116       39 |         6709 |   -0.075574  |
 | 1 1 1 1 |  10   2   4   2 |      121       39 |         7299 |    0.042225  |
 | 1 1 1 1 |  11   2   4   2 |      122       39 |         7420 |    0.057113  |
 | 1 1 1 1 |   3   3   2   2 |       40       40 |          820 |   -0.045289  |
 | 1 1 1 1 |   9   3   4   2 |      120       40 |         7180 |    0.038382  |
 | 1 1 1 1 |   4   4   2   2 |       41       41 |          861 |    0.094880  |
 | 1 1 1 1 |   1   4   3   2 |       75       41 |         2816 |   -0.167204  |
 | 1 1 1 1 |   2   4   3   2 |       76       41 |         2891 |    0.055101  |
 | 1 1 1 1 |   4   4   3   2 |       78       41 |         3044 |    0.069039  |
 | 1 1 1 1 |   6   4   3   2 |       80       41 |         3201 |   -0.040468  |
 | 1 1 1 1 |   9   4   3   2 |       83       41 |         3444 |    0.052217  |
 | 1 1 1 1 |  11   4   3   2 |       85       41 |         3611 |   -0.062132  |
 | 1 1 1 1 |   1   4   4   2 |      112       41 |         6257 |    0.082606  |
 | 1 1 1 1 |   2   4   4   2 |      113       41 |         6369 |   -0.039299  |
 | 1 1 1 1 |   5   4   4   2 |      116       41 |         6711 |    0.047059  |
 | 1 1 1 1 |   9   4   4   2 |      120       41 |         7181 |   -0.040646  |
 | 1 1 1 1 |  10   4   4   2 |      121       41 |         7301 |   -0.081806  |
 | 1 1 1 1 |  11   4   4   2 |      122       41 |         7422 |   -0.057370  |
 | 1 1 1 1 |   2   5   4   2 |      113       42 |         6370 |    0.050208  |
 | 1 1 1 1 |  11   6   3   2 |       85       43 |         3613 |   -0.049028  |
 | 1 1 1 1 |   7   7   2   2 |       44       44 |          990 |   -0.051780  |
 | 1 1 1 1 |   8   7   2   2 |       45       44 |         1034 |   -0.039851  |
 | 1 1 1 1 |   9   7   2   2 |       46       44 |         1079 |    0.052001  |
 | 1 1 1 1 |  10   7   2   2 |       47       44 |         1125 |   -0.038820  |
 | 1 1 1 1 |   1   7   3   2 |       75       44 |         2819 |    0.040640  |
 | 1 1 1 1 |   2   7   3   2 |       76       44 |         2894 |   -0.071895  |
 | 1 1 1 1 |   9   7   3   2 |       83       44 |         3447 |   -0.055109  |
 | 1 1 1 1 |   9   7   4   2 |      120       44 |         7184 |    0.037691  |
 | 1 1 1 1 |  15   7   4   2 |      126       44 |         7919 |    0.046053  |
 | 1 1 1 1 |   3   8   4   2 |      114       45 |         6486 |    0.051270  |
 | 1 1 1 1 |  14   8   4   2 |      125       45 |         7795 |    0.046742  |
 | 1 1 1 1 |   1   9   3   2 |       75       46 |         2821 |    0.069206  |
 | 1 1 1 1 |   4   9   3   2 |       78       46 |         3049 |   -0.041716  |
 | 1 1 1 1 |   7   9   3   2 |       81       46 |         3286 |    0.061448  |
 | 1 1 1 1 |  10   9   3   2 |       84       46 |         3532 |    0.045683  |
 | 1 1 1 1 |   3   9   4   2 |      114       46 |         6487 |   -0.089247  |
 | 1 1 1 1 |   5   9   4   2 |      116       46 |         6716 |   -0.076356  |
 | 1 1 1 1 |  11   9   4   2 |      122       46 |         7427 |    0.043175  |
 | 1 1 1 1 |   1  10   3   2 |       75       47 |         2822 |   -0.074979  |
 | 1 1 1 1 |   2  10   3   2 |       76       47 |         2897 |   -0.046700  |
 | 1 1 1 1 |   1  10   4   2 |      112       47 |         6263 |    0.081101  |
 | 1 1 1 1 |   3  10   4   2 |      114       47 |         6488 |    0.073711  |
 | 1 1 1 1 |  14  10   4   2 |      125       47 |         7797 |    0.040651  |
 | 1 1 1 1 |   1  11   3   2 |       75       48 |         2823 |    0.078808  |
 | 1 1 1 1 |   4  11   3   2 |       78       48 |         3051 |    0.057775  |
 | 1 1 1 1 |   3  11   4   2 |      114       48 |         6489 |   -0.077589  |
 | 1 1 1 1 |  10  14   3   2 |       84       51 |         3537 |    0.039454  |
 | 1 1 1 1 |   8  14   4   2 |      119       51 |         7072 |   -0.047991  |
 | 1 1 1 1 |   2   1   3   3 |       76       75 |         2925 |   -0.080967  |
 | 1 1 1 1 |   4   1   3   3 |       78       75 |         3078 |   -0.108186  |
 | 1 1 1 1 |   6   1   3   3 |       80       75 |         3235 |    0.052070  |
 | 1 1 1 1 |  11   1   3   3 |       85       75 |         3645 |    0.041124  |
 | 1 1 1 1 |   3   1   4   3 |      114       75 |         6516 |    0.097196  |
 | 1 1 1 1 |   5   1   4   3 |      116       75 |         6745 |   -0.049406  |
 | 1 1 1 1 |  10   1   4   3 |      121       75 |         7335 |    0.067421  |
 | 1 1 1 1 |  11   1   4   3 |      122       75 |         7456 |    0.069331  |
 | 1 1 1 1 |   3   2   3   3 |       77       76 |         3002 |    0.037865  |
 | 1 1 1 1 |   3   2   4   3 |      114       76 |         6517 |    0.086416  |
 | 1 1 1 1 |   5   2   4   3 |      116       76 |         6746 |    0.047724  |
 | 1 1 1 1 |   3   3   3   3 |       77       77 |         3003 |   -0.055420  |
 | 1 1 1 1 |   8   3   4   3 |      119       77 |         7098 |    0.042108  |
 | 1 1 1 1 |  10   3   4   3 |      121       77 |         7337 |   -0.037890  |
 | 1 1 1 1 |  11   3   4   3 |      122       77 |         7458 |    0.051252  |
 | 1 1 1 1 |   4   4   3   3 |       78       78 |         3081 |    0.135994  |
 | 1 1 1 1 |   1   4   4   3 |      112       78 |         6294 |    0.073416  |
 | 1 1 1 1 |   3   4   4   3 |      114       78 |         6519 |    0.060723  |
 | 1 1 1 1 |   5   4   4   3 |      116       78 |         6748 |    0.075743  |
 | 1 1 1 1 |  10   4   4   3 |      121       78 |         7338 |   -0.086370  |
 | 1 1 1 1 |  11   4   4   3 |      122       78 |         7459 |   -0.069642  |
 | 1 1 1 1 |   5   5   3   3 |       79       79 |         3160 |    0.039336  |
 | 1 1 1 1 |   2   5   4   3 |      113       79 |         6407 |   -0.041869  |
 | 1 1 1 1 |   4   5   4   3 |      115       79 |         6634 |   -0.049117  |
 | 1 1 1 1 |  13   5   4   3 |      124       79 |         7705 |   -0.038044  |
 | 1 1 1 1 |   8   6   3   3 |       82       80 |         3401 |   -0.049220  |
 | 1 1 1 1 |  10   6   3   3 |       84       80 |         3566 |    0.041095  |
 | 1 1 1 1 |   3   6   4   3 |      114       80 |         6521 |   -0.039680  |
 | 1 1 1 1 |  16   6   4   3 |      127       80 |         8081 |   -0.044334  |
 | 1 1 1 1 |  11   7   3   3 |       85       81 |         3651 |    0.039043  |
 | 1 1 1 1 |   3   8   4   3 |      114       82 |         6523 |   -0.058365  |
 | 1 1 1 1 |  14   8   4   3 |      125       82 |         7832 |    0.047209  |
 | 1 1 1 1 |   5   9   4   3 |      116       83 |         6753 |    0.049943  |
 | 1 1 1 1 |  10   9   4   3 |      121       83 |         7343 |   -0.037474  |
 | 1 1 1 1 |   3  10   4   3 |      114       84 |         6525 |    0.093818  |
 | 1 1 1 1 |   4  10   4   3 |      115       84 |         6639 |    0.043218  |
 | 1 1 1 1 |   5  10   4   3 |      116       84 |         6754 |    0.039350  |
 | 1 1 1 1 |   1  11   4   3 |      112       85 |         6301 |   -0.081136  |
 | 1 1 1 1 |   3  11   4   3 |      114       85 |         6526 |   -0.084044  |
 | 1 1 1 1 |   4  11   4   3 |      115       85 |         6640 |    0.040017  |
 | 1 1 1 1 |   5  11   4   3 |      116       85 |         6755 |   -0.056245  |
 | 1 1 1 1 |   6  11   4   3 |      117       85 |         6871 |    0.043036  |
 | 1 1 1 1 |   3  12   4   3 |      114       86 |         6527 |    0.037608  |
 | 1 1 1 1 |   5  13   4   3 |      116       87 |         6757 |    0.043218  |
 | 1 1 1 1 |   8  14   4   3 |      119       88 |         7109 |   -0.041491  |
 | 1 1 1 1 |   6  16   4   3 |      117       90 |         6876 |    0.039785  |
 | 1 1 1 1 |   2   1   4   4 |      113      112 |         6440 |   -0.060735  |
 | 1 1 1 1 |   3   1   4   4 |      114      112 |         6553 |   -0.050994  |
 | 1 1 1 1 |   5   1   4   4 |      116      112 |         6782 |    0.046546  |
 | 1 1 1 1 |   3   2   4   4 |      114      113 |         6554 |   -0.041179  |
 | 1 1 1 1 |   8   2   4   4 |      119      113 |         7134 |   -0.037855  |
 | 1 1 1 1 |   3   3   4   4 |      114      114 |         6555 |   -0.138346  |
 | 1 1 1 1 |   5   3   4   4 |      116      114 |         6784 |    0.044238  |
 | 1 1 1 1 |  18   3   4   4 |      129      114 |         8370 |    0.058194  |
 | 1 1 1 1 |   5   5   4   4 |      116      116 |         6786 |    0.092084  |
 | 1 1 1 1 |  10   5   4   4 |      121      116 |         7376 |   -0.044354  |
 | 1 1 1 1 |  18   5   4   4 |      129      116 |         8372 |    0.037812  |
 | 1 1 1 1 |   8   6   4   4 |      119      117 |         7138 |   -0.048045  |
 | 1 1 1 1 |  10  10   4   4 |      121      121 |         7381 |    0.040624  |
 +=============================================================================+


          Norm of Printed Amplitude Vector :             4.8199

          Printed all single excitations greater than 0.162412

          Printed all double excitations greater than 0.037419
            Norm of singles part:        0.4772143846E+01
            Norm of doubles part:        0.1099473541E+01
        Norm of r12 doubles part:        0.1653616861E+01

 Solution of CC response equations completed.


 *******************************************************************
 *                                                                 *
 *<<<<<<<<  OUTPUT FROM COUPLED CLUSTER LINEAR RESPONSE   >>>>>>>>>*
 *                                                                 *
 *<<<<<<<<     CALCULATION OF SECOND ORDER PROPERTIES     >>>>>>>>>*
 *                                                                 *
 *******************************************************************

 


   For the requested  1 second-order properties
         -   0 F matrix transformations with R1 vectors
         -   0 J matrix transformations with L1 vectors
         -   1 ETA and XKSI vector calculations 
         -   0 X intermediate calculations 
         -   0 2. order reortho./relax. contributions
   will be performed.



>>> Time used for    1 O1/X1 vector calculation:        0.01 seconds.

>>> Total time for   1 linear response function:        0.01 seconds.


             +--------------------------------------------------------+
             !      FINAL CC2 RESULTS FOR THE SECOND-ORDER PROPERTIES !
             +--------------------------------------------------------+


  A operator                  B operator                     property 
------------------------------------------------------------------------

 XDIPLEN  (unrel.) -0.0000   XDIPLEN  (unrel.)  0.0000      15.531127    
------------------------------------------------------------------------



 *******************************************************************
 *                                                                 *
 *<<<<<<<< OUTPUT FROM COUPLED CLUSTER QUADRATIC RESPONSE >>>>>>>>>*
 *                                                                 *
 *<<<<<<<<     CALCULATION OF CC HYPERPOLARIZABILITIES    >>>>>>>>>*
 *                                                                 *
 *******************************************************************



   For the requested  1 quadratic response functions 
         -   1 G matrix transformations 
         -   0 B matrix transformations 
         -   0 K matrix transformations 
         -   1 F matrix transformations 
         -   1 F{O} matrix transformations 
         -   1 ETA{O} vector calculations 
         -   0 Xksi{O2} x L1 and Eta{O2} x R1 dot products
         -   0 X1 x R2 dot products 
   will be performed.




 +==================================================+
 |        G MATRIX TRANSFORMATION SECTION           |
 |    (result used to calculate dot products)       |
 +--------------------------------------------------+
 | L vec. | R vec. | R vec. |  # prod. |            |
 | L0  No.| R1  No.| R1  No.| with R1  | time/secs  |
 +--------------------------------------------------+
 |     0  |     1  |     1  |      1  |       0.03  |
 +--------------------------------------------------+
 | total time for   1 G transforms.:      0.08 secs.|
 +==================================================+



>>> Time used for    1 G matrix transformations:        0.08 seconds.


 +==================================================+
 |        F MATRIX TRANSFORMATION SECTION           |
 |    (result used to calculate dot products)       |
 +--------------------------------------------------+
 | time for zero order intermediat.:      0.03 secs.|
 | time for  1 sets of left interm.:      0.00 secs.|
 | time for  1 sets of right inter.:      0.01 secs.|
 | time for  1 sets of 2. ord. int.:      0.03 secs.|
 | intermediates calculated in   1 batches          |
 +--------------------------------------------------+
 | L vector | R vector |  # products  |             |
 |  L1  No. |  R1  No. |   with R1    |  time/secs  |
 +--------------------------------------------------+
 |     1    |     1    |      1       |       1.69  |
 +--------------------------------------------------+
 | total time for   1 F transforms.:      1.82 secs.|
 +--------------------------------------------------+
 |  % of time used in start up org.:      0.11      |
 |  % of time used in Fock interm. :      2.75      |
 |  % of time used in ERI          :      0.00      |
 |  % of time used in CCRDAO       :      1.76      |
 |  % of time used in (**|k del)   :      0.60      |
 |  % of time used in BF term      :      0.00      |
 |  % of time used in C term       :      0.00      |
 |  % of time used in GZ terms     :      0.00      |
 |  % of time used in FG terms     :      0.00      |
 |  % of time used in D term       :      0.00      |
 |  % of time used in I/O          :      0.11      |
 +==================================================+



>>> Time used for    1 F matrix transformations:        1.82 seconds.

>>> Time used for    1 F{O} matrix transform.:          0.00 seconds.

>>> Time used for    1 ETA{O} vector calculat.:         0.01 seconds.

>>> Time used for    0 Xksi{O} and Eta{O2} vector calculat.:         0.00 seconds.

>>> Total time for   1 quadratic response func.:        1.91 seconds.


                  +--------------------------------------------------------------------------------------+
                  !                FINAL CC2 RESULTS FOR THE FIRST HYPERPOLARIZABILITIES                 !
                  +--------------------------------------------------------------------------------------+


  A operator                  B operator                  C operator                     property 
------------------------------------------------------------------------------------------------------

 XDIPLEN  (unrel.) -0.0000   XDIPLEN  (unrel.)  0.0000   XDIPLEN  (unrel.)  0.0000      3.3458198    


------------------------------------------------------------------------------------------------------



  

 *******************************************************************************
 *******************************************************************************
 *                                                                             *
 *                                                                             *
 *                   SUMMARY OF COUPLED CLUSTER CALCULATION                    *
 *                                                                             *
 *                                                                             *
 *******************************************************************************
 *******************************************************************************

                                                                                
                                                                                
            Total SCF   energy:                   -40.1917720926                
            Total MP2-R12/A energy:               -40.3918078442                
            Total CC2-R12/A energy:               -40.3936882553                


          Threshold used for packing of integrals:0.10E-14
          Time used for packing and unpacking:        2.18 seconds
  

 *******************************************************************************
 *******************************************************************************
 *                                                                             *
 *                                                                             *
 *                      END OF COUPLED CLUSTER CALCULATION                     *
 *                                                                             *
 *                                                                             *
 *******************************************************************************
 *******************************************************************************


 >>>> CPU and wall time for CC :     103.136     108.976

 
     Date and time (Linux)  : Sun Sep  8 21:08:27 2013
     Host name              : lpqlx131.ups-tlse.fr                    


                      .-------------------------------------.
                      | End of Coupled Cluster Section (CC) |
                      `-------------------------------------'

 >>>> Total CPU  time used in DALTON:  1 minute  46 seconds
 >>>> Total wall time used in DALTON:  1 minute  52 seconds

 
     Date and time (Linux)  : Sun Sep  8 21:08:27 2013
     Host name              : lpqlx131.ups-tlse.fr                    
