

     ************************************************************************
     *************** Dalton - An Electronic Structure Program ***************
     ************************************************************************

    This is output from DALTON (Release Dalton2013 patch 0)
   ----------------------------------------------------------------------------
    NOTE:
     
    Dalton is an experimental code for the evaluation of molecular
    properties using (MC)SCF, DFT, CI, and CC wave functions.
    The authors accept no responsibility for the performance of
    the code or for the correctness of the results.
     
    The code (in whole or part) is provided under a licence and
    is not to be reproduced for further distribution without
    the written permission of the authors or their representatives.
     
    See the home page "http://daltonprogram.org" for further information.
     
    If results obtained with this code are published,
    the appropriate citations would be both of:
     
       K. Aidas, C. Angeli, K. L. Bak, V. Bakken, R. Bast,
       L. Boman, O. Christiansen, R. Cimiraglia, S. Coriani,
       P. Dahle, E. K. Dalskov, U. Ekstroem, T. Enevoldsen,
       J. J. Eriksen, P. Ettenhuber, B. Fernandez, L. Ferrighi,
       H. Fliegl, L. Frediani, K. Hald, A. Halkier, C. Haettig,
       H. Heiberg, T. Helgaker, A. C. Hennum, H. Hettema,
       E. Hjertenaes, S. Hoest, I.-M. Hoeyvik, M. F. Iozzi,
       B. Jansik, H. J. Aa. Jensen, D. Jonsson, P. Joergensen,
       J. Kauczor, S. Kirpekar, T. Kjaergaard, W. Klopper,
       S. Knecht, R. Kobayashi, H. Koch, J. Kongsted, A. Krapp,
       K. Kristensen, A. Ligabue, O. B. Lutnaes, J. I. Melo,
       K. V. Mikkelsen, R. H. Myhre, C. Neiss, C. B. Nielsen,
       P. Norman, J. Olsen, J. M. H. Olsen, A. Osted,
       M. J. Packer, F. Pawlowski, T. B. Pedersen, P. F. Provasi,
       S. Reine, Z. Rinkevicius, T. A. Ruden, K. Ruud, V. Rybkin,
       P. Salek, C. C. M. Samson, A. Sanchez de Meras, T. Saue,
       S. P. A. Sauer, B. Schimmelpfennig, K. Sneskov,
       A. H. Steindal, K. O. Sylvester-Hvid, P. R. Taylor,
       A. M. Teale, E. I. Tellgren, D. P. Tew, A. J. Thorvaldsen,
       L. Thoegersen, O. Vahtras, M. A. Watson, D. J. D. Wilson,
       M. Ziolkowski and H. Agren.
       The Dalton quantum chemistry program system.
       WIREs Comput. Mol. Sci. 2013. doi: 10.1002/wcms.1172
    
    and
    
       Dalton, a Molecular Electronic Structure Program,
       Release DALTON2013.0 (2013), see http://daltonprogram.org
   ----------------------------------------------------------------------------

    Authors in alphabetical order (major contribution(s) in parenthesis):

  Kestutis Aidas,           Vilnius University,           Lithuania   (QM/MM)
  Celestino Angeli,         University of Ferrara,        Italy       (NEVPT2)
  Keld L. Bak,              UNI-C,                        Denmark     (AOSOPPA, non-adiabatic coupling, magnetic properties)
  Vebjoern Bakken,          University of Oslo,           Norway      (DALTON; geometry optimizer, symmetry detection)
  Radovan Bast,             KTH Stockholm                 Sweden      (DALTON installation and execution frameworks)
  Linus Boman,              NTNU,                         Norway      (Cholesky decomposition and subsystems)
  Ove Christiansen,         Aarhus University,            Denmark     (CC module)
  Renzo Cimiraglia,         University of Ferrara,        Italy       (NEVPT2)
  Sonia Coriani,            University of Trieste,        Italy       (CC module, MCD in RESPONS)
  Paal Dahle,               University of Oslo,           Norway      (Parallelization)
  Erik K. Dalskov,          UNI-C,                        Denmark     (SOPPA)
  Thomas Enevoldsen,        Univ. of Southern Denmark,    Denmark     (SOPPA)
  Janus J. Eriksen,         Aarhus University,            Denmark     (PE-MP2/SOPPA, TDA)
  Berta Fernandez,          U. of Santiago de Compostela, Spain       (doublet spin, ESR in RESPONS)
  Lara Ferrighi,            Aarhus University,            Denmark     (PCM Cubic response)
  Heike Fliegl,             University of Oslo,           Norway      (CCSD(R12))
  Luca Frediani,            UiT The Arctic U. of Norway,  Norway      (PCM)
  Bin Gao,                  UiT The Arctic U. of Norway,  Norway      (Gen1Int library)
  Christof Haettig,         Ruhr-University Bochum,       Germany     (CC module)
  Kasper Hald,              Aarhus University,            Denmark     (CC module)
  Asger Halkier,            Aarhus University,            Denmark     (CC module)
  Hanne Heiberg,            University of Oslo,           Norway      (geometry analysis, selected one-electron integrals)
  Trygve Helgaker,          University of Oslo,           Norway      (DALTON; ABACUS, ERI, DFT modules, London, and much more)
  Alf Christian Hennum,     University of Oslo,           Norway      (Parity violation)
  Hinne Hettema,            University of Auckland,       New Zealand (quadratic response in RESPONS; SIRIUS supersymmetry)
  Eirik Hjertenaes,         NTNU,                         Norway      (Cholesky decomposition)
  Maria Francesca Iozzi,    University of Oslo,           Norway      (RPA)
  Brano Jansik              Technical Univ. of Ostrava    Czech Rep.  (DFT cubic response)
  Hans Joergen Aa. Jensen,  Univ. of Southern Denmark,    Denmark     (DALTON; SIRIUS, RESPONS, ABACUS modules, London, and much more)
  Dan Jonsson,              UiT The Arctic U. of Norway,  Norway      (cubic response in RESPONS module)
  Poul Joergensen,          Aarhus University,            Denmark     (RESPONS, ABACUS, and CC modules)
  Joanna Kauczor,           Linkoeping University,        Sweden      (Complex polarization propagator (CPP) module)
  Sheela Kirpekar,          Univ. of Southern Denmark,    Denmark     (Mass-velocity & Darwin integrals)
  Wim Klopper,              KIT Karlsruhe,                Germany     (R12 code in CC, SIRIUS, and ABACUS modules)
  Stefan Knecht,            ETH Zurich,                   Switzerland (Parallel CI and MCSCF)
  Rika Kobayashi,           Australian National Univ.,    Australia   (DIIS in CC, London in MCSCF)
  Henrik Koch,              NTNU,                         Norway      (CC module, Cholesky decomposition)
  Jacob Kongsted,           Univ. of Southern Denmark,    Denmark     (Polarizable embedding, QM/MM)
  Andrea Ligabue,           University of Modena,         Italy       (CTOCD, AOSOPPA)
  Ola B. Lutnaes,           University of Oslo,           Norway      (DFT Hessian)
  Juan I. Melo,             University of Buenos Aires,   Argentina   (LRESC, Relativistic Effects on NMR Shieldings)
  Kurt V. Mikkelsen,        University of Copenhagen,     Denmark     (MC-SCRF and QM/MM)
  Rolf H. Myhre,            NTNU,                         Norway      (Cholesky, subsystems and ECC2)
  Christian Neiss,          Univ. Erlangen-Nuernberg,     Germany     (CCSD(R12))
  Christian B. Nielsen,     University of Copenhagen,     Denmark     (QM/MM)
  Patrick Norman,           Linkoeping University,        Sweden      (Cubic response and complex response in RESPONS)
  Jeppe Olsen,              Aarhus University,            Denmark     (SIRIUS CI/density modules)
  Jogvan Magnus H. Olsen,   Univ. of Southern Denmark,    Denmark     (Polarizable embedding, PE library, QM/MM)
  Anders Osted,             Copenhagen University,        Denmark     (QM/MM)
  Martin J. Packer,         University of Sheffield,      UK          (SOPPA)
  Filip Pawlowski,          Kazimierz Wielki University   Poland      (CC3)
  Thomas B. Pedersen,       University of Oslo,           Norway      (Cholesky decomposition)
  Patricio F. Provasi,      University of Northeastern,   Argentina   (Analysis of coupling constants in localized orbitals)
  Zilvinas Rinkevicius,     KTH Stockholm,                Sweden      (open-shell DFT, ESR)
  Elias Rudberg,            KTH Stockholm,                Sweden      (DFT grid and basis info)
  Torgeir A. Ruden,         University of Oslo,           Norway      (Numerical derivatives in ABACUS)
  Kenneth Ruud,             UiT The Arctic U. of Norway,  Norway      (DALTON; ABACUS magnetic properties and  much more)
  Pawel Salek,              KTH Stockholm,                Sweden      (DALTON; DFT code)
  Claire C. M. Samson       University of Karlsruhe       Germany     (Boys localization, r12 integrals in ERI)
  Alfredo Sanchez de Meras, University of Valencia,       Spain       (CC module, Cholesky decomposition)
  Trond Saue,               Paul Sabatier University,     France      (direct Fock matrix construction)
  Stephan P. A. Sauer,      University of Copenhagen,     Denmark     (SOPPA(CCSD), SOPPA prop., AOSOPPA, vibrational g-factors)
  Bernd Schimmelpfennig,    Forschungszentrum Karlsruhe,  Germany     (AMFI module)
  Kristian Sneskov,         Aarhus University,            Denmark     (QM/MM, PE-CC)
  Arnfinn H. Steindal,      UiT The Arctic U. of Norway,  Norway      (parallel QM/MM)
  K. O. Sylvester-Hvid,     University of Copenhagen,     Denmark     (MC-SCRF)
  Peter R. Taylor,          VLSCI/Univ. of Melbourne,     Australia   (Symmetry handling ABACUS, integral transformation)
  Andrew M. Teale,          University of Nottingham,     England     (DFT-AC, DFT-D)
  David P. Tew,             University of Bristol,        England     (CCSD(R12))
  Olav Vahtras,             KTH Stockholm,                Sweden      (triplet response, spin-orbit, ESR, TDDFT, open-shell DFT)
  David J. Wilson,          La Trobe University,          Australia   (DFT Hessian and DFT magnetizabilities)
  Hans Agren,               KTH Stockholm,                Sweden      (SIRIUS module, RESPONS, MC-SCRF solvation model)
 --------------------------------------------------------------------------------

     Date and time (Linux)  : Sun Sep  8 21:02:14 2013
     Host name              : lpqlx131.ups-tlse.fr                    

 * Work memory size             :    64000000 =  488.28 megabytes.

 * Directories for basis set searches:
   1) /home/bast/DALTON-2013.0-Source/build/test_cc2_r12_aux2_bh_sym_a2
   2) /home/bast/DALTON-2013.0-Source/build/basis


Compilation information
-----------------------

 Who compiled             | bast
 Host                     | lpqlx131.ups-tlse.fr
 System                   | Linux-3.8.5-201.fc18.x86_64
 CMake generator          | Unix Makefiles
 Processor                | x86_64
 64-bit integers          | OFF
 MPI                      | OFF
 Fortran compiler         | /usr/bin/gfortran
 Fortran compiler version | GNU Fortran (GCC) 4.7.2 20121109 (Red Hat 4.7.2-8)
 C compiler               | /usr/bin/gcc
 C compiler version       | gcc (GCC) 4.7.2 20121109 (Red Hat 4.7.2-8)
 C++ compiler             | /usr/bin/g++
 C++ compiler version     | g++ (GCC) 4.7.2 20121109 (Red Hat 4.7.2-8)
 Static linking           | OFF
 Last Git revision        | f34203295a86316e27f9e7b44f9b6769c4a046c0
 Configuration time       | 2013-09-08 20:31:27.952056


   Content of the .dal input file
 ----------------------------------

                                                  
**DALTON INPUT                                    
.RUN WAVE FUNCTION                                
.DIRECT                                           
*MOLBAS                                           
.R12AUX                                           
**INTEGRALS                                       
.R12                                              
**WAVE FUNCTION                                   
.CC                                               
*ORBITAL INPUT                                    
.NOSUPSYM                                         
.MOSTART                                          
 H1DIAG                                           
*SCF INPUT                                        
.THRESH                                           
 1.0D-10                                          
.DOUBLY OCCUPIED                                  
 2 1 0 0                                          
*CC INPUT                                         
.CC2                                              
.PRINT                                            
 3                                                
.FREEZE                                           
  1 0                                             
.THRENR                                           
 1.0D-12                                          
.MAX IT                                           
 300                                              
*CCEXCI                                           
.THREXC                                           
 1.D-10                                           
.NCCEXCI                                          
 4 4 4 4                                          
*R12 INPUT                                        
.NO HYB                                           
!.R12XXL                                          
!.NO B'                                           
!.NO A'                                           
!.NO A                                            
!.NO 1                                            
.CC2                                              
 2B                                               
**END OF DALTON                                   


   Content of the .mol file
 ----------------------------

BASIS                                                                          
Ahlrichs-VDZ Ahlrichs-VTZ                                                      
BH                                                                             
                                                                               
    4    2  X Y     0.10D-14                                                   
 1      5.    1    3    3    2    1                                            
B        0.0000000000000     0.0000000000000     0.0000000000000               
 1      1.    1                                                                
H        0.0000000000000     0.0000000000000     2.3288983083247               
 2      5.0   1                                                                
B        0.0000000000000     0.0000000000000     0.0000000000000               
 2      1.0   1                                                                
H        0.0000000000000     0.0000000000000     2.3288983083247               


       *******************************************************************
       *********** Output from DALTON general input processing ***********
       *******************************************************************

 --------------------------------------------------------------------------------
   Overall default print level:    0
   Print level for DALTON.STAT:    1

    AO-direct calculation (in sections where implemented)
    HERMIT 1- and 2-electron integral sections will be executed
    "Old" integral transformation used (limited to max 255 basis functions)
    Wave function sections will be executed (SIRIUS module)
 --------------------------------------------------------------------------------


 Changes of defaults for *MOLBAS:
 --------------------------------

 Print level in molecule setup (READIN):    1

 .R12AUX: Reading auxiliary basis sets from .mol file for R12



   ****************************************************************************
   *************** Output of molecule and basis set information ***************
   ****************************************************************************


    The two title cards from your ".mol" input:
    ------------------------------------------------------------------------
 1: BH                                                                      
 2:                                                                         
    ------------------------------------------------------------------------

  Atomic type no.    1
  --------------------
  Nuclear charge:   5.00000
  Number of symmetry independent centers:    1
  Number of basis sets to read;    1
  Basis set file used for this atomic type with Z =   5 :
     "/home/bast/DALTON-2013.0-Source/build/basis/Ahlrichs-VDZ"

  Atomic type no.    2
  --------------------
  Nuclear charge:   1.00000
  Number of symmetry independent centers:    1
  Number of basis sets to read;    1
  Basis set file used for this atomic type with Z =   1 :
     "/home/bast/DALTON-2013.0-Source/build/basis/Ahlrichs-VDZ"

  Atomic type no.    3
  --------------------
  Nuclear charge:   5.00000
  Number of symmetry independent centers:    1
  This is an auxiliary basis for R12, MBSI:    2
  Basis set file used for this atomic type with Z =   5 :
     "/home/bast/DALTON-2013.0-Source/build/basis/Ahlrichs-VTZ"

  Atomic type no.    4
  --------------------
  Nuclear charge:   1.00000
  Number of symmetry independent centers:    1
  This is an auxiliary basis for R12, MBSI:    2
  Basis set file used for this atomic type with Z =   1 :
     "/home/bast/DALTON-2013.0-Source/build/basis/Ahlrichs-VTZ"


                         SYMGRP: Point group information
                         -------------------------------

Point group: C2v

   * The point group was generated by:

      Reflection in the yz-plane
      Reflection in the xz-plane

   * Group multiplication table

        |  E   C2z  Oxz  Oyz
   -----+--------------------
     E  |  E   C2z  Oxz  Oyz
    C2z | C2z   E   Oyz  Oxz
    Oxz | Oxz  Oyz   E   C2z
    Oyz | Oyz  Oxz  C2z   E 

   * Character table

        |  E   C2z  Oxz  Oyz
   -----+--------------------
    A1  |   1    1    1    1
    B1  |   1   -1    1   -1
    B2  |   1   -1   -1    1
    A2  |   1    1   -1   -1

   * Direct product table

        | A1   B1   B2   A2 
   -----+--------------------
    A1  | A1   B1   B2   A2 
    B1  | B1   A1   A2   B2 
    B2  | B2   A2   A1   B1 
    A2  | A2   B2   B1   A1 


                                 Isotopic Masses
                                 ---------------

                           B          11.009305
                           H           1.007825
                           B           0.000000
                           H           0.000000

                       Total mass:    12.017130 amu
                       Natural abundance:   0.000 %

 Center-of-mass coordinates (a.u.):    0.000000    0.000000    0.195315


  Atoms and basis sets
  --------------------

  Number of atom types :    4
  Total number of atoms:    4

  Basis set 1 refers to the basis "Ahlrichs-VDZ" from the basis set library.

  Basis set 2 refers to the basis "Ahlrichs-VTZ" from the basis set library.

  label  basis   atoms  charge   prim  cont     basis
  ------------------------------------------------------------------------------
  B        1       1    5.0000    19     9      [7s4p|3s2p]                                        
  H        1       1    1.0000     4     2      [4s|2s]                                            
  B        2       1    0.0000    28    15      [10s6p|6s3p]                                       
  H        2       1    0.0000     5     3      [5s|3s]                                            
  ------------------------------------------------------------------------------
  total:           4    6.0000    56    29
  ------------------------------------------------------------------------------

  Threshold for neglecting AO integrals:  1.00D-15


  Cartesian Coordinates (a.u.)
  ----------------------------

  Total number of coordinates:   12
  B       :     1  x   0.0000000000    2  y   0.0000000000    3  z   0.0000000000
  H       :     4  x   0.0000000000    5  y   0.0000000000    6  z   2.3288983083
  B       :     7  x   0.0000000000    8  y   0.0000000000    9  z   0.0000000000
  H       :    10  x   0.0000000000   11  y   0.0000000000   12  z   2.3288983083


  Symmetry Coordinates
  --------------------

  Number of coordinates in each symmetry:     4    4    4    0

  Symmetry  A1  ( 1)

    1   B     z    3
    2   H     z    6
    3   B     z    9
    4   H     z   12

  Symmetry  B1  ( 2)

    5   B     x    1
    6   H     x    4
    7   B     x    7
    8   H     x   10

  Symmetry  B2  ( 3)

    9   B     y    2
   10   H     y    5
   11   B     y    8
   12   H     y   11


   Interatomic separations (in Angstrom):
   --------------------------------------

            B           H           B           H     
            ------      ------      ------      ------
 B     :    0.000000
 H     :    1.232400    0.000000
 B     :    0.000000    1.232400    0.000000
 H     :    1.232400    0.000000    1.232400    0.000000


  Max    interatomic separation is    1.2324 Angstrom (    2.3289 Bohr)
  between atoms    2 and    1, "H     " and "B     ".

  Min HX interatomic separation is    0.0000 Angstrom (    0.0000 Bohr)

  Min YX interatomic separation is    0.0000 Angstrom (    0.0000 Bohr)

WARNING: Number of short HX and YX bond lengths:    1    1
WARNING: If not intentional, maybe your coordinates were in Angstrom,
WARNING: but "Angstrom" was not specified in .mol file


  Bond distances (Angstrom):
  --------------------------

                  atom 1     atom 2       distance
                  ------     ------       --------
  bond distance:  H          B            1.232400


  Bond angles (degrees):
  ----------------------

                  atom 1     atom 2     atom 3         angle
                  ------     ------     ------         -----
     No angles found




 Principal moments of inertia (u*A**2) and principal axes
 --------------------------------------------------------

   IA       0.000000          0.000000    0.000000    1.000000
   IB       1.402321          0.000000    1.000000    0.000000
   IC       1.402321          1.000000    0.000000    0.000000


 Rotational constants
 --------------------

 The molecule is linear.

               B =       360387.41 MHz     (   12.021230 cm-1)


@  Nuclear repulsion energy :    2.146937881370 Hartree


  Symmetry Orbitals
  -----------------

  Number of orbitals in each symmetry:          19    5    5    0

  Number of main orbitals in each symmetry:           7    2    2    0
  Number of auxiliary functions in each symmetry:    12    3    3    0


  Symmetry  A1 ( 1)

    1     B    M   1s         1
    2     B    M   1s         2
    3     B    M   1s         3
    4     B    M   2pz        6
    5     B    M   2pz        9
    6     H    M   1s        10
    7     H    M   1s        11
    8     B    A   1s        12
    9     B    A   1s        13
   10     B    A   1s        14
   11     B    A   1s        15
   12     B    A   1s        16
   13     B    A   1s        17
   14     B    A   2pz       20
   15     B    A   2pz       23
   16     B    A   2pz       26
   17     H    A   1s        27
   18     H    A   1s        28
   19     H    A   1s        29


  Symmetry  B1 ( 2)

   20     B    M   2px        4
   21     B    M   2px        7
   22     B    A   2px       18
   23     B    A   2px       21
   24     B    A   2px       24


  Symmetry  B2 ( 3)

   25     B    M   2py        5
   26     B    M   2py        8
   27     B    A   2py       19
   28     B    A   2py       22
   29     B    A   2py       25


  No orbitals in symmetry  A2 ( 4)

  Number of floating/multiple basis set orbitals :    2

  Symmetries of electric field:  B1 (2)  B2 (3)  A1 (1)

  Symmetries of magnetic field:  B2 (3)  B1 (2)  A2 (4)


                     .---------------------------------------.
                     | Starting in Integral Section (HERMIT) |
                     `---------------------------------------'



    *************************************************************************
    ****************** Output from HERMIT input processing ******************
    *************************************************************************


 Default print level:        1

 * Nuclear model: Point charge

 Calculation of one-electron Hamiltonian integrals.

 The following one-electron property integrals are calculated as requested:
          - overlap integrals
          - Cartesian multipole moment integrals of orders 2 and lower

 Center of mass  (bohr):      0.000000000000      0.000000000000      0.195314683089
 Operator center (bohr):      0.000000000000      0.000000000000      0.000000000000
 Gauge origin    (bohr):      0.000000000000      0.000000000000      0.000000000000
 Dipole origin   (bohr):      0.000000000000      0.000000000000      0.000000000000


     ************************************************************************
     ************************** Output from HERINT **************************
     ************************************************************************

 >>>> Total CPU  time used in HERMIT:   0.02 seconds
 >>>> Total wall time used in HERMIT:   0.03 seconds


                        .----------------------------------.
                        | End of Integral Section (HERMIT) |
                        `----------------------------------'



                   .--------------------------------------------.
                   | Starting in Wave Function Section (SIRIUS) |
                   `--------------------------------------------'

 NCCEXCI for singlet:           4           4           4           4

 >>>> Detected R12 input:
 Direct Fock matrix formation switched on!
 Scale factors for CC excitations manifolds:
 for bra states (projection manifold):   1.0000000000000000     
 for ket states (operator manifold)  :   1.0000000000000000     

 **********************************************************************
 *SIRIUS* a direct, restricted step, second order MCSCF program       *
 **********************************************************************

 
     Date and time (Linux)  : Sun Sep  8 21:02:14 2013
     Host name              : lpqlx131.ups-tlse.fr                    

 Title lines from ".mol" input file:
     BH                                                                      
                                                                             

 Print level on unit LUPRI =   2 is   0
 Print level on unit LUW4  =   2 is   5

@    (Integral direct) CC calculation.

@    This is a combination run starting with
@              a restricted, closed shell Hartree-Fock calculation

 Fock matrices are calculated directly without use of integrals on disk.

 Initial molecular orbitals are obtained according to
 ".MOSTART H1DIAG" input option

     Wave function specification
     ============================

     For the specification of the Coupled Cluster: see later.

@    For the wave function of type :      >>> CC <<<
@    Number of closed shell electrons           6
@    Number of electrons in active shells       0
@    Total charge of the molecule               0

@    Spin multiplicity and 2 M_S                1         0
     Total number of symmetries                 4
@    Reference state symmetry                   1

     Orbital specifications
     ======================
     Abelian symmetry species          All |    1    2    3    4
                                       --- |  ---  ---  ---  ---
@    Occupied SCF orbitals               3 |    2    1    0    0
     Secondary orbitals                  8 |    5    1    2    0
     Total number of orbitals           11 |    7    2    2    0
     Number of basis functions          29 |   19    5    5    0

     Optimization information
     ========================
@    Number of configurations                 1
@    Number of orbital rotations             11
     ------------------------------------------
@    Total number of variables               12

     Maximum number of Fock   iterations      0
     Maximum number of DIIS   iterations     60
     Maximum number of QC-SCF iterations     60
     Threshold for SCF convergence     1.00D-10


 Changes of defaults for CC:
 ---------------------------


 -This is a direct atomic orbital integral based
  calculation for coupled cluster wave function

 -Implicit frozen core calculation
 -Excitation energies calculated
  


 >>>>> DIIS optimization of Hartree-Fock <<<<<

 C1-DIIS algorithm; max error vectors =   10

 Iter      Total energy        Error norm    Delta(E)  DIIS dim.
 -----------------------------------------------------------------------------
   1  Screening settings (-IFTHRS, DIFDEN)   -6    T
@  1    -23.7919251551        2.34990D+00   -2.38D+01    1
      Virial theorem: -V/T =      1.842685
@      MULPOP B      -0.85; H       0.85; 
 -----------------------------------------------------------------------------
   2  Screening settings (-IFTHRS, DIFDEN)   -6    T
@  2    -24.8475362942        3.24810D-01   -1.06D+00    2
      Virial theorem: -V/T =      2.020807
@      MULPOP B      -0.07; H       0.07; 
 -----------------------------------------------------------------------------
   3  Screening settings (-IFTHRS, DIFDEN)   -8    F
@  3    -24.8632919723        1.01775D-01   -1.58D-02    3
      Virial theorem: -V/T =      2.008046
@      MULPOP B      -0.20; H       0.20; 
 -----------------------------------------------------------------------------
   4  Screening settings (-IFTHRS, DIFDEN)   -8    T
@  4    -24.8661450214        1.99210D-02   -2.85D-03    4
      Virial theorem: -V/T =      2.005996
@      MULPOP B      -0.25; H       0.25; 
 -----------------------------------------------------------------------------
   5  Screening settings (-IFTHRS, DIFDEN)   -8    T
@  5    -24.8662245512        1.60363D-03   -7.95D-05    5
      Virial theorem: -V/T =      2.005979
@      MULPOP B      -0.24; H       0.24; 
 -----------------------------------------------------------------------------
   6  Screening settings (-IFTHRS, DIFDEN)  -10    F
@  6    -24.8662249440        2.87850D-04   -3.93D-07    6
      Virial theorem: -V/T =      2.005930
@      MULPOP B      -0.24; H       0.24; 
 -----------------------------------------------------------------------------
   7  Screening settings (-IFTHRS, DIFDEN)  -10    T
@  7    -24.8662249627        4.42328D-05   -1.87D-08    7
      Virial theorem: -V/T =      2.005927
@      MULPOP B      -0.24; H       0.24; 
 -----------------------------------------------------------------------------
   8  Screening settings (-IFTHRS, DIFDEN)  -10    T
@  8    -24.8662249632        6.36095D-06   -4.55D-10    8
      Virial theorem: -V/T =      2.005926
@      MULPOP B      -0.24; H       0.24; 
 -----------------------------------------------------------------------------
   9  Screening settings (-IFTHRS, DIFDEN)  -12    F
@  9    -24.8662249632        7.38034D-07   -1.02D-11    9
      Virial theorem: -V/T =      2.005927
@      MULPOP B      -0.24; H       0.24; 
 -----------------------------------------------------------------------------
  10  Screening settings (-IFTHRS, DIFDEN)  -15    F
@ 10    -24.8662249632        8.14436D-08   -1.56D-13   10
      Virial theorem: -V/T =      2.005927
@      MULPOP B      -0.24; H       0.24; 
 -----------------------------------------------------------------------------
  11  Screening settings (-IFTHRS, DIFDEN)  -15    T
@ 11    -24.8662249632        5.72004D-09    3.55D-15   10
      Virial theorem: -V/T =      2.005927
@      MULPOP B      -0.24; H       0.24; 
 -----------------------------------------------------------------------------
  12  Screening settings (-IFTHRS, DIFDEN)  -15    T
@ 12    -24.8662249632        3.12463D-10   -3.55D-15   10
      Virial theorem: -V/T =      2.005927
@      MULPOP B      -0.24; H       0.24; 
 -----------------------------------------------------------------------------
  13  Screening settings (-IFTHRS, DIFDEN)  -15    T
@ 13    -24.8662249632        1.31847D-11   -3.55D-15   10

@ *** DIIS converged in  13 iterations !
@     Converged SCF energy, gradient:    -24.866224963189    1.32D-11
    - total time used in SIRFCK :              0.00 seconds


 *** SCF orbital energy analysis ***

 Only the five lowest virtual orbital energies printed in each symmetry.

 Number of electrons :    6
 Orbital occupations :    2    1    0    0

 Sym       Hartree-Fock orbital energies

  1     -7.70595215    -0.61638695    -0.06775641     0.25454406     0.33040601
         0.42240231     0.89411347

  2     -0.24792717     0.46233030

  3      0.05644934     0.49080041

    E(LUMO) :    -0.06775641 au (symmetry 1)
  - E(HOMO) :    -0.24792717 au (symmetry 2)
  ------------------------------------------
    gap     :     0.18017076 au

 >>> Writing SIRIFC interface file <<<

  Canonical primary and secondary basis sets
  ISYM       NORB1 MBAS1       NORB2 MBAS2
     1           7     7          12    12
     2           2     2           3     3
     3           2     2           3     3
     4           0     0           0     0

 Computation of exchange matrix done [6]

 AUXILIARY BASIS LOW EIGENVALUES
 ISYM         EIGENVALUE
   1      0.002208830033
   2      0.016269572910
   3      0.004290919901

 >>>> CPU and wall time for SCF :       0.041       0.040


                       .-----------------------------------.
                       | >>> Final results from SIRIUS <<< |
                       `-----------------------------------'


@    Spin multiplicity:           1
@    Spatial symmetry:            1
@    Total charge of molecule:    0

@    Final HF energy:             -24.866224963189                 
@    Nuclear repulsion:             2.146937881370
@    Electronic energy:           -27.013162844558

@    Final gradient norm:           0.000000000013

 
     Date and time (Linux)  : Sun Sep  8 21:02:14 2013
     Host name              : lpqlx131.ups-tlse.fr                    

 (Only coefficients >0.0100 are printed.)

 Molecular orbitals for symmetry species  1
 ------------------------------------------

    Orbital         1        2        3        4
   1 B   :1s     0.9929   0.2173  -0.1399  -0.0981
   2 B   :1s    -0.0268   0.4807  -0.2638  -0.3588
   3 B   :1s     0.0100   0.1989  -0.5920  -1.9470
   4 B   :2pz   -0.0023  -0.1899  -0.3290   0.1336
   5 B   :2pz   -0.0010   0.0408   0.3043  -1.9599
   6 H   :1s     0.0009   0.3698   0.2400   0.1261
   7 H   :1s    -0.0011   0.1062   0.2634   2.9376

 Molecular orbitals for symmetry species  2
 ------------------------------------------

    Orbital         1        2
   1 B   :2px    0.6053   1.0272
   2 B   :2px   -0.5319   1.0671

 Molecular orbitals for symmetry species  3
 ------------------------------------------

    Orbital         1        2
   1 B   :2py   -0.3999   1.1233
   2 B   :2py    0.7243   0.9471



 >>>> Total CPU  time used in SIRIUS :      0.04 seconds
 >>>> Total wall time used in SIRIUS :      0.04 seconds

 
     Date and time (Linux)  : Sun Sep  8 21:02:14 2013
     Host name              : lpqlx131.ups-tlse.fr                    


                     .---------------------------------------.
                     | End of Wave Function Section (SIRIUS) |
                     `---------------------------------------'



                    .------------------------------------------.
                    | Starting in Coupled Cluster Section (CC) |
                    `------------------------------------------'

  

 *******************************************************************************
 *******************************************************************************
 *                                                                             *
 *                                                                             *
 *                    START OF COUPLED CLUSTER CALCULATION                     *
 *                                                                             *
 *                                                                             *
 *******************************************************************************
 *******************************************************************************


  I am freezing!
  >> output from FNDMN3 <<
  NUMBER OF ELEMENTS OBTAINED IN FNDMN3            1
  FROM FNDMN3 : 
    PLACES OF LOWEST ELEMENTS 
     1 :      1
  MIN AND MAX IN SELECTED SUPSPACE   -7.7059521462210832       -7.7059521462210832     
 Freezing HF-orbital   1 of symmetry   1 and with orbital energy   -7.7060
 In total frozen-core per symmetry-class:  1  0  0  0
 


 CCR12 ANSATZ =   2

 CCR12 APPROX =  10


  I am freezing!
 Freezing HF-orbital   1 of symmetry   1 and with orbital energy   -7.7060
 In total frozen-core per symmetry-class:  1  0  0  0
 
   NRHF   :       1       1       0       0
   NRHFS  :       2       1       0       0
   NORB1  :       7       2       2       0
   NORB2  :      12       3       3       0

 Number of primary orbitals             :           11
 Number of secondary orbitals           :           18
 Total number of orbitals               :           29
 Total number of basis functions        :           29
 Number of (i|p') integrals             :           24
 Number of (i|u') integrals             :           24
 Number of (Ip'|1/r12|jL) integrals     :           24
 Number of (ip'|1/r12|jq') integrals    :          630
 Number of (ip'|r12|jq') integrals      :          630
 Number of (ip'|[T1,r12]|jq') integrals :         1202
 Threshold for R12 contributions            =  0.00000    
 Threshold for singular value decomposition = 0.100000E-11

 The B matrix is transformed into an orthogonal basis
 and inverted by diagonalization

 ******************************************************************************
 The MP2-R12/A and MP2-R12/B energies are computed as described in:
 W. Klopper and C. C. M. Samson, J. Chem. Phys. 116, 6397-6410 (2002).
 ------------------------------------------------------------------------------
 Ansatz 2 is used and results are printed for approximations A and B.
 ******************************************************************************

 Core memory required by CCSD_R12 :           4344  (double words)

 Computation of (ip'|r12|jq') integrals done
 >>>  Time used in R  [6]     is   0.33 seconds
 Backtransformation of (ip'|r12|jq') integrals done
 Computation of V^aj_kl intermediate done

 >>> Time used for V^aj_kl is    0.00 seconds

 Computation of (ip'|1/r12|jq') integrals done
 >>>  Time used in 1/R[5]     is   0.12 seconds
 Computation of (ip'|r12|jq')X(p'r')(kr'|r12|lq') integrals done
 Computation of (i'p'|r12|jq') integrals done
 >>>  Time used in R  [6]     is   0.33 seconds
 Computation of (ip'|[T,r12]|jq') integrals done
 >>>  Time used in T,R[5]     is   0.17 seconds


                 +-----------------------------------------------+
                 ! MP2-R12 ansatz := (1 - O1 - O2 + O1*O2) * R12 !
                 +-----------------------------------------------+



                         +--------------------------------+
                         ! Auxiliary-basis MP2-R12 method !
                         +--------------------------------+


 SECOND-ORDER R12/A   PAIR ENERGIES:

   1   -0.016795819   -0.034747818    0.000000000    0.000000000    0.578912        0.856545    
   2   -0.003974111   -0.035309194   -0.002817193   -0.022736012    0.578871        0.856245    
   3   -0.012457849   -0.046378705    0.000000000    0.000000000    0.578554        0.855739    

       -0.033227778   -0.116435718   -0.002817193   -0.022736012

              MP2-R12/A   correlation energy =   -0.139171729

 SECOND-ORDER R12/B   PAIR ENERGIES:

   1   -0.016795819   -0.027613222    0.000000000    0.000000000     1.13585         2.16636    
   2   -0.003974111   -0.018266064   -0.002817193   -0.012254055    0.996132         1.80732    
   3   -0.012457849   -0.028232942    0.000000000    0.000000000    0.855070         1.44820    

       -0.033227778   -0.074112228   -0.002817193   -0.012254055

              MP2-R12/B   correlation energy =   -0.086366283
 Time for MP2-R12 part cpu :  0.95500000000000018     
 Time for MP2-R12 part wall:  0.96299999952316284     

  I am freezing!
  >> output from FNDMN3 <<
  NUMBER OF ELEMENTS OBTAINED IN FNDMN3            1
  FROM FNDMN3 : 
    PLACES OF LOWEST ELEMENTS 
     1 :      1
  MIN AND MAX IN SELECTED SUPSPACE   -7.7059521462210832       -7.7059521462210832     
 Freezing HF-orbital   1 of symmetry   1 and with orbital energy   -7.7060
 In total frozen-core per symmetry-class:  1  0  0  0
 
 Preparing R12 Ansatz 2/3 ... ONEAUX= F
   

 *******************************************************************
 *                                                                 *
 *<<<<<<<<<<                                             >>>>>>>>>>*
 *<<<<<<<<<< OUTPUT FROM COUPLED CLUSTER ENERGY PROGRAM  >>>>>>>>>>*
 *<<<<<<<<<<                                             >>>>>>>>>>*
 *                                                                 *
 *******************************************************************


             The Direct Coupled Cluster Energy Program
             -----------------------------------------


          Number of t1 amplitudes                 :         6
          Number of t2 amplitudes                 :        48
          Number of t2' amplitudes for R12 part   :         6
          Total number of amplitudes in ccsd      :        60

 Iter.  1: Coupled cluster MP2-R12/B energy :     -24.9525912459688293
     Conventional correlation energy:    -0.0182198131304148
     R12 correlation energy         :    -0.0681464696498214
     Total correlation energy       :    -0.0863662827802361


       Iteration no.:  1
       -----------------

       Time used in   RHS - TOTAL  :       0.07 seconds
       Norm^2 of omega1 after ccvec:        0.4612718075D-04
       Norm^2 of omega2 after ccvec:        0.6665166088D-30
       Norm^2 of Omegar12  in NXTAM:        0.8860523106D-27
 Iter.  1: Coupled cluster CC2-R12/B energy :     -24.9525830883021555
     Conventional correlation energy:    -0.0182116554637481
     R12 correlation energy         :    -0.0681464696498134
     Total correlation energy       :    -0.0863581251135615


       Iteration no.:  2
       -----------------

       Time used in   RHS - TOTAL  :       0.07 seconds
       Norm^2 of omega1 after ccvec:        0.2783913784D-05
       Norm^2 of omega2 after ccvec:        0.5351184340D-05
       Norm^2 of Omegar12  in NXTAM:        0.9068585355D-06
 Iter.  2: Coupled cluster CC2-R12/B energy :     -24.9527220936812064
     Conventional correlation energy:    -0.0182441321906452
     R12 correlation energy         :    -0.0682529983019679
     Total correlation energy       :    -0.0864971304926132


       Iteration no.:  3
       -----------------

       Time used in   RHS - TOTAL  :       0.07 seconds
       Norm^2 of omega1 after ccvec:        0.4224845481D-06
       Norm^2 of omega2 after ccvec:        0.3610456526D-06
       Norm^2 of Omegar12  in NXTAM:        0.4279279723D-06
 Iter.  3: Coupled cluster CC2-R12/B energy :     -24.9526924632877716
     Conventional correlation energy:    -0.0181862592208546
     R12 correlation energy         :    -0.0682812408783252
     Total correlation energy       :    -0.0864675000991798


       Iteration no.:  4
       -----------------

       Time used in   RHS - TOTAL  :       0.07 seconds
       Norm^2 of omega1 after ccvec:        0.6134705491D-07
       Norm^2 of omega2 after ccvec:        0.1653796663D-06
       Norm^2 of Omegar12  in NXTAM:        0.9235869421D-07
 Iter.  4: Coupled cluster CC2-R12/B energy :     -24.9527324536516133
     Conventional correlation energy:    -0.0181677210799194
     R12 correlation energy         :    -0.0683397693831012
     Total correlation energy       :    -0.0865074904630205


       Iteration no.:  5
       -----------------

       Time used in   RHS - TOTAL  :       0.07 seconds
       Norm^2 of omega1 after ccvec:        0.9076347391D-08
       Norm^2 of omega2 after ccvec:        0.5033036019D-07
       Norm^2 of Omegar12  in NXTAM:        0.3585918718D-07
 Iter.  5: Coupled cluster CC2-R12/B energy :     -24.9527337884097307
     Conventional correlation energy:    -0.0181350377112501
     R12 correlation energy         :    -0.0683737875098877
     Total correlation energy       :    -0.0865088252211378


       Iteration no.:  6
       -----------------

       Time used in   RHS - TOTAL  :       0.07 seconds
       Norm^2 of omega1 after ccvec:        0.2007026320D-09
       Norm^2 of omega2 after ccvec:        0.1123522220D-07
       Norm^2 of Omegar12  in NXTAM:        0.1332150647D-07
 Iter.  6: Coupled cluster CC2-R12/B energy :     -24.9527425281642330
     Conventional correlation energy:    -0.0181184034355582
     R12 correlation energy         :    -0.0683991615400829
     Total correlation energy       :    -0.0865175649756411


       Iteration no.:  7
       -----------------

       Time used in   RHS - TOTAL  :       0.07 seconds
       Norm^2 of omega1 after ccvec:        0.1334962255D-09
       Norm^2 of omega2 after ccvec:        0.2784373285D-08
       Norm^2 of Omegar12  in NXTAM:        0.1696061304D-08
 Iter.  7: Coupled cluster CC2-R12/B energy :     -24.9527458396185757
     Conventional correlation energy:    -0.0181065523374961
     R12 correlation energy         :    -0.0684143240924856
     Total correlation energy       :    -0.0865208764299817


       Iteration no.:  8
       -----------------

       Time used in   RHS - TOTAL  :       0.07 seconds
       Norm^2 of omega1 after ccvec:        0.1035973119D-10
       Norm^2 of omega2 after ccvec:        0.2055867954D-10
       Norm^2 of Omegar12  in NXTAM:        0.9339592276D-10
 Iter.  8: Coupled cluster CC2-R12/B energy :     -24.9527469525250147
     Conventional correlation energy:    -0.0181050282497104
     R12 correlation energy         :    -0.0684169610867110
     Total correlation energy       :    -0.0865219893364214


       Iteration no.:  9
       -----------------

       Time used in   RHS - TOTAL  :       0.07 seconds
       Norm^2 of omega1 after ccvec:        0.6180510498D-12
       Norm^2 of omega2 after ccvec:        0.1218824274D-10
       Norm^2 of Omegar12  in NXTAM:        0.7114710384D-11
 Iter.  9: Coupled cluster CC2-R12/B energy :     -24.9527465309355811
     Conventional correlation energy:    -0.0181046212712594
     R12 correlation energy         :    -0.0684169464757301
     Total correlation energy       :    -0.0865215677469895


       Iteration no.: 10
       -----------------

       Time used in   RHS - TOTAL  :       0.07 seconds
       Norm^2 of omega1 after ccvec:        0.1041564714D-12
       Norm^2 of omega2 after ccvec:        0.2960277135D-11
       Norm^2 of Omegar12  in NXTAM:        0.4909462569D-11
 Iter. 10: Coupled cluster CC2-R12/B energy :     -24.9527467919350627
     Conventional correlation energy:    -0.0181046345174600
     R12 correlation energy         :    -0.0684171942290090
     Total correlation energy       :    -0.0865218287464690


       Iteration no.: 11
       -----------------

       Time used in   RHS - TOTAL  :       0.07 seconds
       Norm^2 of omega1 after ccvec:        0.1210864857D-13
       Norm^2 of omega2 after ccvec:        0.1076663295D-11
       Norm^2 of Omegar12  in NXTAM:        0.6115635224D-12
 Iter. 11: Coupled cluster CC2-R12/B energy :     -24.9527467378886350
     Conventional correlation energy:    -0.0181043857115597
     R12 correlation energy         :    -0.0684173889884821
     Total correlation energy       :    -0.0865217747000418


       Iteration no.: 12
       -----------------

       Time used in   RHS - TOTAL  :       0.07 seconds
       Norm^2 of omega1 after ccvec:        0.1053793542D-13
       Norm^2 of omega2 after ccvec:        0.1278700569D-13
       Norm^2 of Omegar12  in NXTAM:        0.2769383907D-13
 Iter. 12: Coupled cluster CC2-R12/B energy :     -24.9527467619114134
     Conventional correlation energy:    -0.0181043639637863
     R12 correlation energy         :    -0.0684174347590328
     Total correlation energy       :    -0.0865217987228192


       Iteration no.: 13
       -----------------

       Time used in   RHS - TOTAL  :       0.07 seconds
       Norm^2 of omega1 after ccvec:        0.9976763132D-15
       Norm^2 of omega2 after ccvec:        0.3169386736D-14
       Norm^2 of Omegar12  in NXTAM:        0.3969337220D-14
 Iter. 13: Coupled cluster CC2-R12/B energy :     -24.9527467582987832
     Conventional correlation energy:    -0.0181043529517204
     R12 correlation energy         :    -0.0684174421584683
     Total correlation energy       :    -0.0865217951101887


       Iteration no.: 14
       -----------------

       Time used in   RHS - TOTAL  :       0.07 seconds
       Norm^2 of omega1 after ccvec:        0.4152101297D-16
       Norm^2 of omega2 after ccvec:        0.4539593908D-15
       Norm^2 of Omegar12  in NXTAM:        0.1578642954D-14
 Iter. 14: Coupled cluster CC2-R12/B energy :     -24.9527467613601317
     Conventional correlation energy:    -0.0181043500430249
     R12 correlation energy         :    -0.0684174481285133
     Total correlation energy       :    -0.0865217981715382


       Iteration no.: 15
       -----------------

       Time used in   RHS - TOTAL  :       0.07 seconds
       Norm^2 of omega1 after ccvec:        0.1575610368D-16
       Norm^2 of omega2 after ccvec:        0.2684915858D-15
       Norm^2 of Omegar12  in NXTAM:        0.4684969993D-15
 Iter. 15: Coupled cluster CC2-R12/B energy :     -24.9527467633875588
     Conventional correlation energy:    -0.0181043455690038
     R12 correlation energy         :    -0.0684174546299627
     Total correlation energy       :    -0.0865218001989664


       Iteration no.: 16
       -----------------

       Time used in   RHS - TOTAL  :       0.07 seconds
       Norm^2 of omega1 after ccvec:        0.4560249186D-17
       Norm^2 of omega2 after ccvec:        0.1808691347D-16
       Norm^2 of Omegar12  in NXTAM:        0.2020443111D-16
 Iter. 16: Coupled cluster CC2-R12/B energy :     -24.9527467637397997
     Conventional correlation energy:    -0.0181043444449678
     R12 correlation energy         :    -0.0684174561062394
     Total correlation energy       :    -0.0865218005512072


       Iteration no.: 17
       -----------------

       Time used in   RHS - TOTAL  :       0.07 seconds
       Norm^2 of omega1 after ccvec:        0.2566941902D-18
       Norm^2 of omega2 after ccvec:        0.4096145193D-18
       Norm^2 of Omegar12  in NXTAM:        0.2336498219D-18
 Iter. 17: Coupled cluster CC2-R12/B energy :     -24.9527467638257932
     Conventional correlation energy:    -0.0181043444520057
     R12 correlation energy         :    -0.0684174561851943
     Total correlation energy       :    -0.0865218006372000


       Iteration no.: 18
       -----------------

       Time used in   RHS - TOTAL  :       0.07 seconds
       Norm^2 of omega1 after ccvec:        0.7217094838D-19
       Norm^2 of omega2 after ccvec:        0.1166735783D-18
       Norm^2 of Omegar12  in NXTAM:        0.1311587359D-19
 Iter. 18: Coupled cluster CC2-R12/B energy :     -24.9527467638234732
     Conventional correlation energy:    -0.0181043444376208
     R12 correlation energy         :    -0.0684174561972600
     Total correlation energy       :    -0.0865218006348808


       Iteration no.: 19
       -----------------

       Time used in   RHS - TOTAL  :       0.07 seconds
       Norm^2 of omega1 after ccvec:        0.9086068267D-20
       Norm^2 of omega2 after ccvec:        0.1782334078D-19
       Norm^2 of Omegar12  in NXTAM:        0.3559616676D-19
 Iter. 19: Coupled cluster CC2-R12/B energy :     -24.9527467638334812
     Conventional correlation energy:    -0.0181043444282167
     R12 correlation energy         :    -0.0684174562166714
     Total correlation energy       :    -0.0865218006448881


       Iteration no.: 20
       -----------------

       Time used in   RHS - TOTAL  :       0.07 seconds
       Norm^2 of omega1 after ccvec:        0.4125332280D-21
       Norm^2 of omega2 after ccvec:        0.8183294464D-20
       Norm^2 of Omegar12  in NXTAM:        0.4228974299D-20
 Iter. 20: Coupled cluster CC2-R12/B energy :     -24.9527467638419296
     Conventional correlation energy:    -0.0181043444244402
     R12 correlation energy         :    -0.0684174562288949
     Total correlation energy       :    -0.0865218006533351


       Iteration no.: 21
       -----------------

       Time used in   RHS - TOTAL  :       0.07 seconds
       Norm^2 of omega1 after ccvec:        0.4847590536D-22
       Norm^2 of omega2 after ccvec:        0.1979644974D-20
       Norm^2 of Omegar12  in NXTAM:        0.2386563038D-20
 Iter. 21: Coupled cluster CC2-R12/B energy :     -24.9527467638424270
     Conventional correlation energy:    -0.0181043444161482
     R12 correlation energy         :    -0.0684174562376870
     Total correlation energy       :    -0.0865218006538352


       Iteration no.: 22
       -----------------

       Time used in   RHS - TOTAL  :       0.07 seconds
       Norm^2 of omega1 after ccvec:        0.2166189601D-22
       Norm^2 of omega2 after ccvec:        0.2269177368D-21
       Norm^2 of Omegar12  in NXTAM:        0.2392832424D-21
 Iter. 22: Coupled cluster CC2-R12/B energy :     -24.9527467638437201
     Conventional correlation energy:    -0.0181043444134410
     R12 correlation energy         :    -0.0684174562416872
     Total correlation energy       :    -0.0865218006551282


       Iteration no.: 23
       -----------------

       Time used in   RHS - TOTAL  :       0.07 seconds
       Norm^2 of omega1 after ccvec:        0.1444772427D-23
       Norm^2 of omega2 after ccvec:        0.2514977193D-22
       Norm^2 of Omegar12  in NXTAM:        0.3138699637D-22
 Iter. 23: Coupled cluster CC2-R12/B energy :     -24.9527467638445195
     Conventional correlation energy:    -0.0181043444120697
     R12 correlation energy         :    -0.0684174562438575
     Total correlation energy       :    -0.0865218006559272


       Iteration no.: 24
       -----------------

       Time used in   RHS - TOTAL  :       0.07 seconds
       Norm^2 of omega1 after ccvec:        0.3004590648D-24
       Norm^2 of omega2 after ccvec:        0.3950546315D-23
       Norm^2 of Omegar12  in NXTAM:        0.1225308165D-23
 Iter. 24: Coupled cluster CC2-R12/B energy :     -24.9527467638442602
     Conventional correlation energy:    -0.0181043444117144
     R12 correlation energy         :    -0.0684174562439516
     Total correlation energy       :    -0.0865218006556659


 CC2-R12/B energy converged to within   0.10D-11 is          -24.952746763844
 Final 2-norm of the CC vector function:  2.06179664D-12
 R12       energy converged to within   0.10D-11 is     -0.068417456


                    +------------------------------------------+
                    ! Largest amplitudes in converged solution !
                    +------------------------------------------+



          CC_PRAM:Overall Contribution of the Different Components
          --------------------------------------------------------



          Single Excitation Contribution :               1.7269 %

          Double Excitation Contribution :              98.2731 %

          ||T1||/||T2||                  :               0.1326

          Tau1 diagnostic                :               0.0072

          Norm of Total Amplitude Vector :               0.1094


 +=============================================================================+
 | symmetry|  orbital index  |   Excitation Numbers             |   Amplitude  |
 |  Index  |   a   b   i   j |      NAI      NBJ |     NAIBJ    |              |
 +=============================================================================+
 | 1   1   |   1       1     |        1          |              |    0.012613  |
 +-----------------------------------------------------------------------------+
 | 2 2 2 2 |   1   1   1   1 |        6        6 |           21 |   -0.038419  |
 | 1 1 2 2 |   1   1   1   1 |        2        2 |           24 |   -0.083200  |
 +=============================================================================+


          Norm of Printed Amplitude Vector :             0.0925

          Printed all single excitations greater than 0.004380

          Printed all double excitations greater than 0.033044





             +-------------------------------------------------------+
             ! Final results from the Coupled Cluster energy program !
             +-------------------------------------------------------+



            Total SCF   energy:                   -24.8662249632

            Total MP2-R12/B energy:               -24.9525912460

            Total CC2-R12/B energy:               -24.9527467638




                   +--------------------------------------------+
                   ! Calculating singlet intermediates for CCLR !
                   +--------------------------------------------+



       Time used in   RHS - TOTAL  :       0.07 seconds


            E-intermediates calculated 
            Fock-intermediate calculated 


   

 *******************************************************************
 *                                                                 *
 *<<<<<<<<<< OUTPUT FROM COUPLED CLUSTER LINEAR RESPONSE >>>>>>>>>>*
 *                                                                 *
 *<<<<<<<<<<     CALCULATION OF EXCITATION ENERGIES      >>>>>>>>>>*
 *                                                                 *
 *******************************************************************



                            +--------------------------+
                            !  CC2 Excitation Energies !
                            +--------------------------+


 --------------------------
 Symmetry class Nr.:     1
 Multiplicity      :     1
 --------------------------

 Length of Excitation vectors in this class is:        60
 Converging for  4 roots.
  >> output from FNDMN3 <<
  NUMBER OF ELEMENTS OBTAINED IN FNDMN3            7
  FROM FNDMN3 : 
    PLACES OF LOWEST ELEMENTS 
     1 :     30      1     52     32      6     35     39
  MIN AND MAX IN SELECTED SUPSPACE   0.36034152919687001       0.85050024760123066     
 Start vector guessed from diagonal
 ... selected element no. 30
 Start vector guessed from diagonal
 ... selected element no.  1
 Start vector guessed from diagonal
 ... selected element no. 52
 Start vector guessed from diagonal
 ... selected element no. 32



 >>>>> COUPLED CLUSTER RESPONSE SOLVER <<<<<

    Iter  #Vectors  time (min)   residual
    --------------------------------------

 REDUCED EIGENVALUES real part:

               Column   1
       1       0.31221720
       2       0.40203368
       3       0.60875304
       4       0.68448212
    ==== End of matrix output ====
  
 ROOT:  1 RESIDUAL TOT: 1.66557D-01
 ROOT:  2 RESIDUAL TOT: 1.59432D-01
 ROOT:  3 RESIDUAL TOT: 6.33286D-02
 ROOT:  4 RESIDUAL TOT: 3.55276D-02
      1       4         0.00     0.17E+00

 Lowest eigenvalues in this iteration: 

               Column   1
       1       0.31221720
       2       0.40203368
       3       0.60875304
       4       0.68448212
    ==== End of matrix output ====
 Dimension of the reduced space:     8
 >>> TIME USED IN THIS MICRO ITERATION        0.19


 REDUCED EIGENVALUES real part:

               Column   1
       1       0.28024465
       2       0.38372801
       3       0.60624873
       4       0.61822565
    ==== End of matrix output ====
  
 ROOT:  1 RESIDUAL TOT: 7.91352D-02
 ROOT:  2 RESIDUAL TOT: 5.53005D-02
 ROOT:  3 RESIDUAL TOT: 2.47457D-02
 ROOT:  4 RESIDUAL TOT: 1.57685D-01
      2       4         0.00     0.16E+00

 Lowest eigenvalues in this iteration: 

               Column   1
       1       0.28024465
       2       0.38372801
       3       0.60624873
       4       0.61822565
    ==== End of matrix output ====
 Dimension of the reduced space:    12
 >>> TIME USED IN THIS MICRO ITERATION        0.19


 REDUCED EIGENVALUES real part:

               Column   1
       1       0.27516215
       2       0.38134965
       3       0.56872332
       4       0.60571437
    ==== End of matrix output ====
  
 ROOT:  1 RESIDUAL TOT: 3.65834D-02
 ROOT:  2 RESIDUAL TOT: 2.62413D-02
 ROOT:  3 RESIDUAL TOT: 1.08971D-01
 ROOT:  4 RESIDUAL TOT: 5.42428D-03
 (CCORT) Norm^2 (R12-part) =   -2.0355768732829294E-003
WARNING: R12 part of result vector no.    1 in CCORT has norm < 0
 (CCORT) Norm^2 (R12-part) =   -1.5759233179808235E-002
WARNING: R12 part of result vector no.    3 in CCORT has norm < 0
      3       4         0.00     0.11E+00

 Lowest eigenvalues in this iteration: 

               Column   1
       1       0.27516215
       2       0.38134965
       3       0.56872332
       4       0.60571437
    ==== End of matrix output ====
 Dimension of the reduced space:    16
 >>> TIME USED IN THIS MICRO ITERATION        0.19


 REDUCED EIGENVALUES real part:

               Column   1
       1       0.27399910
       2       0.38115594
       3       0.51264989
       4       0.60570424
    ==== End of matrix output ====
  
 ROOT:  1 RESIDUAL TOT: 1.18602D-02
 ROOT:  2 RESIDUAL TOT: 5.37806D-03
 ROOT:  3 RESIDUAL TOT: 8.21537D-02
 ROOT:  4 RESIDUAL TOT: 1.85357D-03
 (CCORT) Norm^2 (R12-part) =   -5.3532226676491238E-003
WARNING: R12 part of result vector no.    4 in CCORT has norm < 0
      4       4         0.00     0.82E-01

 Lowest eigenvalues in this iteration: 

               Column   1
       1       0.27399910
       2       0.38115594
       3       0.51264989
       4       0.60570424
    ==== End of matrix output ====
 Dimension of the reduced space:    20
 >>> TIME USED IN THIS MICRO ITERATION        0.20


 REDUCED EIGENVALUES real part:

               Column   1
       1       0.27433565
       2       0.38118200
       3       0.50368446
       4       0.60569198
    ==== End of matrix output ====
  
 ROOT:  1 RESIDUAL TOT: 1.42811D-03
 ROOT:  2 RESIDUAL TOT: 1.22940D-03
 ROOT:  3 RESIDUAL TOT: 1.82687D-02
 ROOT:  4 RESIDUAL TOT: 7.89809D-04
      5       4         0.00     0.18E-01

 Lowest eigenvalues in this iteration: 

               Column   1
       1       0.27433565
       2       0.38118200
       3       0.50368446
       4       0.60569198
    ==== End of matrix output ====
 Dimension of the reduced space:    24
 >>> TIME USED IN THIS MICRO ITERATION        0.19


 REDUCED EIGENVALUES real part:

               Column   1
       1       0.27432522
       2       0.38118318
       3       0.50328361
       4       0.60569377
    ==== End of matrix output ====
  
 ROOT:  1 RESIDUAL TOT: 2.44479D-04
 ROOT:  2 RESIDUAL TOT: 2.44596D-04
 ROOT:  3 RESIDUAL TOT: 6.99307D-03
 ROOT:  4 RESIDUAL TOT: 3.06240D-04
      6       4         0.00     0.70E-02

 Lowest eigenvalues in this iteration: 

               Column   1
       1       0.27432522
       2       0.38118318
       3       0.50328361
       4       0.60569377
    ==== End of matrix output ====
 Dimension of the reduced space:    28
 >>> TIME USED IN THIS MICRO ITERATION        0.20


 REDUCED EIGENVALUES real part:

               Column   1
       1       0.27432520
       2       0.38118170
       3       0.50321438
       4       0.60569376
    ==== End of matrix output ====
  
 ROOT:  1 RESIDUAL TOT: 2.46760D-05
 ROOT:  2 RESIDUAL TOT: 4.17896D-05
 ROOT:  3 RESIDUAL TOT: 2.15454D-03
 ROOT:  4 RESIDUAL TOT: 1.40878D-04
      7       4         0.00     0.22E-02

 Lowest eigenvalues in this iteration: 

               Column   1
       1       0.27432520
       2       0.38118170
       3       0.50321438
       4       0.60569376
    ==== End of matrix output ====
 Dimension of the reduced space:    32
 >>> TIME USED IN THIS MICRO ITERATION        0.20


 REDUCED EIGENVALUES real part:

               Column   1
       1       0.27432558
       2       0.38118191
       3       0.50320182
       4       0.60569359
    ==== End of matrix output ====
  
 ROOT:  1 RESIDUAL TOT: 1.99603D-06
 ROOT:  2 RESIDUAL TOT: 4.07777D-06
 ROOT:  3 RESIDUAL TOT: 2.85372D-04
 ROOT:  4 RESIDUAL TOT: 2.51807D-05
      8       4         0.00     0.29E-03

 Lowest eigenvalues in this iteration: 

               Column   1
       1       0.27432558
       2       0.38118191
       3       0.50320182
       4       0.60569359
    ==== End of matrix output ====
 Dimension of the reduced space:    36
 >>> TIME USED IN THIS MICRO ITERATION        0.20


 REDUCED EIGENVALUES real part:

               Column   1
       1       0.27432558
       2       0.38118189
       3       0.50320194
       4       0.60569359
    ==== End of matrix output ====
  
 ROOT:  1 RESIDUAL TOT: 1.58962D-07
 ROOT:  2 RESIDUAL TOT: 2.62705D-07
 ROOT:  3 RESIDUAL TOT: 2.50607D-05
 ROOT:  4 RESIDUAL TOT: 2.36581D-06
      9       4         0.00     0.25E-04

 Lowest eigenvalues in this iteration: 

               Column   1
       1       0.27432558
       2       0.38118189
       3       0.50320194
       4       0.60569359
    ==== End of matrix output ====
 Dimension of the reduced space:    40
 >>> TIME USED IN THIS MICRO ITERATION        0.20


 REDUCED EIGENVALUES real part:

               Column   1
       1       0.27432558
       2       0.38118189
       3       0.50320192
       4       0.60569358
    ==== End of matrix output ====
  
 ROOT:  1 RESIDUAL TOT: 8.58684D-09
 ROOT:  2 RESIDUAL TOT: 1.31491D-08
 ROOT:  3 RESIDUAL TOT: 1.99328D-06
 ROOT:  4 RESIDUAL TOT: 3.18552D-07
 (CCORT) Norm^2 (R12-part) =   -1.5369454937399243E-004
WARNING: R12 part of result vector no.    4 in CCORT has norm < 0
     10       4         0.00     0.20E-05

 Lowest eigenvalues in this iteration: 

               Column   1
       1       0.27432558
       2       0.38118189
       3       0.50320192
       4       0.60569358
    ==== End of matrix output ====
 Dimension of the reduced space:    44
 >>> TIME USED IN THIS MICRO ITERATION        0.20


 REDUCED EIGENVALUES real part:

               Column   1
       1       0.27432558
       2       0.38118189
       3       0.50320191
       4       0.60569358
    ==== End of matrix output ====
  
 ROOT:  1 RESIDUAL TOT: 3.54252D-10
 ROOT:  2 RESIDUAL TOT: 5.87422D-10
 ROOT:  3 RESIDUAL TOT: 1.59776D-07
 ROOT:  4 RESIDUAL TOT: 2.89618D-08
 (CCORT) Norm^2 (R12-part) =   -5.4937623922820698E-004
WARNING: R12 part of result vector no.    1 in CCORT has norm < 0
     11       4         0.00     0.16E-06

 Lowest eigenvalues in this iteration: 

               Column   1
       1       0.27432558
       2       0.38118189
       3       0.50320191
       4       0.60569358
    ==== End of matrix output ====
 Dimension of the reduced space:    48
 >>> TIME USED IN THIS MICRO ITERATION        0.20


 REDUCED EIGENVALUES real part:

               Column   1
       1       0.27432558
       2       0.38118189
       3       0.50320190
       4       0.60569358
    ==== End of matrix output ====
  
 ROOT:  1 RESIDUAL TOT: 6.80942D-12
 ROOT:  1 HAS CONVERGED. RESIDUAL TOT: 6.80942D-12
 ROOT:  2 RESIDUAL TOT: 1.72390D-11
 ROOT:  2 HAS CONVERGED. RESIDUAL TOT: 1.72390D-11
 ROOT:  3 RESIDUAL TOT: 1.00107D-08
 ROOT:  4 RESIDUAL TOT: 2.50717D-09
     12       4         0.00     0.10E-07

 Lowest eigenvalues in this iteration: 

               Column   1
       1       0.27432558
       2       0.38118189
       3       0.50320190
       4       0.60569358
    ==== End of matrix output ====
 Dimension of the reduced space:    50
 >>> TIME USED IN THIS MICRO ITERATION        0.20


 REDUCED EIGENVALUES real part:

               Column   1
       1       0.27432558
       2       0.38118189
       3       0.50320190
       4       0.60569358
    ==== End of matrix output ====
  
 ROOT:  1 RESIDUAL TOT: 4.18606D-12
 ROOT:  1 HAS CONVERGED. RESIDUAL TOT: 4.18606D-12
 ROOT:  2 RESIDUAL TOT: 1.00819D-11
 ROOT:  2 HAS CONVERGED. RESIDUAL TOT: 1.00819D-11
 ROOT:  3 RESIDUAL TOT: 7.20499D-10
 ROOT:  4 RESIDUAL TOT: 2.30127D-10
 (CCORT) Norm^2 (R12-part) =   -2.1217907696051495E-004
WARNING: R12 part of result vector no.    2 in CCORT has norm < 0
     13       2         0.00     0.72E-09

 Lowest eigenvalues in this iteration: 

               Column   1
       1       0.27432558
       2       0.38118189
       3       0.50320190
       4       0.60569358
    ==== End of matrix output ====
 Dimension of the reduced space:    52
 >>> TIME USED IN THIS MICRO ITERATION        0.12


 REDUCED EIGENVALUES real part:

               Column   1
       1       0.27432558
       2       0.38118189
       3       0.50320190
       4       0.60569358
    ==== End of matrix output ====
  
 ROOT:  1 RESIDUAL TOT: 3.74913D-12
 ROOT:  1 HAS CONVERGED. RESIDUAL TOT: 3.74913D-12
 ROOT:  2 RESIDUAL TOT: 9.47399D-12
 ROOT:  2 HAS CONVERGED. RESIDUAL TOT: 9.47399D-12
 ROOT:  3 RESIDUAL TOT: 5.12439D-11
 ROOT:  3 HAS CONVERGED. RESIDUAL TOT: 5.12439D-11
 ROOT:  4 RESIDUAL TOT: 1.69695D-11
 ROOT:  4 HAS CONVERGED. RESIDUAL TOT: 1.69695D-11
     14       2         0.00     0.51E-10

 Lowest eigenvalues in this iteration: 

               Column   1
       1       0.27432558
       2       0.38118189
       3       0.50320190
       4       0.60569358
    ==== End of matrix output ====
 Dimension of the reduced space:    52
 >>> TIME USED IN THIS MICRO ITERATION        0.11

    --------------------------------------
    converged in 14 iterations
    threshold:    0.10E-09


         Routine          Time (min)
         ---------------------------
         CC_TRDRV            0.04
         CCRED               0.00
         CCNEX               0.00
         ---------------------------
         Total time          0.04


 >>>> Total CPU  time used in CCEQ_SOLV:   2.58 seconds
 >>>> Total wall time used in CCEQ_SOLV:   2.60 seconds


 >>>>>>>>>>>>>>>>>>>>> <<<<<<<<<<<<<<<<<<<<<



  Final eigenvalues :
 =====================
 (convergence threshold:  1.00D-10)

    1   0.2743255785
    2   0.3811818932
    3   0.5032019049
    4   0.6056935850


 SYMMETRY CLASS NR.    1
 MULTIPLICITY          1


 CC2-R12/B  right excitation energies:
 ====================================
 (conversion factor used: 1 au = 27.2113957 eV)

 Excitation no.       Hartree               eV 
 --------------       -------               --
         1            0.2743255785        7.4647787165
         2            0.3811818932       10.3724869506
         3            0.5032019049       13.6928203695
         4            0.6056935850       16.4817608548


 Total excited state energies for states of symmetry/spin    1    1
 Excitation no.       Energy (Hartree) 
 ------------------------------------- 
@@    1    1           -24.678421185295409
@@    1    2           -24.571564870613354
@@    1    3           -24.449544858941326
@@    1    4           -24.347053178849013


 Analysis of the Coupled Cluster Excitation Vector Number :  1
 -------------------------------------------------------------

          Excitation Energy :                             7.4648 eV


          CC_PRAM:Overall Contribution of the Different Components
          --------------------------------------------------------



          Single Excitation Contribution :              84.4276 %

          Double Excitation Contribution :              15.5724 %

          ||T1||/||T2||                  :               2.3284

          Norm of Total Amplitude Vector :               1.0028


 +=============================================================================+
 | symmetry|  orbital index  |   Excitation Numbers             |   Amplitude  |
 |  Index  |   a   b   i   j |      NAI      NBJ |     NAIBJ    |              |
 +=============================================================================+
 | 1   1   |   1       1     |        1          |              |    0.910113  |
 +-----------------------------------------------------------------------------+
 | 1 1 1 1 |   1   1   1   1 |        1        1 |            1 |    0.134744  |
 | 1 1 2 2 |   1   1   1   1 |        2        2 |           24 |   -0.356017  |
 +=============================================================================+


          Norm of Printed Amplitude Vector :             0.9865

          Printed all single excitations greater than 0.153141

          Printed all double excitations greater than 0.065770


 Analysis of the Coupled Cluster Excitation Vector Number :  2
 -------------------------------------------------------------

          Excitation Energy :                            10.3725 eV


          CC_PRAM:Overall Contribution of the Different Components
          --------------------------------------------------------



          Single Excitation Contribution :              31.9068 %

          Double Excitation Contribution :              68.0932 %

          ||T1||/||T2||                  :               0.6845

          Norm of Total Amplitude Vector :               1.0079


 +=============================================================================+
 | symmetry|  orbital index  |   Excitation Numbers             |   Amplitude  |
 |  Index  |   a   b   i   j |      NAI      NBJ |     NAIBJ    |              |
 +=============================================================================+
 | 1   1   |   1       1     |        1          |              |    0.557875  |
 +-----------------------------------------------------------------------------+
 | 1 1 2 2 |   1   1   1   1 |        2        2 |           24 |    0.823046  |
 +=============================================================================+


          Norm of Printed Amplitude Vector :             0.9943

          Printed all single excitations greater than 0.094144

          Printed all double excitations greater than 0.137531


 Analysis of the Coupled Cluster Excitation Vector Number :  3
 -------------------------------------------------------------

          Excitation Energy :                            13.6928 eV


          CC_PRAM:Overall Contribution of the Different Components
          --------------------------------------------------------



          Single Excitation Contribution :              94.1216 %

          Double Excitation Contribution :               5.8784 %

          ||T1||/||T2||                  :               4.0014

          Norm of Total Amplitude Vector :               1.0261


 +=============================================================================+
 | symmetry|  orbital index  |   Excitation Numbers             |   Amplitude  |
 |  Index  |   a   b   i   j |      NAI      NBJ |     NAIBJ    |              |
 +=============================================================================+
 | 1   1   |   2       1     |        2          |              |    0.284562  |
 | 1   1   |   3       1     |        3          |              |    0.210634  |
 | 2   2   |   1       1     |        6          |              |    0.920485  |
 +-----------------------------------------------------------------------------+
 | 1 1 2 2 |   1   1   1   1 |        2        2 |           24 |    0.041063  |
 | 1 1 2 2 |   2   1   1   1 |        3        2 |           26 |   -0.085686  |
 | 1 1 2 2 |   3   1   1   1 |        4        2 |           29 |   -0.192139  |
 | 1 1 2 2 |   4   1   1   1 |        5        2 |           33 |    0.072418  |
 | 1 1 2 2 |   3   2   1   1 |        4        3 |           30 |   -0.059767  |
 | 3 3 2 2 |   2   1   1   1 |        2        1 |           47 |    0.042152  |
 +=============================================================================+


          Norm of Printed Amplitude Vector :             1.0145

          Printed all single excitations greater than 0.161694

          Printed all double excitations greater than 0.040409


 Analysis of the Coupled Cluster Excitation Vector Number :  4
 -------------------------------------------------------------

          Excitation Energy :                            16.4818 eV


          CC_PRAM:Overall Contribution of the Different Components
          --------------------------------------------------------



          Single Excitation Contribution :               0.1164 %

          Double Excitation Contribution :              99.8836 %

          ||T1||/||T2||                  :               0.0341

          Norm of Total Amplitude Vector :               1.0235


 +=============================================================================+
 | symmetry|  orbital index  |   Excitation Numbers             |   Amplitude  |
 |  Index  |   a   b   i   j |      NAI      NBJ |     NAIBJ    |              |
 +=============================================================================+
 | 1   1   |   2       1     |        2          |              |    0.033579  |
 +-----------------------------------------------------------------------------+
 | 3 3 2 2 |   1   1   1   1 |        1        1 |           46 |    1.021629  |
 +=============================================================================+


          Norm of Printed Amplitude Vector :             1.0222

          Printed all single excitations greater than 0.010000

          Printed all double excitations greater than 0.166570

 --------------------------
 Symmetry class Nr.:     1
 Multiplicity      :     3
 --------------------------

 Length of Excitation vectors in this class is:       108
 No Excitation Energies calculated in this symmetry class


 *******************************************************************************

 --------------------------
 Symmetry class Nr.:     2
 Multiplicity      :     1
 --------------------------

 Length of Excitation vectors in this class is:        50
 Converging for  4 roots.
  >> output from FNDMN3 <<
  NUMBER OF ELEMENTS OBTAINED IN FNDMN3            7
  FROM FNDMN3 : 
    PLACES OF LOWEST ELEMENTS 
     1 :      2      3      4      5     13     18     43
  MIN AND MAX IN SELECTED SUPSPACE   0.18017076459843501       0.97721281774866764     
 Start vector guessed from diagonal
 ... selected element no.  2
 Start vector guessed from diagonal
 ... selected element no.  3
 Start vector guessed from diagonal
 ... selected element no.  4
 Start vector guessed from diagonal
 ... selected element no.  5



 >>>>> COUPLED CLUSTER RESPONSE SOLVER <<<<<

    Iter  #Vectors  time (min)   residual
    --------------------------------------

 REDUCED EIGENVALUES real part:

               Column   1
       1      -0.07204872
       2       0.30505886
       3       0.35956316
       4       0.40730076
    ==== End of matrix output ====
  
 ROOT:  1 RESIDUAL TOT: 1.65185D-01
 ROOT:  2 RESIDUAL TOT: 1.76133D-01
 ROOT:  3 RESIDUAL TOT: 1.55998D-01
 ROOT:  4 RESIDUAL TOT: 1.56541D-01
 (CCORT) Norm^2 (R12-part) =   -3.2295168067246455E-006
WARNING: R12 part of input vector no.    4 in CCORT has norm < 0
      1       4         0.00     0.18E+00

 Lowest eigenvalues in this iteration: 

               Column   1
       1      -0.07204872
       2       0.30505886
       3       0.35956316
       4       0.40730076
    ==== End of matrix output ====
 Dimension of the reduced space:     8
 >>> TIME USED IN THIS MICRO ITERATION        0.19


 REDUCED EIGENVALUES real part:

               Column   1
       1      -0.09011774
       2       0.27135328
       3       0.33006276
       4       0.37619017
    ==== End of matrix output ====
  
 ROOT:  1 RESIDUAL TOT: 4.07315D-02
 ROOT:  2 RESIDUAL TOT: 4.20643D-02
 ROOT:  3 RESIDUAL TOT: 2.53432D-02
 ROOT:  4 RESIDUAL TOT: 3.00248D-02
      2       4         0.00     0.42E-01

 Lowest eigenvalues in this iteration: 

               Column   1
       1      -0.09011774
[...]
 Dimension of the reduced space:    16
 >>> TIME USED IN THIS MICRO ITERATION        0.15


 REDUCED EIGENVALUES real part:

               Column   1
       1       0.01604691
       2       0.41852805
       3       0.85300736
       4       0.85364143
    ==== End of matrix output ====
  
 ROOT:  1 RESIDUAL TOT: 8.28092D-16
 ROOT:  1 HAS CONVERGED. RESIDUAL TOT: 8.28092D-16
 ROOT:  2 RESIDUAL TOT: 1.86233D-07
 ROOT:  3 RESIDUAL TOT: 4.77274D-08
 ROOT:  4 RESIDUAL TOT: 7.83631D-06
      6       3         0.00     0.78E-05

 Lowest eigenvalues in this iteration: 

               Column   1
       1       0.01604691
       2       0.41852805
       3       0.85300736
       4       0.85364143
    ==== End of matrix output ====
 Dimension of the reduced space:    19
 >>> TIME USED IN THIS MICRO ITERATION        0.15


 REDUCED EIGENVALUES real part:

               Column   1
       1       0.01604691
       2       0.41852805
       3       0.85300736
       4       0.85364144
    ==== End of matrix output ====
  
 ROOT:  1 RESIDUAL TOT: 4.23008D-17
 ROOT:  1 HAS CONVERGED. RESIDUAL TOT: 4.23008D-17
 ROOT:  2 RESIDUAL TOT: 4.78359D-09
 ROOT:  3 RESIDUAL TOT: 3.55733D-09
 ROOT:  4 RESIDUAL TOT: 6.61621D-07
      7       3         0.00     0.66E-06

 Lowest eigenvalues in this iteration: 

               Column   1
       1       0.01604691
       2       0.41852805
       3       0.85300736
       4       0.85364144
    ==== End of matrix output ====
 Dimension of the reduced space:    22
 >>> TIME USED IN THIS MICRO ITERATION        0.15


 REDUCED EIGENVALUES real part:

               Column   1
       1       0.01604691
       2       0.41852805
       3       0.85300736
       4       0.85364144
    ==== End of matrix output ====
  
 ROOT:  1 RESIDUAL TOT: 9.10420D-17
 ROOT:  1 HAS CONVERGED. RESIDUAL TOT: 9.10420D-17
 ROOT:  2 RESIDUAL TOT: 9.38190D-11
 ROOT:  2 HAS CONVERGED. RESIDUAL TOT: 9.38190D-11
 ROOT:  3 RESIDUAL TOT: 1.28974D-10
 ROOT:  4 RESIDUAL TOT: 4.50921D-08
      8       3         0.00     0.45E-07

 Lowest eigenvalues in this iteration: 

               Column   1
       1       0.01604691
       2       0.41852805
       3       0.85300736
       4       0.85364144
    ==== End of matrix output ====
 Dimension of the reduced space:    24
 >>> TIME USED IN THIS MICRO ITERATION        0.15


 REDUCED EIGENVALUES real part:

               Column   1
       1       0.01604691
       2       0.41852805
       3       0.85300736
       4       0.85364144
    ==== End of matrix output ====
  
 ROOT:  1 RESIDUAL TOT: 1.92495D-16
 ROOT:  1 HAS CONVERGED. RESIDUAL TOT: 1.92495D-16
 ROOT:  2 RESIDUAL TOT: 3.48268D-12
 ROOT:  2 HAS CONVERGED. RESIDUAL TOT: 3.48268D-12
 ROOT:  3 RESIDUAL TOT: 4.66793D-12
 ROOT:  3 HAS CONVERGED. RESIDUAL TOT: 4.66793D-12
 ROOT:  4 RESIDUAL TOT: 3.48536D-09
      9       2         0.00     0.35E-08

 Lowest eigenvalues in this iteration: 

               Column   1
       1       0.01604691
       2       0.41852805
       3       0.85300736
       4       0.85364144
    ==== End of matrix output ====
 Dimension of the reduced space:    25
 >>> TIME USED IN THIS MICRO ITERATION        0.11


 REDUCED EIGENVALUES real part:

               Column   1
       1       0.01604691
       2       0.41852805
       3       0.85300736
       4       0.85364144
    ==== End of matrix output ====
  
 ROOT:  1 RESIDUAL TOT: 3.04673D-16
 ROOT:  1 HAS CONVERGED. RESIDUAL TOT: 3.04673D-16
 ROOT:  2 RESIDUAL TOT: 6.90109D-13
 ROOT:  2 HAS CONVERGED. RESIDUAL TOT: 6.90109D-13
 ROOT:  3 RESIDUAL TOT: 2.01147D-12
 ROOT:  3 HAS CONVERGED. RESIDUAL TOT: 2.01147D-12
 ROOT:  4 RESIDUAL TOT: 2.80758D-10
     10       1         0.00     0.28E-09

 Lowest eigenvalues in this iteration: 

               Column   1
       1       0.01604691
       2       0.41852805
       3       0.85300736
       4       0.85364144
    ==== End of matrix output ====
 Dimension of the reduced space:    26
 >>> TIME USED IN THIS MICRO ITERATION        0.07


 REDUCED EIGENVALUES real part:

               Column   1
       1       0.01604691
       2       0.41852805
       3       0.85300736
       4       0.85364144
    ==== End of matrix output ====
  
 ROOT:  1 RESIDUAL TOT: 1.55019D-16
 ROOT:  1 HAS CONVERGED. RESIDUAL TOT: 1.55019D-16
 ROOT:  2 RESIDUAL TOT: 7.83626D-16
 ROOT:  2 HAS CONVERGED. RESIDUAL TOT: 7.83626D-16
 ROOT:  3 RESIDUAL TOT: 1.83519D-15
 ROOT:  3 HAS CONVERGED. RESIDUAL TOT: 1.83519D-15
 ROOT:  4 RESIDUAL TOT: 1.60702D-15
 ROOT:  4 HAS CONVERGED. RESIDUAL TOT: 1.60702D-15
     11       1         0.00     0.18E-14

 Lowest eigenvalues in this iteration: 

               Column   1
       1       0.01604691
       2       0.41852805
       3       0.85300736
       4       0.85364144
    ==== End of matrix output ====
 Dimension of the reduced space:    26
 >>> TIME USED IN THIS MICRO ITERATION        0.07

    --------------------------------------
    converged in 11 iterations
    threshold:    0.10E-09


         Routine          Time (min)
         ---------------------------
         CC_TRDRV            0.02
         CCRED               0.00
         CCNEX               0.00
         ---------------------------
         Total time          0.02


 >>>> Total CPU  time used in CCEQ_SOLV:   1.38 seconds
 >>>> Total wall time used in CCEQ_SOLV:   1.39 seconds


 >>>>>>>>>>>>>>>>>>>>> <<<<<<<<<<<<<<<<<<<<<



  Final eigenvalues :
 =====================
 (convergence threshold:  1.00D-10)

    1   0.0160469130
    2   0.4185280512
    3   0.8530073598
    4   0.8536414369


 SYMMETRY CLASS NR.    4
 MULTIPLICITY          1


 CC2-R12/B  right excitation energies:
 ====================================
 (conversion factor used: 1 au = 27.2113957 eV)

 Excitation no.       Hartree               eV 
 --------------       -------               --
         1            0.0160469130        0.4366587142
         2            0.4185280512       11.3887276051
         3            0.8530073598       23.2115110019
         4            0.8536414369       23.2287651157


 Total excited state energies for states of symmetry/spin    4    1
 Excitation no.       Energy (Hartree) 
 ------------------------------------- 
@@    4    1           -24.936699850876213
@@    4    2           -24.534218712599994
@@    4    3           -24.099739404026469
@@    4    4           -24.099105326991864


 Analysis of the Coupled Cluster Excitation Vector Number :  1
 -------------------------------------------------------------

          Excitation Energy :                             0.4367 eV


          CC_PRAM:Overall Contribution of the Different Components
          --------------------------------------------------------



          Single Excitation Contribution :              99.5301 %

          Double Excitation Contribution :               0.4699 %

          ||T1||/||T2||                  :              14.5537

          Norm of Total Amplitude Vector :               1.0000


 +=============================================================================+
 | symmetry|  orbital index  |   Excitation Numbers             |   Amplitude  |
 |  Index  |   a   b   i   j |      NAI      NBJ |     NAIBJ    |              |
 +=============================================================================+
 | 3   2   |   1       1     |        1          |              |    0.978717  |
 | 3   2   |   2       1     |        2          |              |   -0.193426  |
 +-----------------------------------------------------------------------------+
 | 3 1 2 1 |   2   3   1   1 |        2        3 |           18 |    0.020194  |
 | 3 1 2 1 |   2   4   1   1 |        2        4 |           20 |   -0.014416  |
 | 3 1 2 1 |   1   5   1   1 |        1        5 |           21 |   -0.026850  |
 | 3 2 2 2 |   1   1   1   1 |        1        6 |           23 |   -0.011716  |
 | 3 2 2 2 |   2   1   1   1 |        2        6 |           24 |    0.051961  |
 +=============================================================================+


          Norm of Printed Amplitude Vector :             0.9997

          Printed all single excitations greater than 0.166275

          Printed all double excitations greater than 0.011425


 Analysis of the Coupled Cluster Excitation Vector Number :  2
 -------------------------------------------------------------

          Excitation Energy :                            11.3887 eV


          CC_PRAM:Overall Contribution of the Different Components
          --------------------------------------------------------



          Single Excitation Contribution :              97.0001 %

          Double Excitation Contribution :               2.9999 %

          ||T1||/||T2||                  :               5.6863

          Norm of Total Amplitude Vector :               1.0000


 +=============================================================================+
 | symmetry|  orbital index  |   Excitation Numbers             |   Amplitude  |
 |  Index  |   a   b   i   j |      NAI      NBJ |     NAIBJ    |              |
 +=============================================================================+
 | 3   2   |   1       1     |        1          |              |    0.186279  |
 | 3   2   |   2       1     |        2          |              |    0.967110  |
 +-----------------------------------------------------------------------------+
 | 3 1 1 2 |   2   1   1   1 |        2        2 |            4 |   -0.049788  |
 | 3 1 2 1 |   2   1   1   1 |        2        1 |           14 |   -0.031639  |
 | 3 1 2 1 |   1   2   1   1 |        1        2 |           15 |   -0.054874  |
 | 3 1 2 1 |   2   3   1   1 |        2        3 |           18 |    0.141566  |
 +=============================================================================+


          Norm of Printed Amplitude Vector :             0.9983

          Printed all single excitations greater than 0.164148

          Printed all double excitations greater than 0.028867


 Analysis of the Coupled Cluster Excitation Vector Number :  3
 -------------------------------------------------------------

          Excitation Energy :                            23.2115 eV


          CC_PRAM:Overall Contribution of the Different Components
          --------------------------------------------------------



          Single Excitation Contribution :               0.0007 %

          Double Excitation Contribution :              99.9993 %

          ||T1||/||T2||                  :               0.0026

          Norm of Total Amplitude Vector :               1.0000


 +=============================================================================+
 | symmetry|  orbital index  |   Excitation Numbers             |   Amplitude  |
 |  Index  |   a   b   i   j |      NAI      NBJ |     NAIBJ    |              |
 +=============================================================================+
 | 3   2   |   1       1     |        1          |              |   -0.002451  |
 +-----------------------------------------------------------------------------+
 | 3 2 1 1 |   2   1   1   1 |        2        1 |            2 |    0.747796  |
 | 3 1 2 1 |   1   1   1   1 |        1        1 |           13 |   -0.663923  |
 +=============================================================================+


          Norm of Printed Amplitude Vector :             1.0000

          Printed all single excitations greater than 0.002000

          Printed all double excitations greater than 0.166666


 Analysis of the Coupled Cluster Excitation Vector Number :  4
 -------------------------------------------------------------

          Excitation Energy :                            23.2288 eV


          CC_PRAM:Overall Contribution of the Different Components
          --------------------------------------------------------



          Single Excitation Contribution :               0.1303 %

          Double Excitation Contribution :              99.8697 %

          ||T1||/||T2||                  :               0.0361

          Norm of Total Amplitude Vector :               1.0000


 +=============================================================================+
 | symmetry|  orbital index  |   Excitation Numbers             |   Amplitude  |
 |  Index  |   a   b   i   j |      NAI      NBJ |     NAIBJ    |              |
 +=============================================================================+
 | 3   2   |   1       1     |        1          |              |    0.010702  |
 | 3   2   |   2       1     |        2          |              |    0.034481  |
 +-----------------------------------------------------------------------------+
 | 3 2 1 1 |   2   1   1   1 |        2        1 |            2 |    0.698098  |
 | 3 1 2 1 |   1   1   1   1 |        1        1 |           13 |    0.714787  |
 +=============================================================================+


          Norm of Printed Amplitude Vector :             0.9998

          Printed all single excitations greater than 0.010000

          Printed all double excitations greater than 0.166558


 *******************************************************************************

 --------------------------
 Symmetry class Nr.:     4
 Multiplicity      :     3
 --------------------------

 Length of Excitation vectors in this class is:        50
 No Excitation Energies calculated in this symmetry class

 *******************************************************************

 Ground state energy is target 

 Ecorr =                    -24.95274676384426015829

 *******************************************************************
  

 *******************************************************************************
 *******************************************************************************
 *                                                                             *
 *                                                                             *
 *                   SUMMARY OF COUPLED CLUSTER CALCULATION                    *
 *                                                                             *
 *                                                                             *
 *******************************************************************************
 *******************************************************************************

                                                                                
                                                                                
            Total SCF   energy:                   -24.8662249632                
            Total MP2-R12/B energy:               -24.9525912460                
            Total CC2-R12/B energy:               -24.9527467638                
                                                                                
                                                                                
 +=============================================================================+
 |  sym. | Exci.  |        CC2-R12/B  Excitation energies            | ||T1||  |
 |(spin, |        +------------------------------------------------------------+
 | spat) |        |     Hartree    |       eV.      |     cm-1       |    %    |
 +=============================================================================+
 | ^1A1  |    1   |     0.2743256  |       7.46478  |     60207.505  |  84.43  |
 | ^1A1  |    2   |     0.3811819  |      10.37249  |     83659.755  |  31.91  |
 | ^1A1  |    3   |     0.5032019  |      13.69282  |    110440.052  |  94.12  |
 | ^1A1  |    4   |     0.6056936  |      16.48176  |    132934.375  |   0.12  |
 +-----------------------------------------------------------------------------+
 | ^1B1  |    1   |    -0.0916679  |      -2.49441  |    -20118.789  |  99.16  |
 | ^1B1  |    2   |     0.2688553  |       7.31592  |     59006.909  |  96.68  |
 | ^1B1  |    3   |     0.3295690  |       8.96803  |     72332.024  |  96.53  |
 | ^1B1  |    4   |     0.3753833  |      10.21470  |     82387.120  |  96.72  |
 +-----------------------------------------------------------------------------+
 | ^1B2  |    1   |     0.3920070  |      10.66705  |     86035.597  |  86.41  |
 | ^1B2  |    2   |     0.4946501  |      13.46011  |    108563.146  |   9.17  |
 | ^1B2  |    3   |     0.7654727  |      20.82957  |    168001.837  |  90.89  |
 | ^1B2  |    4   |     0.8085410  |      22.00152  |    177454.225  |   1.01  |
 +-----------------------------------------------------------------------------+
 | ^1A2  |    1   |     0.0160469  |       0.43666  |      3521.890  |  99.53  |
 | ^1A2  |    2   |     0.4185281  |      11.38873  |     91856.289  |  97.00  |
 | ^1A2  |    3   |     0.8530074  |      23.21151  |    187213.474  |   0.00  |
 | ^1A2  |    4   |     0.8536414  |      23.22877  |    187352.638  |   0.13  |
 +=============================================================================+
                                                                                
                                                                                
     Total energies in Hartree:                                                 
             1 ^1A1       -24.6784211853                                        
             2 ^1A1       -24.5715648706                                        
             3 ^1A1       -24.4495448589                                        
             4 ^1A1       -24.3470531788                                        
             1 ^1B1       -25.0444147127                                        
             2 ^1B1       -24.6838915007                                        
             3 ^1B1       -24.6231778114                                        
             4 ^1B1       -24.5773634213                                        
             1 ^1B2       -24.5607397376                                        
             2 ^1B2       -24.4580966722                                        
             3 ^1B2       -24.1872740624                                        
             4 ^1B2       -24.1442058130                                        
             1 ^1A2       -24.9366998509                                        
             2 ^1A2       -24.5342187126                                        
             3 ^1A2       -24.0997394040                                        
             4 ^1A2       -24.0991053270                                        

  1 a.u. =        27.21138 eV.  
  1 a.u. =    219474.62934 cm-1.
  

 *******************************************************************************
 *******************************************************************************
 *                                                                             *
 *                                                                             *
 *                      END OF COUPLED CLUSTER CALCULATION                     *
 *                                                                             *
 *                                                                             *
 *******************************************************************************
 *******************************************************************************


 >>>> CPU and wall time for CC :       9.993      10.105

 
     Date and time (Linux)  : Sun Sep  8 21:02:24 2013
     Host name              : lpqlx131.ups-tlse.fr                    


                      .-------------------------------------.
                      | End of Coupled Cluster Section (CC) |
                      `-------------------------------------'

 >>>> Total CPU  time used in DALTON:  10.06 seconds
 >>>> Total wall time used in DALTON:  10.18 seconds

 
     Date and time (Linux)  : Sun Sep  8 21:02:24 2013
     Host name              : lpqlx131.ups-tlse.fr                    
