

     ************************************************************************
     *************** Dalton - An Electronic Structure Program ***************
     ************************************************************************

    This is output from DALTON (Release Dalton2013 patch 0)
   ----------------------------------------------------------------------------
    NOTE:
     
    Dalton is an experimental code for the evaluation of molecular
    properties using (MC)SCF, DFT, CI, and CC wave functions.
    The authors accept no responsibility for the performance of
    the code or for the correctness of the results.
     
    The code (in whole or part) is provided under a licence and
    is not to be reproduced for further distribution without
    the written permission of the authors or their representatives.
     
    See the home page "http://daltonprogram.org" for further information.
     
    If results obtained with this code are published,
    the appropriate citations would be both of:
     
       K. Aidas, C. Angeli, K. L. Bak, V. Bakken, R. Bast,
       L. Boman, O. Christiansen, R. Cimiraglia, S. Coriani,
       P. Dahle, E. K. Dalskov, U. Ekstroem, T. Enevoldsen,
       J. J. Eriksen, P. Ettenhuber, B. Fernandez, L. Ferrighi,
       H. Fliegl, L. Frediani, K. Hald, A. Halkier, C. Haettig,
       H. Heiberg, T. Helgaker, A. C. Hennum, H. Hettema,
       E. Hjertenaes, S. Hoest, I.-M. Hoeyvik, M. F. Iozzi,
       B. Jansik, H. J. Aa. Jensen, D. Jonsson, P. Joergensen,
       J. Kauczor, S. Kirpekar, T. Kjaergaard, W. Klopper,
       S. Knecht, R. Kobayashi, H. Koch, J. Kongsted, A. Krapp,
       K. Kristensen, A. Ligabue, O. B. Lutnaes, J. I. Melo,
       K. V. Mikkelsen, R. H. Myhre, C. Neiss, C. B. Nielsen,
       P. Norman, J. Olsen, J. M. H. Olsen, A. Osted,
       M. J. Packer, F. Pawlowski, T. B. Pedersen, P. F. Provasi,
       S. Reine, Z. Rinkevicius, T. A. Ruden, K. Ruud, V. Rybkin,
       P. Salek, C. C. M. Samson, A. Sanchez de Meras, T. Saue,
       S. P. A. Sauer, B. Schimmelpfennig, K. Sneskov,
       A. H. Steindal, K. O. Sylvester-Hvid, P. R. Taylor,
       A. M. Teale, E. I. Tellgren, D. P. Tew, A. J. Thorvaldsen,
       L. Thoegersen, O. Vahtras, M. A. Watson, D. J. D. Wilson,
       M. Ziolkowski and H. Agren.
       The Dalton quantum chemistry program system.
       WIREs Comput. Mol. Sci. 2013. doi: 10.1002/wcms.1172
    
    and
    
       Dalton, a Molecular Electronic Structure Program,
       Release DALTON2013.0 (2013), see http://daltonprogram.org
   ----------------------------------------------------------------------------

    Authors in alphabetical order (major contribution(s) in parenthesis):

  Kestutis Aidas,           Vilnius University,           Lithuania   (QM/MM)
  Celestino Angeli,         University of Ferrara,        Italy       (NEVPT2)
  Keld L. Bak,              UNI-C,                        Denmark     (AOSOPPA, non-adiabatic coupling, magnetic properties)
  Vebjoern Bakken,          University of Oslo,           Norway      (DALTON; geometry optimizer, symmetry detection)
  Radovan Bast,             KTH Stockholm                 Sweden      (DALTON installation and execution frameworks)
  Linus Boman,              NTNU,                         Norway      (Cholesky decomposition and subsystems)
  Ove Christiansen,         Aarhus University,            Denmark     (CC module)
  Renzo Cimiraglia,         University of Ferrara,        Italy       (NEVPT2)
  Sonia Coriani,            University of Trieste,        Italy       (CC module, MCD in RESPONS)
  Paal Dahle,               University of Oslo,           Norway      (Parallelization)
  Erik K. Dalskov,          UNI-C,                        Denmark     (SOPPA)
  Thomas Enevoldsen,        Univ. of Southern Denmark,    Denmark     (SOPPA)
  Janus J. Eriksen,         Aarhus University,            Denmark     (PE-MP2/SOPPA, TDA)
  Berta Fernandez,          U. of Santiago de Compostela, Spain       (doublet spin, ESR in RESPONS)
  Lara Ferrighi,            Aarhus University,            Denmark     (PCM Cubic response)
  Heike Fliegl,             University of Oslo,           Norway      (CCSD(R12))
  Luca Frediani,            UiT The Arctic U. of Norway,  Norway      (PCM)
  Bin Gao,                  UiT The Arctic U. of Norway,  Norway      (Gen1Int library)
  Christof Haettig,         Ruhr-University Bochum,       Germany     (CC module)
  Kasper Hald,              Aarhus University,            Denmark     (CC module)
  Asger Halkier,            Aarhus University,            Denmark     (CC module)
  Hanne Heiberg,            University of Oslo,           Norway      (geometry analysis, selected one-electron integrals)
  Trygve Helgaker,          University of Oslo,           Norway      (DALTON; ABACUS, ERI, DFT modules, London, and much more)
  Alf Christian Hennum,     University of Oslo,           Norway      (Parity violation)
  Hinne Hettema,            University of Auckland,       New Zealand (quadratic response in RESPONS; SIRIUS supersymmetry)
  Eirik Hjertenaes,         NTNU,                         Norway      (Cholesky decomposition)
  Maria Francesca Iozzi,    University of Oslo,           Norway      (RPA)
  Brano Jansik              Technical Univ. of Ostrava    Czech Rep.  (DFT cubic response)
  Hans Joergen Aa. Jensen,  Univ. of Southern Denmark,    Denmark     (DALTON; SIRIUS, RESPONS, ABACUS modules, London, and much more)
  Dan Jonsson,              UiT The Arctic U. of Norway,  Norway      (cubic response in RESPONS module)
  Poul Joergensen,          Aarhus University,            Denmark     (RESPONS, ABACUS, and CC modules)
  Joanna Kauczor,           Linkoeping University,        Sweden      (Complex polarization propagator (CPP) module)
  Sheela Kirpekar,          Univ. of Southern Denmark,    Denmark     (Mass-velocity & Darwin integrals)
  Wim Klopper,              KIT Karlsruhe,                Germany     (R12 code in CC, SIRIUS, and ABACUS modules)
  Stefan Knecht,            ETH Zurich,                   Switzerland (Parallel CI and MCSCF)
  Rika Kobayashi,           Australian National Univ.,    Australia   (DIIS in CC, London in MCSCF)
  Henrik Koch,              NTNU,                         Norway      (CC module, Cholesky decomposition)
  Jacob Kongsted,           Univ. of Southern Denmark,    Denmark     (Polarizable embedding, QM/MM)
  Andrea Ligabue,           University of Modena,         Italy       (CTOCD, AOSOPPA)
  Ola B. Lutnaes,           University of Oslo,           Norway      (DFT Hessian)
  Juan I. Melo,             University of Buenos Aires,   Argentina   (LRESC, Relativistic Effects on NMR Shieldings)
  Kurt V. Mikkelsen,        University of Copenhagen,     Denmark     (MC-SCRF and QM/MM)
  Rolf H. Myhre,            NTNU,                         Norway      (Cholesky, subsystems and ECC2)
  Christian Neiss,          Univ. Erlangen-Nuernberg,     Germany     (CCSD(R12))
  Christian B. Nielsen,     University of Copenhagen,     Denmark     (QM/MM)
  Patrick Norman,           Linkoeping University,        Sweden      (Cubic response and complex response in RESPONS)
  Jeppe Olsen,              Aarhus University,            Denmark     (SIRIUS CI/density modules)
  Jogvan Magnus H. Olsen,   Univ. of Southern Denmark,    Denmark     (Polarizable embedding, PE library, QM/MM)
  Anders Osted,             Copenhagen University,        Denmark     (QM/MM)
  Martin J. Packer,         University of Sheffield,      UK          (SOPPA)
  Filip Pawlowski,          Kazimierz Wielki University   Poland      (CC3)
  Thomas B. Pedersen,       University of Oslo,           Norway      (Cholesky decomposition)
  Patricio F. Provasi,      University of Northeastern,   Argentina   (Analysis of coupling constants in localized orbitals)
  Zilvinas Rinkevicius,     KTH Stockholm,                Sweden      (open-shell DFT, ESR)
  Elias Rudberg,            KTH Stockholm,                Sweden      (DFT grid and basis info)
  Torgeir A. Ruden,         University of Oslo,           Norway      (Numerical derivatives in ABACUS)
  Kenneth Ruud,             UiT The Arctic U. of Norway,  Norway      (DALTON; ABACUS magnetic properties and  much more)
  Pawel Salek,              KTH Stockholm,                Sweden      (DALTON; DFT code)
  Claire C. M. Samson       University of Karlsruhe       Germany     (Boys localization, r12 integrals in ERI)
  Alfredo Sanchez de Meras, University of Valencia,       Spain       (CC module, Cholesky decomposition)
  Trond Saue,               Paul Sabatier University,     France      (direct Fock matrix construction)
  Stephan P. A. Sauer,      University of Copenhagen,     Denmark     (SOPPA(CCSD), SOPPA prop., AOSOPPA, vibrational g-factors)
  Bernd Schimmelpfennig,    Forschungszentrum Karlsruhe,  Germany     (AMFI module)
  Kristian Sneskov,         Aarhus University,            Denmark     (QM/MM, PE-CC)
  Arnfinn H. Steindal,      UiT The Arctic U. of Norway,  Norway      (parallel QM/MM)
  K. O. Sylvester-Hvid,     University of Copenhagen,     Denmark     (MC-SCRF)
  Peter R. Taylor,          VLSCI/Univ. of Melbourne,     Australia   (Symmetry handling ABACUS, integral transformation)
  Andrew M. Teale,          University of Nottingham,     England     (DFT-AC, DFT-D)
  David P. Tew,             University of Bristol,        England     (CCSD(R12))
  Olav Vahtras,             KTH Stockholm,                Sweden      (triplet response, spin-orbit, ESR, TDDFT, open-shell DFT)
  David J. Wilson,          La Trobe University,          Australia   (DFT Hessian and DFT magnetizabilities)
  Hans Agren,               KTH Stockholm,                Sweden      (SIRIUS module, RESPONS, MC-SCRF solvation model)
 --------------------------------------------------------------------------------

     Date and time (Linux)  : Sun Sep  8 21:08:31 2013
     Host name              : lpqlx131.ups-tlse.fr                    

 * Work memory size             :    64000000 =  488.28 megabytes.

 * Directories for basis set searches:
   1) /home/bast/DALTON-2013.0-Source/build/test_cc2_r12_aux_ne
   2) /home/bast/DALTON-2013.0-Source/build/basis


Compilation information
-----------------------

 Who compiled             | bast
 Host                     | lpqlx131.ups-tlse.fr
 System                   | Linux-3.8.5-201.fc18.x86_64
 CMake generator          | Unix Makefiles
 Processor                | x86_64
 64-bit integers          | OFF
 MPI                      | OFF
 Fortran compiler         | /usr/bin/gfortran
 Fortran compiler version | GNU Fortran (GCC) 4.7.2 20121109 (Red Hat 4.7.2-8)
 C compiler               | /usr/bin/gcc
 C compiler version       | gcc (GCC) 4.7.2 20121109 (Red Hat 4.7.2-8)
 C++ compiler             | /usr/bin/g++
 C++ compiler version     | g++ (GCC) 4.7.2 20121109 (Red Hat 4.7.2-8)
 Static linking           | OFF
 Last Git revision        | f34203295a86316e27f9e7b44f9b6769c4a046c0
 Configuration time       | 2013-09-08 20:31:27.952056


   Content of the .dal input file
 ----------------------------------

**DALTON INPUT                                    
.RUN WAVE FUNCTION                                
.DIRECT                                           
*MOLBAS                                           
.R12AUX                                           
**INTEGRALS                                       
.R12                                              
**WAVE FUNCTION                                   
.CC                                               
*ORBITAL                                          
.MOSTART                                          
 H1DIAG                                           
.AO DEL                                           
 1.0D-7                                           
.R12ORB                                           
 0 1 0 0 0 0 0 0                                  
*SCF INPUT                                        
.THRESH                                           
 1.0D-10                                          
*CC INPUT                                         
.CC2                                              
.CCSD                                             
.PRINT                                            
 3                                                
.THRENR                                           
 1.0D-14                                          
.MAX IT                                           
 100                                              
.FREEZE                                           
 1 0                                              
*R12 INPUT                                        
.NO HYB                                           
.CC2                                              
 1B                                               
**END OF DALTON INPUT                             


   Content of the .mol file
 ----------------------------

BASIS                                                                          
6-31G 6-311++G(3df,3pd)                                                        
Ne                                                                             
                                                                               
    2  0 3  X  Y  Z  0.10D-14                                                  
 1     10.    1                                                                
Ne       0.0000000000000     0.0000000000000     0.0000000000000       *       
 2     10.    1                                                                
Ne       0.0000000000000     0.0000000000000     0.0000000000000       *       


       *******************************************************************
       *********** Output from DALTON general input processing ***********
       *******************************************************************

 --------------------------------------------------------------------------------
   Overall default print level:    0
   Print level for DALTON.STAT:    1

    AO-direct calculation (in sections where implemented)
    HERMIT 1- and 2-electron integral sections will be executed
    "Old" integral transformation used (limited to max 255 basis functions)
    Wave function sections will be executed (SIRIUS module)
 --------------------------------------------------------------------------------


 Changes of defaults for *MOLBAS:
 --------------------------------

 Print level in molecule setup (READIN):    1

 .R12AUX: Reading auxiliary basis sets from .mol file for R12



   ****************************************************************************
   *************** Output of molecule and basis set information ***************
   ****************************************************************************


    The two title cards from your ".mol" input:
    ------------------------------------------------------------------------
 1: Ne                                                                      
 2:                                                                         
    ------------------------------------------------------------------------

  Atomic type no.    1
  --------------------
  Nuclear charge:  10.00000
  Number of symmetry independent centers:    1
  Number of basis sets to read;    1
  Basis set file used for this atomic type with Z =  10 :
     "/home/bast/DALTON-2013.0-Source/build/basis/6-31G"

  Info about the basis set file: your basis has no documentation.
  Basis set: 6-31G                                                                           

  Atomic type no.    2
  --------------------
  Nuclear charge:  10.00000
  Number of symmetry independent centers:    1
  This is an auxiliary basis for R12, MBSI:    2
  Basis set file used for this atomic type with Z =  10 :
     "/home/bast/DALTON-2013.0-Source/build/basis/6-311++G(3df,3pd)"

  Info about the basis set file: your basis has no documentation.
  Basis set: 6-311++G(3df,3pd)                                                               


                         SYMGRP: Point group information
                         -------------------------------

Point group: D2h

   * The point group was generated by:

      Reflection in the yz-plane
      Reflection in the xz-plane
      Reflection in the xy-plane

   * Group multiplication table

        |  E   C2z  C2y  C2x   i   Oxy  Oxz  Oyz
   -----+----------------------------------------
     E  |  E   C2z  C2y  C2x   i   Oxy  Oxz  Oyz
    C2z | C2z   E   C2x  C2y  Oxy   i   Oyz  Oxz
    C2y | C2y  C2x   E   C2z  Oxz  Oyz   i   Oxy
    C2x | C2x  C2y  C2z   E   Oyz  Oxz  Oxy   i 
     i  |  i   Oxy  Oxz  Oyz   E   C2z  C2y  C2x
    Oxy | Oxy   i   Oyz  Oxz  C2z   E   C2x  C2y
    Oxz | Oxz  Oyz   i   Oxy  C2y  C2x   E   C2z
    Oyz | Oyz  Oxz  Oxy   i   C2x  C2y  C2z   E 

   * Character table

        |  E   C2z  C2y  C2x   i   Oxy  Oxz  Oyz
   -----+----------------------------------------
    Ag  |   1    1    1    1    1    1    1    1
    B3u |   1   -1   -1    1   -1    1    1   -1
    B2u |   1   -1    1   -1   -1    1   -1    1
    B1g |   1    1   -1   -1    1    1   -1   -1
    B1u |   1    1   -1   -1   -1   -1    1    1
    B2g |   1   -1    1   -1    1   -1    1   -1
    B3g |   1   -1   -1    1    1   -1   -1    1
    Au  |   1    1    1    1   -1   -1   -1   -1

   * Direct product table

        | Ag   B3u  B2u  B1g  B1u  B2g  B3g  Au 
   -----+----------------------------------------
    Ag  | Ag   B3u  B2u  B1g  B1u  B2g  B3g  Au 
    B3u | B3u  Ag   B1g  B2u  B2g  B1u  Au   B3g
    B2u | B2u  B1g  Ag   B3u  B3g  Au   B1u  B2g
    B1g | B1g  B2u  B3u  Ag   Au   B3g  B2g  B1u
    B1u | B1u  B2g  B3g  Au   Ag   B3u  B2u  B1g
    B2g | B2g  B1u  Au   B3g  B3u  Ag   B1g  B2u
    B3g | B3g  Au   B1u  B2g  B2u  B1g  Ag   B3u
    Au  | Au   B3g  B2g  B1u  B1g  B2u  B3u  Ag 


                                 Isotopic Masses
                                 ---------------

                           Ne         19.992439
                           Ne          0.000000

                       Total mass:    19.992439 amu
                       Natural abundance:   0.000 %

 Center-of-mass coordinates (a.u.):    0.000000    0.000000    0.000000


  Atoms and basis sets
  --------------------

  Number of atom types :    2
  Total number of atoms:    2

  Basis set 1 refers to the basis "6-31G" from the basis set library.

  Basis set 2 refers to the basis "6-311++G(3df,3pd)" from the basis set library.

  label  basis   atoms  charge   prim  cont     basis
  ------------------------------------------------------------------------------
  Ne       1       1   10.0000    22     9      [10s4p|3s2p]                                       
  Ne       2       1    0.0000    52    39      [12s6p3d1f|5s4p3d1f]                               
  ------------------------------------------------------------------------------
  total:           2   10.0000    74    48
  ------------------------------------------------------------------------------
  Spherical harmonic basis used.

  Threshold for neglecting AO integrals:  1.00D-15


  Cartesian Coordinates (a.u.)
  ----------------------------

  Total number of coordinates:    6
  Ne      :     1  x   0.0000000000    2  y   0.0000000000    3  z   0.0000000000
  Ne      :     4  x   0.0000000000    5  y   0.0000000000    6  z   0.0000000000


  Symmetry Coordinates
  --------------------

  Number of coordinates in each symmetry:     0    2    2    0    2    0    0    0

  Symmetry  B3u ( 2)

    1   Ne    x    1
    2   Ne    x    4

  Symmetry  B2u ( 3)

    3   Ne    y    2
    4   Ne    y    5

  Symmetry  B1u ( 5)

    5   Ne    z    3
    6   Ne    z    6


  Bond distances (Angstrom):
  --------------------------

                  atom 1     atom 2       distance
                  ------     ------       --------




 Principal moments of inertia (u*A**2) and principal axes
 --------------------------------------------------------

   IA       0.000000          1.000000    0.000000    0.000000
   IB       0.000000          0.000000    1.000000    0.000000
   IC       0.000000          0.000000    0.000000    1.000000


 Rotational constants
 --------------------

 All are zero as the "molecule" is an atom!



@  Nuclear repulsion energy :    0.000000000000 Hartree


  Symmetry Orbitals
  -----------------

  Number of orbitals in each symmetry:          14    8    8    3    8    3    3    1

  Number of main orbitals in each symmetry:           3    2    2    0    2    0    0    0
  Number of auxiliary functions in each symmetry:    11    6    6    3    6    3    3    1


  Symmetry  Ag ( 1)

    1     Ne   M   1s         1
    2     Ne   M   1s         2
    3     Ne   M   1s         3
    4     Ne   A   1s        10
    5     Ne   A   1s        11
    6     Ne   A   1s        12
    7     Ne   A   1s        13
    8     Ne   A   1s        14
    9     Ne   A   3d0       29
   10     Ne   A   3d2+      31
   11     Ne   A   3d0       34
   12     Ne   A   3d2+      36
   13     Ne   A   3d0       39
   14     Ne   A   3d2+      41


  Symmetry  B3u( 2)

   15     Ne   M   2px        4
   16     Ne   M   2px        7
   17     Ne   A   2px       15
   18     Ne   A   2px       18
   19     Ne   A   2px       21
   20     Ne   A   2px       24
   21     Ne   A   4f1+      46
   22     Ne   A   4f3+      48


  Symmetry  B2u( 3)

   23     Ne   M   2py        5
   24     Ne   M   2py        8
   25     Ne   A   2py       16
   26     Ne   A   2py       19
   27     Ne   A   2py       22
   28     Ne   A   2py       25
   29     Ne   A   4f3-      42
   30     Ne   A   4f1-      44


  Symmetry  B1g( 4)

   31     Ne   A   3d2-      27
   32     Ne   A   3d2-      32
   33     Ne   A   3d2-      37


  Symmetry  B1u( 5)

   34     Ne   M   2pz        6
   35     Ne   M   2pz        9
   36     Ne   A   2pz       17
   37     Ne   A   2pz       20
   38     Ne   A   2pz       23
   39     Ne   A   2pz       26
   40     Ne   A   4f0       45
   41     Ne   A   4f2+      47


  Symmetry  B2g( 6)

   42     Ne   A   3d1+      30
   43     Ne   A   3d1+      35
   44     Ne   A   3d1+      40


  Symmetry  B3g( 7)

   45     Ne   A   3d1-      28
   46     Ne   A   3d1-      33
   47     Ne   A   3d1-      38


  Symmetry  Au ( 8)

   48     Ne   A   4f2-      43

  Number of floating/multiple basis set orbitals :    1

  Symmetries of electric field:  B3u(2)  B2u(3)  B1u(5)

  Symmetries of magnetic field:  B3g(7)  B2g(6)  B1g(4)


                     .---------------------------------------.
                     | Starting in Integral Section (HERMIT) |
                     `---------------------------------------'



    *************************************************************************
    ****************** Output from HERMIT input processing ******************
    *************************************************************************


 Default print level:        1

 * Nuclear model: Point charge

 Calculation of one-electron Hamiltonian integrals.

 The following one-electron property integrals are calculated as requested:
          - overlap integrals
          - Cartesian multipole moment integrals of orders 2 and lower

 Center of mass  (bohr):      0.000000000000      0.000000000000      0.000000000000
 Operator center (bohr):      0.000000000000      0.000000000000      0.000000000000
 Gauge origin    (bohr):      0.000000000000      0.000000000000      0.000000000000
 Dipole origin   (bohr):      0.000000000000      0.000000000000      0.000000000000


     ************************************************************************
     ************************** Output from HERINT **************************
     ************************************************************************

 >>>> Total CPU  time used in HERMIT:   0.02 seconds
 >>>> Total wall time used in HERMIT:   0.02 seconds


                        .----------------------------------.
                        | End of Integral Section (HERMIT) |
                        `----------------------------------'



                   .--------------------------------------------.
                   | Starting in Wave Function Section (SIRIUS) |
                   `--------------------------------------------'


 >>>> Detected R12 input:
 Direct Fock matrix formation switched on!
 Scale factors for CC excitations manifolds:
 for bra states (projection manifold):   1.0000000000000000     
 for ket states (operator manifold)  :   1.0000000000000000     

 **********************************************************************
 *SIRIUS* a direct, restricted step, second order MCSCF program       *
 **********************************************************************

 
     Date and time (Linux)  : Sun Sep  8 21:08:31 2013
     Host name              : lpqlx131.ups-tlse.fr                    

 Title lines from ".mol" input file:
     Ne                                                                      
                                                                             

 Print level on unit LUPRI =   2 is   0
 Print level on unit LUW4  =   2 is   5

@    (Integral direct) CC calculation.

@    This is a combination run starting with
@              a restricted, closed shell Hartree-Fock calculation

 Fock matrices are calculated directly without use of integrals on disk.

 Initial molecular orbitals are obtained according to
 ".MOSTART H1DIAG" input option

     Wave function specification
     ============================

     For the specification of the Coupled Cluster: see later.

@    For the wave function of type :      >>> CC <<<
@    Number of closed shell electrons          10
@    Number of electrons in active shells       0
@    Total charge of the molecule               0

@    Spin multiplicity and 2 M_S                1         0
     Total number of symmetries                 8
@    Reference state symmetry                   1

     Orbital specifications
     ======================
     Abelian symmetry species          All |    1    2    3    4    5    6    7    8
                                       --- |  ---  ---  ---  ---  ---  ---  ---  ---
     Total number of orbitals            9 |    3    2    2    0    2    0    0    0
     Number of basis functions          48 |   14    8    8    3    8    3    3    1

      ** Automatic occupation of RHF orbitals **

      -- Initial occupation of symmetries is determined from diagonal of H1 matrix.           
      -- Initial occupation of symmetries is :
@    Occupied SCF orbitals               5 |    2    1    1    0    1    0    0    0

     Maximum number of Fock   iterations      0
     Maximum number of DIIS   iterations     60
     Maximum number of QC-SCF iterations     60
     Threshold for SCF convergence     1.00D-10


 Changes of defaults for CC:
 ---------------------------


 -This is a direct atomic orbital integral based
  calculation for coupled cluster wave function

 -Implicit frozen core calculation
  


 >>>>> DIIS optimization of Hartree-Fock <<<<<

 C1-DIIS algorithm; max error vectors =    5

 Automatic occupation of symmetries with  10 electrons.

 Iter     Total energy    Error norm  Delta(E)    SCF occupation
 -----------------------------------------------------------------------------
   1  Screening settings (-IFTHRS, DIFDEN)   -6    T
@  1  -122.655286244       9.15D+00  -1.23D+02     2   1   1   0   1   0   0   0
      Virial theorem: -V/T =      1.778056
@      MULPOP Ne      0.00; 
 -----------------------------------------------------------------------------
   2  Screening settings (-IFTHRS, DIFDEN)   -6    T
@  2  -127.358153170       6.06D+00  -4.70D+00     2   1   1   0   1   0   0   0
      Virial theorem: -V/T =      2.084309
@      MULPOP Ne      0.00; 
 -----------------------------------------------------------------------------
   3  Screening settings (-IFTHRS, DIFDEN)   -6    T
@  3  -128.471546261       2.72D-01  -1.11D+00     2   1   1   0   1   0   0   0
      Virial theorem: -V/T =      2.002796
@      MULPOP Ne      0.00; 
 -----------------------------------------------------------------------------
   4  Screening settings (-IFTHRS, DIFDEN)   -8    F
@  4  -128.473805769       5.68D-02  -2.26D-03     2   1   1   0   1   0   0   0
      Virial theorem: -V/T =      1.999215
@      MULPOP Ne      0.00; 
 -----------------------------------------------------------------------------
   5  Screening settings (-IFTHRS, DIFDEN)   -8    T
@  5  -128.473873190       1.25D-02  -6.74D-05     2   1   1   0   1   0   0   0
      Virial theorem: -V/T =      1.999825
@      MULPOP Ne      0.00; 
 -----------------------------------------------------------------------------
   6  Screening settings (-IFTHRS, DIFDEN)   -8    T
@  6  -128.473876870       1.01D-04  -3.68D-06     2   1   1   0   1   0   0   0
      Virial theorem: -V/T =      2.000002
@      MULPOP Ne     -0.00; 
 -----------------------------------------------------------------------------
   7  Screening settings (-IFTHRS, DIFDEN)  -11    F
@  7  -128.473876871       1.28D-07  -2.90D-10     2   1   1   0   1   0   0   0
      Virial theorem: -V/T =      2.000004
@      MULPOP Ne      0.00; 
 -----------------------------------------------------------------------------
   8  Screening settings (-IFTHRS, DIFDEN)  -15    F
@  8  -128.473876871       1.49D-11  -2.84D-14     2   1   1   0   1   0   0   0

@ *** DIIS converged in   8 iterations !
@     Converged SCF energy, gradient:   -128.473876870544    1.49D-11
    - total time used in SIRFCK :              0.00 seconds


 *** SCF orbital energy analysis ***

 Only the five lowest virtual orbital energies printed in each symmetry.

 Number of electrons :   10
 Orbital occupations :    2    1    1    0    1    0    0    0

 Sym       Hartree-Fock orbital energies

  1    -32.75932341    -1.91081921     1.97029796

  2     -0.83077071     1.75579895

  3     -0.83077071     1.75579895

  5     -0.83077071     1.75579895

    E(LUMO) :     1.75579895 au (symmetry 3)
  - E(HOMO) :    -0.83077071 au (symmetry 5)
  ------------------------------------------
    gap     :     2.58656966 au

 >>> Writing SIRIFC interface file <<<

  Canonical primary and secondary basis sets
  ISYM       NORB1 MBAS1       NORB2 MBAS2
     1           3     3          11    11
     2           2     2           6     6
     3           2     2           6     6
     4           0     0           3     3
     5           2     2           6     6
     6           0     0           3     3
     7           0     0           3     3
     8           0     0           1     1

 Computation of exchange matrix done [6]

 AUXILIARY BASIS LOW EIGENVALUES
 ISYM         EIGENVALUE
   1      0.009312295975
   2      0.002684757029
   3      0.002684757029
   4      0.063215355780
   5      0.002684757029
   6      0.063215355780
   7      0.063215355780
   8      0.217880986967

 >>>> CPU and wall time for SCF :       0.027       0.026


                       .-----------------------------------.
                       | >>> Final results from SIRIUS <<< |
                       `-----------------------------------'


@    Spin multiplicity:           1
@    Spatial symmetry:            1
@    Total charge of molecule:    0

@    Final HF energy:            -128.473876870544                 
@    Nuclear repulsion:             0.000000000000
@    Electronic energy:          -128.473876870544

@    Final gradient norm:           0.000000000015

 
     Date and time (Linux)  : Sun Sep  8 21:08:31 2013
     Host name              : lpqlx131.ups-tlse.fr                    

 (Only coefficients >0.0100 are printed.)

 Molecular orbitals for symmetry species  1
 ------------------------------------------

    Orbital         1        2        3
   1 Ne  :1s     0.9955  -0.2448   0.1262
   2 Ne  :1s     0.0201   0.5456  -1.4644
   3 Ne  :1s    -0.0038   0.5485   1.4353

 Molecular orbitals for symmetry species  2
 ------------------------------------------

    Orbital         1
   1 Ne  :2px    0.6902
   2 Ne  :2px    0.4593

 Molecular orbitals for symmetry species  3
 ------------------------------------------

    Orbital         1        2
   1 Ne  :2py    0.6902  -0.9190
   2 Ne  :2py    0.4593   1.0536

 Molecular orbitals for symmetry species  5
 ------------------------------------------

    Orbital         1        2
   1 Ne  :2pz    0.6902  -0.9190
   2 Ne  :2pz    0.4593   1.0536



 >>>> Total CPU  time used in SIRIUS :      0.03 seconds
 >>>> Total wall time used in SIRIUS :      0.03 seconds

 
     Date and time (Linux)  : Sun Sep  8 21:08:31 2013
     Host name              : lpqlx131.ups-tlse.fr                    


                     .---------------------------------------.
                     | End of Wave Function Section (SIRIUS) |
                     `---------------------------------------'



                    .------------------------------------------.
                    | Starting in Coupled Cluster Section (CC) |
                    `------------------------------------------'

  

 *******************************************************************************
 *******************************************************************************
 *                                                                             *
 *                                                                             *
 *                    START OF COUPLED CLUSTER CALCULATION                     *
 *                                                                             *
 *                                                                             *
 *******************************************************************************
 *******************************************************************************


  I am freezing!
  >> output from FNDMN3 <<
  NUMBER OF ELEMENTS OBTAINED IN FNDMN3            1
  FROM FNDMN3 : 
    PLACES OF LOWEST ELEMENTS 
     1 :      1
  MIN AND MAX IN SELECTED SUPSPACE   -32.759323407610147       -32.759323407610147     
 Freezing HF-orbital   1 of symmetry   1 and with orbital energy  -32.7593
 In total frozen-core per symmetry-class:  1  0  0  0  0  0  0  0
 


 CCR12 ANSATZ =   1

 CCR12 APPROX =   7


  I am freezing!
 Freezing HF-orbital   1 of symmetry   1 and with orbital energy  -32.7593
 In total frozen-core per symmetry-class:  1  0  0  0  0  0  0  0
 
   NRHF   :       1       2       1       0       1       0       0       0
   NRHFS  :       2       2       1       0       1       0       0       0
   NORB1  :       3       2       2       0       2       0       0       0
   NORB2  :      11       6       6       3       6       3       3       1

 Number of primary orbitals             :            9
 Number of secondary orbitals           :           39
 Total number of orbitals               :           48
 Total number of basis functions        :           48
 Number of (i|p') integrals             :           46
 Number of (i|u') integrals             :           46
 Number of (Ip'|1/r12|jL) integrals     :           46
 Number of (ip'|1/r12|jq') integrals    :         4110
 Number of (ip'|r12|jq') integrals      :         4110
 Number of (ip'|[T1,r12]|jq') integrals :         7980
 Threshold for R12 contributions            =  0.00000    
 Threshold for singular value decomposition = 0.100000E-11

 The B matrix is transformed into an orthogonal basis
 and inverted by diagonalization

 ******************************************************************************
 The MP2-R12/A and MP2-R12/B energies are computed as described in:
 W. Klopper and C. C. M. Samson, J. Chem. Phys. 116, 6397-6410 (2002).
 ------------------------------------------------------------------------------
 Ansatz 1 is used and results are printed for approximations A and B.
 ******************************************************************************

 Core memory required by CCSD_R12 :          29586  (double words)

 Computation of (ip'|r12|jq') integrals done
 >>>  Time used in R  [6]     is   0.31 seconds
 Backtransformation of (ip'|r12|jq') integrals done
 Computation of V^aj_kl intermediate done

 >>> Time used for V^aj_kl is    0.00 seconds

 Computation of (ip'|1/r12|jq') integrals done
 >>>  Time used in 1/R[5]     is   0.11 seconds
 Computation of (ip'|r12|jq')X(p'r')(kr'|r12|lq') integrals done
 Computation of (i'p'|r12|jq') integrals done
 >>>  Time used in R  [6]     is   0.31 seconds
 Computation of (ip'|[T,r12]|jq') integrals done
 >>>  Time used in T,R[5]     is   0.13 seconds


                 +-----------------------------------------------+
                 ! MP2-R12 ansatz := (1 - P1 - P2 + P1*P2) * R12 !
                 +-----------------------------------------------+


 SECOND-ORDER PAIR ENERGIES:

                    1   -0.003431990    0.000000000
                    2   -0.006423879   -0.004418127
                    3   -0.008648319    0.000000000
                    4   -0.006423879   -0.004418127
                    5   -0.006273668   -0.010877113
                    6   -0.008648319    0.000000000
                    7   -0.006423879   -0.004418127
                    8   -0.006273668   -0.010877113
                    9   -0.006273668   -0.010877113
                   10   -0.008648319    0.000000000

 MP2 =   -0.113355305   -0.067469586   -0.045885718


                         +--------------------------------+
                         ! Auxiliary-basis MP2-R12 method !
                         +--------------------------------+


 SECOND-ORDER R12/A PAIR ENERGIES:

   1   -0.003431990   -0.013265202    0.000000000   -0.000000000     1.74157         3.06925    
   2   -0.006423879   -0.014915321   -0.004418127   -0.006884706     1.74157         3.06925    
   3   -0.008648319   -0.027368706    0.000000000   -0.000000000     1.74157         3.06925    
   4   -0.006423879   -0.014523835   -0.004418127   -0.006801265     1.74157         3.06925    
   5   -0.006273668   -0.014900054   -0.010877113   -0.029291684     1.74157         3.06925    
   6   -0.008648319   -0.025477449    0.000000000   -0.000000000     1.74157         3.06925    
   7   -0.006423879   -0.014523835   -0.004418127   -0.006801265     1.74157         3.06925    
   8   -0.006273668   -0.014900054   -0.010877113   -0.029291684     1.74157         3.06925    
   9   -0.006273668   -0.014845418   -0.010877113   -0.029253236     1.74157         3.06925    
  10   -0.008648319   -0.025477449    0.000000000   -0.000000000     1.74157         3.06925    

       -0.067469586   -0.180197321   -0.045885718   -0.108323841

              MP2-R12/A   correlation energy =   -0.288521162

 SECOND-ORDER R12/B PAIR ENERGIES:

   1   -0.003431990   -0.010634614    0.000000000   -0.000000000     7.23764         7.84469    
   2   -0.006423879   -0.013610558   -0.004418127   -0.006493065     6.15759         6.76465    
   3   -0.008648319   -0.023210226    0.000000000   -0.000000000     5.07754         5.68460    
   4   -0.006423879   -0.013199747   -0.004418127   -0.006394431     6.15759         6.76465    
   5   -0.006273668   -0.013208915   -0.010877113   -0.025701263     5.07754         5.68460    
   6   -0.008648319   -0.022179072    0.000000000   -0.000000000     5.07754         5.68460    
   7   -0.006423879   -0.013199747   -0.004418127   -0.006394431     6.15759         6.76465    
   8   -0.006273668   -0.013208915   -0.010877113   -0.025701263     5.07754         5.68460    
   9   -0.006273668   -0.012990304   -0.010877113   -0.025276178     5.07754         5.68460    
  10   -0.008648319   -0.022179072    0.000000000   -0.000000000     5.07754         5.68460    

       -0.067469586   -0.157621169   -0.045885718   -0.095960631

              MP2-R12/B   correlation energy =   -0.253581799
 Time for MP2-R12 part cpu :  0.87000000000000000     
 Time for MP2-R12 part wall:  0.95700001716613770     

  I am freezing!
  >> output from FNDMN3 <<
  NUMBER OF ELEMENTS OBTAINED IN FNDMN3            1
  FROM FNDMN3 : 
    PLACES OF LOWEST ELEMENTS 
     1 :      1
  MIN AND MAX IN SELECTED SUPSPACE   -32.759323407610147       -32.759323407610147     
 Freezing HF-orbital   1 of symmetry   1 and with orbital energy  -32.7593
 In total frozen-core per symmetry-class:  1  0  0  0  0  0  0  0
 
   

 *******************************************************************
 *                                                                 *
 *<<<<<<<<<<                                             >>>>>>>>>>*
 *<<<<<<<<<< OUTPUT FROM COUPLED CLUSTER ENERGY PROGRAM  >>>>>>>>>>*
 *<<<<<<<<<<                                             >>>>>>>>>>*
 *                                                                 *
 *******************************************************************


             The Direct Coupled Cluster Energy Program
             -----------------------------------------


          Number of t1 amplitudes                 :         4
          Number of t2 amplitudes                 :        28
          Number of t2' amplitudes for R12 part   :        42
          Total number of amplitudes in ccsd      :        74

 Iter.  1: Coupled cluster MP2-R12/B energy :    -128.7274586699952863
     Conventional correlation energy:    -0.1133553046066424
     R12 correlation energy         :    -0.1402264948441708
     Total correlation energy       :    -0.2535817994508132


       Iteration no.:  1
       -----------------

       Time used in   RHS - TOTAL  :       0.07 seconds
       Norm^2 of omega1 after ccvec:        0.4294393747D-03
       Norm^2 of omega2 after ccvec:        0.2551857176D-32
       Norm^2 of Omegar12  in NXTAM:        0.1624120996D-28
 Iter.  1: Coupled cluster CC2-R12/B energy :    -128.7274042313832467
     Conventional correlation energy:    -0.1133008659946029
     R12 correlation energy         :    -0.1402264948441699
     Total correlation energy       :    -0.2535273608387728


       Iteration no.:  2
       -----------------

       Time used in   RHS - TOTAL  :       0.07 seconds
       Norm^2 of omega1 after ccvec:        0.2421979867D-05
       Norm^2 of omega2 after ccvec:        0.4528294221D-05
       Norm^2 of Omegar12  in NXTAM:        0.3802623858D-06
 Iter.  2: Coupled cluster CC2-R12/B energy :    -128.7277042828487765
     Conventional correlation energy:    -0.1136927997393968
     R12 correlation energy         :    -0.1401346125649094
     Total correlation energy       :    -0.2538274123043062


       Iteration no.:  3
       -----------------

       Time used in   RHS - TOTAL  :       0.07 seconds
       Norm^2 of omega1 after ccvec:        0.8446993552D-07
       Norm^2 of omega2 after ccvec:        0.1351064265D-07
       Norm^2 of Omegar12  in NXTAM:        0.2200733188D-08
 Iter.  3: Coupled cluster CC2-R12/B energy :    -128.7277136229156724
     Conventional correlation energy:    -0.1137001751399112
     R12 correlation energy         :    -0.1401365772312880
     Total correlation energy       :    -0.2538367523711991


       Iteration no.:  4
       -----------------

       Time used in   RHS - TOTAL  :       0.07 seconds
       Norm^2 of omega1 after ccvec:        0.2820285518D-08
       Norm^2 of omega2 after ccvec:        0.3018619120D-09
       Norm^2 of Omegar12  in NXTAM:        0.7307144280D-10
 Iter.  4: Coupled cluster CC2-R12/B energy :    -128.7277137258242021
     Conventional correlation energy:    -0.1136992432649038
     R12 correlation energy         :    -0.1401376120148392
     Total correlation energy       :    -0.2538368552797430


       Iteration no.:  5
       -----------------

       Time used in   RHS - TOTAL  :       0.07 seconds
       Norm^2 of omega1 after ccvec:        0.1017375692D-10
       Norm^2 of omega2 after ccvec:        0.2622690275D-11
       Norm^2 of Omegar12  in NXTAM:        0.7153655326D-12
 Iter.  5: Coupled cluster CC2-R12/B energy :    -128.7277137473161588
     Conventional correlation energy:    -0.1136991907923459
     R12 correlation energy         :    -0.1401376859793340
     Total correlation energy       :    -0.2538368767716800


       Iteration no.:  6
       -----------------

       Time used in   RHS - TOTAL  :       0.07 seconds
       Norm^2 of omega1 after ccvec:        0.6605181281D-13
       Norm^2 of omega2 after ccvec:        0.1264168179D-13
       Norm^2 of Omegar12  in NXTAM:        0.7196549420D-15
 Iter.  6: Coupled cluster CC2-R12/B energy :    -128.7277137492960151
     Conventional correlation energy:    -0.1136991945617467
     R12 correlation energy         :    -0.1401376841898096
     Total correlation energy       :    -0.2538368787515562


       Iteration no.:  7
       -----------------

       Time used in   RHS - TOTAL  :       0.07 seconds
       Norm^2 of omega1 after ccvec:        0.5145042324D-17
       Norm^2 of omega2 after ccvec:        0.1922392470D-17
       Norm^2 of Omegar12  in NXTAM:        0.8076565475D-19
 Iter.  7: Coupled cluster CC2-R12/B energy :    -128.7277137492771999
     Conventional correlation energy:    -0.1136991945641341
     R12 correlation energy         :    -0.1401376841685865
     Total correlation energy       :    -0.2538368787327206


       Iteration no.:  8
       -----------------

       Time used in   RHS - TOTAL  :       0.07 seconds
       Norm^2 of omega1 after ccvec:        0.2672420322D-21
       Norm^2 of omega2 after ccvec:        0.6005183814D-22
       Norm^2 of Omegar12  in NXTAM:        0.1768187232D-23
 Iter.  8: Coupled cluster CC2-R12/B energy :    -128.7277137492760914
     Conventional correlation energy:    -0.1136991945624857
     R12 correlation energy         :    -0.1401376841691211
     Total correlation energy       :    -0.2538368787316068


       Iteration no.:  9
       -----------------

       Time used in   RHS - TOTAL  :       0.07 seconds
       Norm^2 of omega1 after ccvec:        0.8809837984D-26
       Norm^2 of omega2 after ccvec:        0.1612402576D-25
       Norm^2 of Omegar12  in NXTAM:        0.4120163509D-27
 Iter.  9: Coupled cluster CC2-R12/B energy :    -128.7277137492760630
     Conventional correlation energy:    -0.1136991945624857
     R12 correlation energy         :    -0.1401376841691138
     Total correlation energy       :    -0.2538368787315995


       Iteration no.: 10
       -----------------

       Time used in   RHS - TOTAL  :       0.07 seconds
       Norm^2 of omega1 after ccvec:        0.5758244520D-28
       Norm^2 of omega2 after ccvec:        0.9220678498D-28
       Norm^2 of Omegar12  in NXTAM:        0.9497719281D-29
 Iter. 10: Coupled cluster CC2-R12/B energy :    -128.7277137492760630
     Conventional correlation energy:    -0.1136991945624857
     R12 correlation energy         :    -0.1401376841691130
     Total correlation energy       :    -0.2538368787315987


 CC2-R12/B energy converged to within   0.10D-13 is         -128.727713749276
 Final 2-norm of the CC vector function:  1.22388410D-14
 R12       energy converged to within   0.10D-13 is     -0.140137684


                    +------------------------------------------+
                    ! Largest amplitudes in converged solution !
                    +------------------------------------------+



          CC_PRAM:Overall Contribution of the Different Components
          --------------------------------------------------------



          Single Excitation Contribution :               0.5443 %

          Double Excitation Contribution :              99.4557 %

          ||T1||/||T2||                  :               0.0740

          Tau1 diagnostic                :               0.0026

          Norm of Total Amplitude Vector :               0.1013


 +=============================================================================+
 | symmetry|  orbital index  |   Excitation Numbers             |   Amplitude  |
 |  Index  |   a   b   i   j |      NAI      NBJ |     NAIBJ    |              |
 +=============================================================================+
 | 3   3   |   1       1     |        3          |              |    0.004851  |
 | 5   5   |   1       1     |        4          |              |    0.004851  |
 +-----------------------------------------------------------------------------+
 | 2 2 2 2 |   1   1   1   1 |        2        2 |            3 |   -0.039082  |
 | 3 3 3 3 |   1   1   1   1 |        3        3 |            6 |   -0.039173  |
 | 5 5 5 5 |   1   1   1   1 |        4        4 |           10 |   -0.039173  |
 +=============================================================================+


          Norm of Printed Amplitude Vector :             0.0681

          Printed all single excitations greater than 0.002459

          Printed all double excitations greater than 0.033243





             +-------------------------------------------------------+
             ! Final results from the Coupled Cluster energy program !
             +-------------------------------------------------------+



            Total SCF   energy:                  -128.4738768705

            Total MP2-R12/B energy:              -128.7274586700

            Total CC2-R12/B energy:              -128.7277137493

 *******************************************************************

 Ground state energy is target 

 Ecorr =                   -128.72771374927606302663

 *******************************************************************


 CCR12 ANSATZ =   1

 CCR12 APPROX =   7

 Preparing R12 V-interm. ... ONEAUX= F
 Time used for V^albe_kl cpu:   7.2000000000000064E-002
 Time used for V^albe_kl wall:   7.2999984025955200E-002

   

 *******************************************************************
 *                                                                 *
 *<<<<<<<<<<                                             >>>>>>>>>>*
 *<<<<<<<<<< OUTPUT FROM COUPLED CLUSTER ENERGY PROGRAM  >>>>>>>>>>*
 *<<<<<<<<<<                                             >>>>>>>>>>*
 *                                                                 *
 *******************************************************************


             The Direct Coupled Cluster Energy Program
             -----------------------------------------


          Number of t1 amplitudes                 :         4
          Number of t2 amplitudes                 :        28
          Number of t2' amplitudes for R12 part   :        42
          Total number of amplitudes in ccsd      :        74

 Iter.  1: Coupled cluster RSTAR(R12)/B energy :    -128.7277137492760630
     Conventional correlation energy:    -0.1136991945624857
     R12 correlation energy         :    -0.1401376841691130
     Total correlation energy       :    -0.2538368787315987


       Iteration no.:  1
       -----------------

       Time used in   RHS - TOTAL  :       0.02 seconds
       Norm^2 of omega1 after ccvec:        0.1204744651D-28
       Norm^2 of omega2 after ccvec:        0.1288364763D-02
       Norm^2 of Omegar12  in NXTAM:        0.7110542353D-04
 Iter.  1: Coupled cluster CCSD(R12)/B energy :    -128.7213645725518916
     Conventional correlation energy:    -0.1095531994175474
     R12 correlation energy         :    -0.1379345025898841
     Total correlation energy       :    -0.2474877020074315


       Iteration no.:  2
       -----------------

       Time used in   RHS - TOTAL  :       0.02 seconds
       Norm^2 of omega1 after ccvec:        0.1512103938D-05
       Norm^2 of omega2 after ccvec:        0.1617179084D-03
       Norm^2 of Omegar12  in NXTAM:        0.2369659915D-07
 Iter.  2: Coupled cluster CCSD(R12)/B energy :    -128.7223401491208108
     Conventional correlation energy:    -0.1105157765815932
     R12 correlation energy         :    -0.1379475019947535
     Total correlation energy       :    -0.2484632785763466


       Iteration no.:  3
       -----------------

       Time used in   RHS - TOTAL  :       0.02 seconds
       Norm^2 of omega1 after ccvec:        0.1795447343D-06
       Norm^2 of omega2 after ccvec:        0.1081766164D-04
       Norm^2 of Omegar12  in NXTAM:        0.2903362276D-07
 Iter.  3: Coupled cluster CCSD(R12)/B energy :    -128.7224860040562078
     Conventional correlation energy:    -0.1106970262971174
     R12 correlation energy         :    -0.1379121072146177
     Total correlation energy       :    -0.2486091335117351


       Iteration no.:  4
       -----------------

       Time used in   RHS - TOTAL  :       0.02 seconds
       Norm^2 of omega1 after ccvec:        0.3264790200D-08
       Norm^2 of omega2 after ccvec:        0.1119896716D-06
       Norm^2 of Omegar12  in NXTAM:        0.7119435564D-09
 Iter.  4: Coupled cluster CCSD(R12)/B energy :    -128.7225067028764727
     Conventional correlation energy:    -0.1107226030869697
     R12 correlation energy         :    -0.1379072292450406
     Total correlation energy       :    -0.2486298323320103


       Iteration no.:  5
       -----------------

       Time used in   RHS - TOTAL  :       0.02 seconds
       Norm^2 of omega1 after ccvec:        0.3558767150D-10
       Norm^2 of omega2 after ccvec:        0.2792325671D-08
       Norm^2 of Omegar12  in NXTAM:        0.4254168217D-11
 Iter.  5: Coupled cluster CCSD(R12)/B energy :    -128.7225054926282155
     Conventional correlation energy:    -0.1107211595792421
     R12 correlation energy         :    -0.1379074625045001
     Total correlation energy       :    -0.2486286220837422


       Iteration no.:  6
       -----------------

       Time used in   RHS - TOTAL  :       0.02 seconds
       Norm^2 of omega1 after ccvec:        0.1344076861D-11
       Norm^2 of omega2 after ccvec:        0.5676868486D-10
       Norm^2 of Omegar12  in NXTAM:        0.4429138111D-13
 Iter.  6: Coupled cluster CCSD(R12)/B energy :    -128.7225057308966143
     Conventional correlation energy:    -0.1107213333593222
     R12 correlation energy         :    -0.1379075269928096
     Total correlation energy       :    -0.2486288603521319


       Iteration no.:  7
       -----------------

       Time used in   RHS - TOTAL  :       0.02 seconds
       Norm^2 of omega1 after ccvec:        0.2079600724D-14
       Norm^2 of omega2 after ccvec:        0.1843847989D-12
       Norm^2 of Omegar12  in NXTAM:        0.1479041497D-14
 Iter.  7: Coupled cluster CCSD(R12)/B energy :    -128.7225057320177086
     Conventional correlation energy:    -0.1107213405292669
     R12 correlation energy         :    -0.1379075209439665
     Total correlation energy       :    -0.2486288614732333


       Iteration no.:  8
       -----------------

       Time used in   RHS - TOTAL  :       0.02 seconds
       Norm^2 of omega1 after ccvec:        0.2085314275D-16
       Norm^2 of omega2 after ccvec:        0.1898174024D-14
       Norm^2 of Omegar12  in NXTAM:        0.7396112378D-17
 Iter.  8: Coupled cluster CCSD(R12)/B energy :    -128.7225057303242863
     Conventional correlation energy:    -0.1107213393364361
     R12 correlation energy         :    -0.1379075204433875
     Total correlation energy       :    -0.2486288597798237


       Iteration no.:  9
       -----------------

       Time used in   RHS - TOTAL  :       0.02 seconds
       Norm^2 of omega1 after ccvec:        0.2032073187D-17
       Norm^2 of omega2 after ccvec:        0.1826965950D-16
       Norm^2 of Omegar12  in NXTAM:        0.2673359816D-19
 Iter.  9: Coupled cluster CCSD(R12)/B energy :    -128.7225057303897700
     Conventional correlation energy:    -0.1107213393997313
     R12 correlation energy         :    -0.1379075204455589
     Total correlation energy       :    -0.2486288598452902


       Iteration no.: 10
       -----------------

       Time used in   RHS - TOTAL  :       0.02 seconds
       Norm^2 of omega1 after ccvec:        0.9726783726D-19
       Norm^2 of omega2 after ccvec:        0.1012226276D-17
       Norm^2 of Omegar12  in NXTAM:        0.9976568107D-21
 Iter. 10: Coupled cluster CCSD(R12)/B energy :    -128.7225057303994049
     Conventional correlation energy:    -0.1107213394142832
     R12 correlation energy         :    -0.1379075204406443
     Total correlation energy       :    -0.2486288598549275


       Iteration no.: 11
       -----------------

       Time used in   RHS - TOTAL  :       0.02 seconds
       Norm^2 of omega1 after ccvec:        0.1239268476D-21
       Norm^2 of omega2 after ccvec:        0.4120445631D-20
       Norm^2 of Omegar12  in NXTAM:        0.1510812316D-22
 Iter. 11: Coupled cluster CCSD(R12)/B energy :    -128.7225057304023323
     Conventional correlation energy:    -0.1107213394179212
     R12 correlation energy         :    -0.1379075204399369
     Total correlation energy       :    -0.2486288598578581


       Iteration no.: 12
       -----------------

       Time used in   RHS - TOTAL  :       0.02 seconds
       Norm^2 of omega1 after ccvec:        0.9209409671D-23
       Norm^2 of omega2 after ccvec:        0.6931578060D-22
       Norm^2 of Omegar12  in NXTAM:        0.6474819797D-24
 Iter. 12: Coupled cluster CCSD(R12)/B energy :    -128.7225057304023892
     Conventional correlation energy:    -0.1107213394180064
     R12 correlation energy         :    -0.1379075204398977
     Total correlation energy       :    -0.2486288598579041


       Iteration no.: 13
       -----------------

       Time used in   RHS - TOTAL  :       0.02 seconds
       Norm^2 of omega1 after ccvec:        0.2152715698D-25
       Norm^2 of omega2 after ccvec:        0.2128453535D-23
       Norm^2 of Omegar12  in NXTAM:        0.4062886352D-26
 Iter. 13: Coupled cluster CCSD(R12)/B energy :    -128.7225057304023039
     Conventional correlation energy:    -0.1107213394179496
     R12 correlation energy         :    -0.1379075204398889
     Total correlation energy       :    -0.2486288598578384


       Iteration no.: 14
       -----------------

       Time used in   RHS - TOTAL  :       0.02 seconds
       Norm^2 of omega1 after ccvec:        0.1358617110D-26
       Norm^2 of omega2 after ccvec:        0.4049609684D-25
       Norm^2 of Omegar12  in NXTAM:        0.8612694951D-28
 Iter. 14: Coupled cluster CCSD(R12)/B energy :    -128.7225057304023039
     Conventional correlation energy:    -0.1107213394179496
     R12 correlation energy         :    -0.1379075204398890
     Total correlation energy       :    -0.2486288598578386


 CCSD(R12)/B energy converged to within   0.10D-13 is         -128.722505730402
 Final 2-norm of the CC vector function:  2.04584247D-13
 R12       energy converged to within   0.10D-13 is     -0.137907520


                    +------------------------------------------+
                    ! Largest amplitudes in converged solution !
                    +------------------------------------------+



          CC_PRAM:Overall Contribution of the Different Components
          --------------------------------------------------------



          Single Excitation Contribution :               0.4776 %

          Double Excitation Contribution :              99.5224 %

          ||T1||/||T2||                  :               0.0693

          Tau1 diagnostic                :               0.0025

          Norm of Total Amplitude Vector :               0.1039


 +=============================================================================+
 | symmetry|  orbital index  |   Excitation Numbers             |   Amplitude  |
 |  Index  |   a   b   i   j |      NAI      NBJ |     NAIBJ    |              |
 +=============================================================================+
 | 3   3   |   1       1     |        3          |              |    0.004646  |
 | 5   5   |   1       1     |        4          |              |    0.004646  |
 +-----------------------------------------------------------------------------+
 | 2 2 2 2 |   1   1   1   1 |        2        2 |            3 |   -0.040012  |
 | 3 3 3 3 |   1   1   1   1 |        3        3 |            6 |   -0.040321  |
 | 5 5 5 5 |   1   1   1   1 |        4        4 |           10 |   -0.040321  |
 +=============================================================================+


          Norm of Printed Amplitude Vector :             0.0700

          Printed all single excitations greater than 0.002304

          Printed all double excitations greater than 0.033254





             +-------------------------------------------------------+
             ! Final results from the Coupled Cluster energy program !
             +-------------------------------------------------------+



            Total SCF   energy:                  -128.4738768705

            Total RSTAR(R12)/B energy:           -128.7277137493

            Total CCSD(R12)/B energy:            -128.7225057304

 *******************************************************************

 Ground state energy is target 

 Ecorr =                   -128.72250573040230392508

 *******************************************************************
  

 *******************************************************************************
 *******************************************************************************
 *                                                                             *
 *                                                                             *
 *                   SUMMARY OF COUPLED CLUSTER CALCULATION                    *
 *                                                                             *
 *                                                                             *
 *******************************************************************************
 *******************************************************************************

                                                                                
                                                                                
            Total SCF   energy:                  -128.4738768705                
            Total MP2-R12/B energy:              -128.7274586700                
            Total CC2-R12/B energy:              -128.7277137493                
                                                                                
                                                                                
            Total SCF   energy:                  -128.4738768705                
            Total RSTAR(R12)/B energy:           -128.7277137493                
            Total CCSD(R12)/B energy:            -128.7225057304                
  

 *******************************************************************************
 *******************************************************************************
 *                                                                             *
 *                                                                             *
 *                      END OF COUPLED CLUSTER CALCULATION                     *
 *                                                                             *
 *                                                                             *
 *******************************************************************************
 *******************************************************************************


 >>>> CPU and wall time for CC :       1.919       2.239

 
     Date and time (Linux)  : Sun Sep  8 21:08:33 2013
     Host name              : lpqlx131.ups-tlse.fr                    


                      .-------------------------------------.
                      | End of Coupled Cluster Section (CC) |
                      `-------------------------------------'

 >>>> Total CPU  time used in DALTON:   1.98 seconds
 >>>> Total wall time used in DALTON:   2.30 seconds

 
     Date and time (Linux)  : Sun Sep  8 21:08:33 2013
     Host name              : lpqlx131.ups-tlse.fr                    
