

     ************************************************************************
     *************** Dalton - An Electronic Structure Program ***************
     ************************************************************************

    This is output from DALTON (Release Dalton2013 patch 0)
   ----------------------------------------------------------------------------
    NOTE:
     
    Dalton is an experimental code for the evaluation of molecular
    properties using (MC)SCF, DFT, CI, and CC wave functions.
    The authors accept no responsibility for the performance of
    the code or for the correctness of the results.
     
    The code (in whole or part) is provided under a licence and
    is not to be reproduced for further distribution without
    the written permission of the authors or their representatives.
     
    See the home page "http://daltonprogram.org" for further information.
     
    If results obtained with this code are published,
    the appropriate citations would be both of:
     
       K. Aidas, C. Angeli, K. L. Bak, V. Bakken, R. Bast,
       L. Boman, O. Christiansen, R. Cimiraglia, S. Coriani,
       P. Dahle, E. K. Dalskov, U. Ekstroem, T. Enevoldsen,
       J. J. Eriksen, P. Ettenhuber, B. Fernandez, L. Ferrighi,
       H. Fliegl, L. Frediani, K. Hald, A. Halkier, C. Haettig,
       H. Heiberg, T. Helgaker, A. C. Hennum, H. Hettema,
       E. Hjertenaes, S. Hoest, I.-M. Hoeyvik, M. F. Iozzi,
       B. Jansik, H. J. Aa. Jensen, D. Jonsson, P. Joergensen,
       J. Kauczor, S. Kirpekar, T. Kjaergaard, W. Klopper,
       S. Knecht, R. Kobayashi, H. Koch, J. Kongsted, A. Krapp,
       K. Kristensen, A. Ligabue, O. B. Lutnaes, J. I. Melo,
       K. V. Mikkelsen, R. H. Myhre, C. Neiss, C. B. Nielsen,
       P. Norman, J. Olsen, J. M. H. Olsen, A. Osted,
       M. J. Packer, F. Pawlowski, T. B. Pedersen, P. F. Provasi,
       S. Reine, Z. Rinkevicius, T. A. Ruden, K. Ruud, V. Rybkin,
       P. Salek, C. C. M. Samson, A. Sanchez de Meras, T. Saue,
       S. P. A. Sauer, B. Schimmelpfennig, K. Sneskov,
       A. H. Steindal, K. O. Sylvester-Hvid, P. R. Taylor,
       A. M. Teale, E. I. Tellgren, D. P. Tew, A. J. Thorvaldsen,
       L. Thoegersen, O. Vahtras, M. A. Watson, D. J. D. Wilson,
       M. Ziolkowski and H. Agren.
       The Dalton quantum chemistry program system.
       WIREs Comput. Mol. Sci. 2013. doi: 10.1002/wcms.1172
    
    and
    
       Dalton, a Molecular Electronic Structure Program,
       Release DALTON2013.0 (2013), see http://daltonprogram.org
   ----------------------------------------------------------------------------

    Authors in alphabetical order (major contribution(s) in parenthesis):

  Kestutis Aidas,           Vilnius University,           Lithuania   (QM/MM)
  Celestino Angeli,         University of Ferrara,        Italy       (NEVPT2)
  Keld L. Bak,              UNI-C,                        Denmark     (AOSOPPA, non-adiabatic coupling, magnetic properties)
  Vebjoern Bakken,          University of Oslo,           Norway      (DALTON; geometry optimizer, symmetry detection)
  Radovan Bast,             KTH Stockholm                 Sweden      (DALTON installation and execution frameworks)
  Linus Boman,              NTNU,                         Norway      (Cholesky decomposition and subsystems)
  Ove Christiansen,         Aarhus University,            Denmark     (CC module)
  Renzo Cimiraglia,         University of Ferrara,        Italy       (NEVPT2)
  Sonia Coriani,            University of Trieste,        Italy       (CC module, MCD in RESPONS)
  Paal Dahle,               University of Oslo,           Norway      (Parallelization)
  Erik K. Dalskov,          UNI-C,                        Denmark     (SOPPA)
  Thomas Enevoldsen,        Univ. of Southern Denmark,    Denmark     (SOPPA)
  Janus J. Eriksen,         Aarhus University,            Denmark     (PE-MP2/SOPPA, TDA)
  Berta Fernandez,          U. of Santiago de Compostela, Spain       (doublet spin, ESR in RESPONS)
  Lara Ferrighi,            Aarhus University,            Denmark     (PCM Cubic response)
  Heike Fliegl,             University of Oslo,           Norway      (CCSD(R12))
  Luca Frediani,            UiT The Arctic U. of Norway,  Norway      (PCM)
  Bin Gao,                  UiT The Arctic U. of Norway,  Norway      (Gen1Int library)
  Christof Haettig,         Ruhr-University Bochum,       Germany     (CC module)
  Kasper Hald,              Aarhus University,            Denmark     (CC module)
  Asger Halkier,            Aarhus University,            Denmark     (CC module)
  Hanne Heiberg,            University of Oslo,           Norway      (geometry analysis, selected one-electron integrals)
  Trygve Helgaker,          University of Oslo,           Norway      (DALTON; ABACUS, ERI, DFT modules, London, and much more)
  Alf Christian Hennum,     University of Oslo,           Norway      (Parity violation)
  Hinne Hettema,            University of Auckland,       New Zealand (quadratic response in RESPONS; SIRIUS supersymmetry)
  Eirik Hjertenaes,         NTNU,                         Norway      (Cholesky decomposition)
  Maria Francesca Iozzi,    University of Oslo,           Norway      (RPA)
  Brano Jansik              Technical Univ. of Ostrava    Czech Rep.  (DFT cubic response)
  Hans Joergen Aa. Jensen,  Univ. of Southern Denmark,    Denmark     (DALTON; SIRIUS, RESPONS, ABACUS modules, London, and much more)
  Dan Jonsson,              UiT The Arctic U. of Norway,  Norway      (cubic response in RESPONS module)
  Poul Joergensen,          Aarhus University,            Denmark     (RESPONS, ABACUS, and CC modules)
  Joanna Kauczor,           Linkoeping University,        Sweden      (Complex polarization propagator (CPP) module)
  Sheela Kirpekar,          Univ. of Southern Denmark,    Denmark     (Mass-velocity & Darwin integrals)
  Wim Klopper,              KIT Karlsruhe,                Germany     (R12 code in CC, SIRIUS, and ABACUS modules)
  Stefan Knecht,            ETH Zurich,                   Switzerland (Parallel CI and MCSCF)
  Rika Kobayashi,           Australian National Univ.,    Australia   (DIIS in CC, London in MCSCF)
  Henrik Koch,              NTNU,                         Norway      (CC module, Cholesky decomposition)
  Jacob Kongsted,           Univ. of Southern Denmark,    Denmark     (Polarizable embedding, QM/MM)
  Andrea Ligabue,           University of Modena,         Italy       (CTOCD, AOSOPPA)
  Ola B. Lutnaes,           University of Oslo,           Norway      (DFT Hessian)
  Juan I. Melo,             University of Buenos Aires,   Argentina   (LRESC, Relativistic Effects on NMR Shieldings)
  Kurt V. Mikkelsen,        University of Copenhagen,     Denmark     (MC-SCRF and QM/MM)
  Rolf H. Myhre,            NTNU,                         Norway      (Cholesky, subsystems and ECC2)
  Christian Neiss,          Univ. Erlangen-Nuernberg,     Germany     (CCSD(R12))
  Christian B. Nielsen,     University of Copenhagen,     Denmark     (QM/MM)
  Patrick Norman,           Linkoeping University,        Sweden      (Cubic response and complex response in RESPONS)
  Jeppe Olsen,              Aarhus University,            Denmark     (SIRIUS CI/density modules)
  Jogvan Magnus H. Olsen,   Univ. of Southern Denmark,    Denmark     (Polarizable embedding, PE library, QM/MM)
  Anders Osted,             Copenhagen University,        Denmark     (QM/MM)
  Martin J. Packer,         University of Sheffield,      UK          (SOPPA)
  Filip Pawlowski,          Kazimierz Wielki University   Poland      (CC3)
  Thomas B. Pedersen,       University of Oslo,           Norway      (Cholesky decomposition)
  Patricio F. Provasi,      University of Northeastern,   Argentina   (Analysis of coupling constants in localized orbitals)
  Zilvinas Rinkevicius,     KTH Stockholm,                Sweden      (open-shell DFT, ESR)
  Elias Rudberg,            KTH Stockholm,                Sweden      (DFT grid and basis info)
  Torgeir A. Ruden,         University of Oslo,           Norway      (Numerical derivatives in ABACUS)
  Kenneth Ruud,             UiT The Arctic U. of Norway,  Norway      (DALTON; ABACUS magnetic properties and  much more)
  Pawel Salek,              KTH Stockholm,                Sweden      (DALTON; DFT code)
  Claire C. M. Samson       University of Karlsruhe       Germany     (Boys localization, r12 integrals in ERI)
  Alfredo Sanchez de Meras, University of Valencia,       Spain       (CC module, Cholesky decomposition)
  Trond Saue,               Paul Sabatier University,     France      (direct Fock matrix construction)
  Stephan P. A. Sauer,      University of Copenhagen,     Denmark     (SOPPA(CCSD), SOPPA prop., AOSOPPA, vibrational g-factors)
  Bernd Schimmelpfennig,    Forschungszentrum Karlsruhe,  Germany     (AMFI module)
  Kristian Sneskov,         Aarhus University,            Denmark     (QM/MM, PE-CC)
  Arnfinn H. Steindal,      UiT The Arctic U. of Norway,  Norway      (parallel QM/MM)
  K. O. Sylvester-Hvid,     University of Copenhagen,     Denmark     (MC-SCRF)
  Peter R. Taylor,          VLSCI/Univ. of Melbourne,     Australia   (Symmetry handling ABACUS, integral transformation)
  Andrew M. Teale,          University of Nottingham,     England     (DFT-AC, DFT-D)
  David P. Tew,             University of Bristol,        England     (CCSD(R12))
  Olav Vahtras,             KTH Stockholm,                Sweden      (triplet response, spin-orbit, ESR, TDDFT, open-shell DFT)
  David J. Wilson,          La Trobe University,          Australia   (DFT Hessian and DFT magnetizabilities)
  Hans Agren,               KTH Stockholm,                Sweden      (SIRIUS module, RESPONS, MC-SCRF solvation model)
 --------------------------------------------------------------------------------

     Date and time (Linux)  : Sun Sep  8 21:10:10 2013
     Host name              : lpqlx131.ups-tlse.fr                    

 * Work memory size             :    64000000 =  488.28 megabytes.

 * Directories for basis set searches:
   1) /home/bast/DALTON-2013.0-Source/build/test_cc2_r12_aux_ch4_sym_f12
   2) /home/bast/DALTON-2013.0-Source/build/basis


Compilation information
-----------------------

 Who compiled             | bast
 Host                     | lpqlx131.ups-tlse.fr
 System                   | Linux-3.8.5-201.fc18.x86_64
 CMake generator          | Unix Makefiles
 Processor                | x86_64
 64-bit integers          | OFF
 MPI                      | OFF
 Fortran compiler         | /usr/bin/gfortran
 Fortran compiler version | GNU Fortran (GCC) 4.7.2 20121109 (Red Hat 4.7.2-8)
 C compiler               | /usr/bin/gcc
 C compiler version       | gcc (GCC) 4.7.2 20121109 (Red Hat 4.7.2-8)
 C++ compiler             | /usr/bin/g++
 C++ compiler version     | g++ (GCC) 4.7.2 20121109 (Red Hat 4.7.2-8)
 Static linking           | OFF
 Last Git revision        | f34203295a86316e27f9e7b44f9b6769c4a046c0
 Configuration time       | 2013-09-08 20:31:27.952056


   Content of the .dal input file
 ----------------------------------

**DALTON INPUT                                    
.RUN WAVE FUNCTION                                
.DIRECT                                           
*MOLBAS                                           
.R12AUX                                           
**INTEGRALS                                       
!.R12                                             
.R12GTG                                           
 1                                                
 1.0 0.0                                          
**WAVE FUNCTION                                   
.CC                                               
*ORBITAL INPUT                                    
.NOSUPSYM                                         
.MOSTART                                          
 H1DIAG                                           
*SCF IN                                           
.THRESH                                           
 1.0D-10                                          
*CC INPUT                                         
.CC2                                              
.PRINT                                            
 5                                                
.FROIMP                                           
 1 0 0 0                                          
 0 0 0 0                                          
.THRENR                                           
 1.0D-10                                          
.MAX IT                                           
 300                                              
*CCEXCI                                           
.THREXC                                           
 1.D-8                                            
.NCCEXCI                                          
 4 4 4 4                                          
*R12 INPUT                                        
.NO HYB                                           
.CC2                                              
 1A                                               
**END OF DALTON INPUT                             


   Content of the .mol file
 ----------------------------

BASIS                                                                          
6-311G** 6-311++G(3df,3pd)                                                     
CH4: CC2-R12/Ansatz1 excitation energies using symmetry                        
                                                                               
    4    2 XY XZ                                                               
 1      6.    1                                                                
C      0.000000000000000   0.000000000000000   0.000000000000000       *       
 1      1.    1                                                                
H      1.276731000000000   1.276731000000000   1.276731000000000       *       
 2      6.    1                                                                
C      0.000000000000000   0.000000000000000   0.000000000000000       *       
 2      1.    1                                                                
H      1.276731000000000   1.276731000000000   1.276731000000000       *       


       *******************************************************************
       *********** Output from DALTON general input processing ***********
       *******************************************************************

 --------------------------------------------------------------------------------
   Overall default print level:    0
   Print level for DALTON.STAT:    1

    AO-direct calculation (in sections where implemented)
    HERMIT 1- and 2-electron integral sections will be executed
    "Old" integral transformation used (limited to max 255 basis functions)
    Wave function sections will be executed (SIRIUS module)
 --------------------------------------------------------------------------------


 Changes of defaults for *MOLBAS:
 --------------------------------

 Print level in molecule setup (READIN):    1

 .R12AUX: Reading auxiliary basis sets from .mol file for R12



   ****************************************************************************
   *************** Output of molecule and basis set information ***************
   ****************************************************************************


    The two title cards from your ".mol" input:
    ------------------------------------------------------------------------
 1: CH4: CC2-R12/Ansatz1 excitation energies using symmetry                 
 2:                                                                         
    ------------------------------------------------------------------------

  Atomic type no.    1
  --------------------
  Nuclear charge:   6.00000
  Number of symmetry independent centers:    1
  Number of basis sets to read;    1
  Basis set file used for this atomic type with Z =   6 :
     "/home/bast/DALTON-2013.0-Source/build/basis/6-311G**"

  Info about the basis set file: your basis has no documentation.
  Basis set: 6-311G**                                                                        

  Atomic type no.    2
  --------------------
  Nuclear charge:   1.00000
  Number of symmetry independent centers:    1
  Number of basis sets to read;    1
  Basis set file used for this atomic type with Z =   1 :
     "/home/bast/DALTON-2013.0-Source/build/basis/6-311G**"

  Info about the basis set file: your basis has no documentation.
  Basis set: 6-311G**                                                                        

  Atomic type no.    3
  --------------------
  Nuclear charge:   6.00000
  Number of symmetry independent centers:    1
  This is an auxiliary basis for R12, MBSI:    2
  Basis set file used for this atomic type with Z =   6 :
     "/home/bast/DALTON-2013.0-Source/build/basis/6-311++G(3df,3pd)"

  Info about the basis set file: your basis has no documentation.
  Basis set: 6-311++G(3df,3pd)                                                               

  Atomic type no.    4
  --------------------
  Nuclear charge:   1.00000
  Number of symmetry independent centers:    1
  This is an auxiliary basis for R12, MBSI:    2
  Basis set file used for this atomic type with Z =   1 :
     "/home/bast/DALTON-2013.0-Source/build/basis/6-311++G(3df,3pd)"

  Info about the basis set file: your basis has no documentation.
  Basis set: 6-311++G(3df,3pd)                                                               


                         SYMGRP: Point group information
                         -------------------------------

Point group: D2 

   * The point group was generated by:

      Rotation about the z-axis
      Rotation about the y-axis

   * Group multiplication table

        |  E   C2z  C2y  C2x
   -----+--------------------
     E  |  E   C2z  C2y  C2x
    C2z | C2z   E   C2x  C2y
    C2y | C2y  C2x   E   C2z
    C2x | C2x  C2y  C2z   E 

   * Character table

        |  E   C2z  C2y  C2x
   -----+--------------------
    A   |   1    1    1    1
    B2  |   1   -1    1   -1
    B1  |   1    1   -1   -1
    B3  |   1   -1   -1    1

   * Direct product table

        | A    B2   B1   B3 
   -----+--------------------
    A   | A    B2   B1   B3 
    B2  | B2   A    B3   B1 
    B1  | B1   B3   A    B2 
    B3  | B3   B1   B2   A  


                                 Isotopic Masses
                                 ---------------

                           C          12.000000
                           H   _1      1.007825
                           H   _2      1.007825
                           H   _3      1.007825
                           H   _4      1.007825
                           C           0.000000
                           H   _1      0.000000
                           H   _2      0.000000
                           H   _3      0.000000
                           H   _4      0.000000

                       Total mass:    16.031300 amu
                       Natural abundance:   0.000 %

 Center-of-mass coordinates (a.u.):    0.000000    0.000000    0.000000


  Atoms and basis sets
  --------------------

  Number of atom types :    4
  Total number of atoms:   10

  Basis set 1 refers to the basis "6-311G**" from the basis set library.

  Basis set 2 refers to the basis "6-311++G(3df,3pd)" from the basis set library.

  label  basis   atoms  charge   prim  cont     basis
  ------------------------------------------------------------------------------
  C        1       1    6.0000    31    18      [11s5p1d|4s3p1d]                                   
  H        1       4    1.0000     8     6      [5s1p|3s1p]                                        
  C        2       1    0.0000    52    39      [12s6p3d1f|5s4p3d1f]                               
  H        2       4    0.0000    20    18      [6s3p1d|4s3p1d]                                    
  ------------------------------------------------------------------------------
  total:          10   10.0000   195   153
  ------------------------------------------------------------------------------
  Spherical harmonic basis used.

  Threshold for neglecting AO integrals:  1.00D-12


  Cartesian Coordinates (a.u.)
  ----------------------------

  Total number of coordinates:   30
  C       :     1  x   0.0000000000    2  y   0.0000000000    3  z   0.0000000000
  H   / 1 :     4  x   1.2767310000    5  y   1.2767310000    6  z   1.2767310000
  H   / 2 :     7  x  -1.2767310000    8  y  -1.2767310000    9  z   1.2767310000
  H   / 3 :    10  x  -1.2767310000   11  y   1.2767310000   12  z  -1.2767310000
  H   / 4 :    13  x   1.2767310000   14  y  -1.2767310000   15  z  -1.2767310000
  C       :    16  x   0.0000000000   17  y   0.0000000000   18  z   0.0000000000
  H   / 1 :    19  x   1.2767310000   20  y   1.2767310000   21  z   1.2767310000
  H   / 2 :    22  x  -1.2767310000   23  y  -1.2767310000   24  z   1.2767310000
  H   / 3 :    25  x  -1.2767310000   26  y   1.2767310000   27  z  -1.2767310000
  H   / 4 :    28  x   1.2767310000   29  y  -1.2767310000   30  z  -1.2767310000


  Symmetry Coordinates
  --------------------

  Number of coordinates in each symmetry:     6    8    8    8

  Symmetry  A   ( 1)

    1   H     x    [  4  -    7  -   10  +   13 ]/4
    2   H     y    [  5  -    8  +   11  -   14 ]/4
    3   H     z    [  6  +    9  -   12  -   15 ]/4
    4   H     x    [ 19  -   22  -   25  +   28 ]/4
    5   H     y    [ 20  -   23  +   26  -   29 ]/4
    6   H     z    [ 21  +   24  -   27  -   30 ]/4

  Symmetry  B2  ( 2)

    7   C     y    2
    8   H     x    [  4  +    7  -   10  -   13 ]/4
    9   H     y    [  5  +    8  +   11  +   14 ]/4
   10   H     z    [  6  -    9  -   12  +   15 ]/4
   11   C     y   17
   12   H     x    [ 19  +   22  -   25  -   28 ]/4
   13   H     y    [ 20  +   23  +   26  +   29 ]/4
   14   H     z    [ 21  -   24  -   27  +   30 ]/4

  Symmetry  B1  ( 3)

   15   C     z    3
   16   H     x    [  4  -    7  +   10  -   13 ]/4
   17   H     y    [  5  -    8  -   11  +   14 ]/4
   18   H     z    [  6  +    9  +   12  +   15 ]/4
   19   C     z   18
   20   H     x    [ 19  -   22  +   25  -   28 ]/4
   21   H     y    [ 20  -   23  -   26  +   29 ]/4
   22   H     z    [ 21  +   24  +   27  +   30 ]/4

  Symmetry  B3  ( 4)

   23   C     x    1
   24   H     x    [  4  +    7  +   10  +   13 ]/4
   25   H     y    [  5  +    8  -   11  -   14 ]/4
   26   H     z    [  6  -    9  +   12  -   15 ]/4
   27   C     x   16
   28   H     x    [ 19  +   22  +   25  +   28 ]/4
   29   H     y    [ 20  +   23  -   26  -   29 ]/4
   30   H     z    [ 21  -   24  +   27  -   30 ]/4


   Interatomic separations (in Angstrom):
   --------------------------------------

            C           H   _1      H   _2      H   _3      H   _4      C     
            ------      ------      ------      ------      ------      ------
 C     :    0.000000
 H   _1:    1.170203    0.000000
 H   _2:    1.170203    1.910933    0.000000
 H   _3:    1.170203    1.910933    1.910933    0.000000
 H   _4:    1.170203    1.910933    1.910933    1.910933    0.000000
 C     :    0.000000    1.170203    1.170203    1.170203    1.170203    0.000000
 H   _1:    1.170203    0.000000    1.910933    1.910933    1.910933    1.170203
 H   _2:    1.170203    1.910933    0.000000    1.910933    1.910933    1.170203
 H   _3:    1.170203    1.910933    1.910933    0.000000    1.910933    1.170203
 H   _4:    1.170203    1.910933    1.910933    1.910933    0.000000    1.170203

            H   _1      H   _2      H   _3      H   _4
            ------      ------      ------      ------
 H   _1:    0.000000
 H   _2:    1.910933    0.000000
 H   _3:    1.910933    1.910933    0.000000
 H   _4:    1.910933    1.910933    1.910933    0.000000


  Max    interatomic separation is    1.9109 Angstrom (    3.6111 Bohr)
  between atoms    3 and    2, "H   _2" and "H   _1".

  Min HX interatomic separation is    0.0000 Angstrom (    0.0000 Bohr)

  Min YX interatomic separation is    0.0000 Angstrom (    0.0000 Bohr)

WARNING: Number of short HX and YX bond lengths:    4    1
WARNING: If not intentional, maybe your coordinates were in Angstrom,
WARNING: but "Angstrom" was not specified in .mol file


  Bond distances (Angstrom):
  --------------------------

                  atom 1     atom 2       distance
                  ------     ------       --------
  bond distance:  H   _1     C            1.170203
  bond distance:  H   _2     C            1.170203
  bond distance:  H   _3     C            1.170203
  bond distance:  H   _4     C            1.170203


  Bond angles (degrees):
  ----------------------

                  atom 1     atom 2     atom 3         angle
                  ------     ------     ------         -----
  bond angle:     H   _1     C          H   _2       109.471
  bond angle:     H   _1     C          H   _3       109.471
  bond angle:     H   _1     C          H   _4       109.471
  bond angle:     H   _2     C          H   _3       109.471
  bond angle:     H   _2     C          H   _4       109.471
  bond angle:     H   _3     C          H   _4       109.471




 Principal moments of inertia (u*A**2) and principal axes
 --------------------------------------------------------

   IA       3.680240          1.000000    0.000000    0.000000
   IB       3.680240          0.000000    1.000000    0.000000
   IC       3.680240          0.000000    0.000000    1.000000


 Rotational constants
 --------------------

               A                   B                   C

         137322.2814         137322.2814         137322.2814 MHz
            4.580578            4.580578            4.580578 cm-1


@  Nuclear repulsion energy :   12.514560078913 Hartree


  Symmetry Orbitals
  -----------------

  Number of orbitals in each symmetry:          42   37   37   37

  Number of main orbitals in each symmetry:          12   10   10   10
  Number of auxiliary functions in each symmetry:    30   27   27   27


  Symmetry  A  ( 1)

    1     C    M   1s         1
    2     C    M   1s         2
    3     C    M   1s         3
    4     C    M   1s         4
    5     C    M   3d0       16
    6     C    M   3d2+      18
    7     H    M   1s        19 +   20 +   21 +   22
    8     H    M   1s        23 +   24 +   25 +   26
    9     H    M   1s        27 +   28 +   29 +   30
   10     H    M   2px       31 -   32 -   33 +   34
   11     H    M   2py       35 -   36 +   37 -   38
   12     H    M   2pz       39 +   40 -   41 -   42
   13     C    A   1s        43
   14     C    A   1s        44
   15     C    A   1s        45
   16     C    A   1s        46
   17     C    A   1s        47
   18     C    A   3d0       62
   19     C    A   3d2+      64
   20     C    A   3d0       67
   21     C    A   3d2+      69
   22     C    A   3d0       72
   23     C    A   3d2+      74
   24     C    A   4f2-      76
   25     H    A   1s        82 +   83 +   84 +   85
   26     H    A   1s        86 +   87 +   88 +   89
   27     H    A   1s        90 +   91 +   92 +   93
   28     H    A   1s        94 +   95 +   96 +   97
   29     H    A   2px       98 -   99 -  100 +  101
   30     H    A   2py      102 -  103 +  104 -  105
   31     H    A   2pz      106 +  107 -  108 -  109
   32     H    A   2px      110 -  111 -  112 +  113
   33     H    A   2py      114 -  115 +  116 -  117
   34     H    A   2pz      118 +  119 -  120 -  121
   35     H    A   2px      122 -  123 -  124 +  125
   36     H    A   2py      126 -  127 +  128 -  129
   37     H    A   2pz      130 +  131 -  132 -  133
   38     H    A   3d2-     134 +  135 -  136 -  137
   39     H    A   3d1-     138 -  139 -  140 +  141
   40     H    A   3d0      142 +  143 +  144 +  145
   41     H    A   3d1+     146 -  147 +  148 -  149
   42     H    A   3d2+     150 +  151 +  152 +  153


  Symmetry  B2 ( 2)

   43     C    M   2py        6
   44     C    M   2py        9
   45     C    M   2py       12
   46     C    M   3d1+      17
   47     H    M   1s        19 -   20 +   21 -   22
   48     H    M   1s        23 -   24 +   25 -   26
   49     H    M   1s        27 -   28 +   29 -   30
   50     H    M   2px       31 +   32 -   33 -   34
   51     H    M   2py       35 +   36 +   37 +   38
   52     H    M   2pz       39 -   40 -   41 +   42
   53     C    A   2py       49
   54     C    A   2py       52
   55     C    A   2py       55
   56     C    A   2py       58
   57     C    A   3d1+      63
   58     C    A   3d1+      68
   59     C    A   3d1+      73
   60     C    A   4f3-      75
   61     C    A   4f1-      77
   62     H    A   1s        82 -   83 +   84 -   85
   63     H    A   1s        86 -   87 +   88 -   89
   64     H    A   1s        90 -   91 +   92 -   93
   65     H    A   1s        94 -   95 +   96 -   97
   66     H    A   2px       98 +   99 -  100 -  101
   67     H    A   2py      102 +  103 +  104 +  105
   68     H    A   2pz      106 -  107 -  108 +  109
   69     H    A   2px      110 +  111 -  112 -  113
   70     H    A   2py      114 +  115 +  116 +  117
   71     H    A   2pz      118 -  119 -  120 +  121
   72     H    A   2px      122 +  123 -  124 -  125
   73     H    A   2py      126 +  127 +  128 +  129
   74     H    A   2pz      130 -  131 -  132 +  133
   75     H    A   3d2-     134 -  135 -  136 +  137
   76     H    A   3d1-     138 +  139 -  140 -  141
   77     H    A   3d0      142 -  143 +  144 -  145
   78     H    A   3d1+     146 +  147 +  148 +  149
   79     H    A   3d2+     150 -  151 +  152 -  153


  Symmetry  B1 ( 3)

   80     C    M   2pz        7
   81     C    M   2pz       10
   82     C    M   2pz       13
   83     C    M   3d2-      14
   84     H    M   1s        19 +   20 -   21 -   22
   85     H    M   1s        23 +   24 -   25 -   26
   86     H    M   1s        27 +   28 -   29 -   30
   87     H    M   2px       31 -   32 +   33 -   34
   88     H    M   2py       35 -   36 -   37 +   38
   89     H    M   2pz       39 +   40 +   41 +   42
   90     C    A   2pz       50
   91     C    A   2pz       53
   92     C    A   2pz       56
   93     C    A   2pz       59
   94     C    A   3d2-      60
   95     C    A   3d2-      65
   96     C    A   3d2-      70
   97     C    A   4f0       78
   98     C    A   4f2+      80
   99     H    A   1s        82 +   83 -   84 -   85
  100     H    A   1s        86 +   87 -   88 -   89
  101     H    A   1s        90 +   91 -   92 -   93
  102     H    A   1s        94 +   95 -   96 -   97
  103     H    A   2px       98 -   99 +  100 -  101
  104     H    A   2py      102 -  103 -  104 +  105
  105     H    A   2pz      106 +  107 +  108 +  109
  106     H    A   2px      110 -  111 +  112 -  113
  107     H    A   2py      114 -  115 -  116 +  117
  108     H    A   2pz      118 +  119 +  120 +  121
  109     H    A   2px      122 -  123 +  124 -  125
  110     H    A   2py      126 -  127 -  128 +  129
  111     H    A   2pz      130 +  131 +  132 +  133
  112     H    A   3d2-     134 +  135 +  136 +  137
  113     H    A   3d1-     138 -  139 +  140 -  141
  114     H    A   3d0      142 +  143 -  144 -  145
  115     H    A   3d1+     146 -  147 -  148 +  149
  116     H    A   3d2+     150 +  151 -  152 -  153


  Symmetry  B3 ( 4)

  117     C    M   2px        5
  118     C    M   2px        8
  119     C    M   2px       11
  120     C    M   3d1-      15
  121     H    M   1s        19 -   20 -   21 +   22
  122     H    M   1s        23 -   24 -   25 +   26
  123     H    M   1s        27 -   28 -   29 +   30
  124     H    M   2px       31 +   32 +   33 +   34
  125     H    M   2py       35 +   36 -   37 -   38
  126     H    M   2pz       39 -   40 +   41 -   42
  127     C    A   2px       48
  128     C    A   2px       51
  129     C    A   2px       54
  130     C    A   2px       57
  131     C    A   3d1-      61
  132     C    A   3d1-      66
  133     C    A   3d1-      71
  134     C    A   4f1+      79
  135     C    A   4f3+      81
  136     H    A   1s        82 -   83 -   84 +   85
  137     H    A   1s        86 -   87 -   88 +   89
  138     H    A   1s        90 -   91 -   92 +   93
  139     H    A   1s        94 -   95 -   96 +   97
  140     H    A   2px       98 +   99 +  100 +  101
  141     H    A   2py      102 +  103 -  104 -  105
  142     H    A   2pz      106 -  107 +  108 -  109
  143     H    A   2px      110 +  111 +  112 +  113
  144     H    A   2py      114 +  115 -  116 -  117
  145     H    A   2pz      118 -  119 +  120 -  121
  146     H    A   2px      122 +  123 +  124 +  125
  147     H    A   2py      126 +  127 -  128 -  129
  148     H    A   2pz      130 -  131 +  132 -  133
  149     H    A   3d2-     134 -  135 +  136 -  137
  150     H    A   3d1-     138 +  139 +  140 +  141
  151     H    A   3d0      142 -  143 -  144 +  145
  152     H    A   3d1+     146 +  147 -  148 -  149
  153     H    A   3d2+     150 -  151 -  152 +  153

  Number of floating/multiple basis set orbitals :    5

  Symmetries of electric field:  B3 (4)  B2 (2)  B1 (3)

  Symmetries of magnetic field:  B3 (4)  B2 (2)  B1 (3)


                     .---------------------------------------.
                     | Starting in Integral Section (HERMIT) |
                     `---------------------------------------'



    *************************************************************************
    ****************** Output from HERMIT input processing ******************
    *************************************************************************


 Default print level:        1

 * Nuclear model: Point charge

 Calculation of one-electron Hamiltonian integrals.

 The following one-electron property integrals are calculated as requested:
          - overlap integrals
          - Cartesian multipole moment integrals of orders 2 and lower

 Center of mass  (bohr):      0.000000000000      0.000000000000      0.000000000000
 Operator center (bohr):      0.000000000000      0.000000000000      0.000000000000
 Gauge origin    (bohr):      0.000000000000      0.000000000000      0.000000000000
 Dipole origin   (bohr):      0.000000000000      0.000000000000      0.000000000000


     ************************************************************************
     ************************** Output from HERINT **************************
     ************************************************************************

 >>>> Total CPU  time used in HERMIT:   0.09 seconds
 >>>> Total wall time used in HERMIT:   0.09 seconds


                        .----------------------------------.
                        | End of Integral Section (HERMIT) |
                        `----------------------------------'



                   .--------------------------------------------.
                   | Starting in Wave Function Section (SIRIUS) |
                   `--------------------------------------------'

 NCCEXCI for singlet:           4           4           4           4

 >>>> Detected R12 input:
 Direct Fock matrix formation switched on!
 Scale factors for CC excitations manifolds:
 for bra states (projection manifold):   1.0000000000000000     
 for ket states (operator manifold)  :   1.0000000000000000     

 **********************************************************************
 *SIRIUS* a direct, restricted step, second order MCSCF program       *
 **********************************************************************

 
     Date and time (Linux)  : Sun Sep  8 21:10:10 2013
     Host name              : lpqlx131.ups-tlse.fr                    

 Title lines from ".mol" input file:
     CH4: CC2-R12/Ansatz1 excitation energies using symmetry                 
                                                                             

 Print level on unit LUPRI =   2 is   0
 Print level on unit LUW4  =   2 is   5

@    (Integral direct) CC calculation.

@    This is a combination run starting with
@              a restricted, closed shell Hartree-Fock calculation

 Fock matrices are calculated directly without use of integrals on disk.

 Initial molecular orbitals are obtained according to
 ".MOSTART H1DIAG" input option

     Wave function specification
     ============================

     For the specification of the Coupled Cluster: see later.

@    For the wave function of type :      >>> CC <<<
@    Number of closed shell electrons          10
@    Number of electrons in active shells       0
@    Total charge of the molecule               0

@    Spin multiplicity and 2 M_S                1         0
     Total number of symmetries                 4
@    Reference state symmetry                   1

     Orbital specifications
     ======================
     Abelian symmetry species          All |    1    2    3    4
                                       --- |  ---  ---  ---  ---
     Total number of orbitals           42 |   12   10   10   10
     Number of basis functions         153 |   42   37   37   37

      ** Automatic occupation of RHF orbitals **

      -- Initial occupation of symmetries is determined from diagonal of H1 matrix.           
      -- Initial occupation of symmetries is :
@    Occupied SCF orbitals               5 |    2    1    1    1

     Maximum number of Fock   iterations      0
     Maximum number of DIIS   iterations     60
     Maximum number of QC-SCF iterations     60
     Threshold for SCF convergence     1.00D-10


 Changes of defaults for CC:
 ---------------------------


 -This is a direct atomic orbital integral based
  calculation for coupled cluster wave function

 -Implicit frozen core calculation
 -Excitation energies calculated
  


 >>>>> DIIS optimization of Hartree-Fock <<<<<

 C1-DIIS algorithm; max error vectors =   10

 Automatic occupation of symmetries with  10 electrons.

 Iter     Total energy    Error norm  Delta(E)    SCF occupation
 -----------------------------------------------------------------------------
   1  Screening settings (-IFTHRS, DIFDEN)   -7    T
@  1  -26.9208461562       1.74D+01  -2.69D+01     2   1   1   1
      Virial theorem: -V/T =      1.397424
@      MULPOP C      -3.96; H   _1  0.99; H   _2  0.99; H   _3  0.99; H   _4  0.99; 
 -----------------------------------------------------------------------------
   2  Screening settings (-IFTHRS, DIFDEN)   -7    T
@  2  -34.5740142129       5.98D+00  -7.65D+00     2   1   1   1
      Virial theorem: -V/T =      2.092202
@      MULPOP C       7.24; H   _1 -1.81; H   _2 -1.81; H   _3 -1.81; H   _4 -1.81; 
 -----------------------------------------------------------------------------
   3  Screening settings (-IFTHRS, DIFDEN)   -7    T
@  3  -38.7812870349       4.97D+00  -4.21D+00     2   1   1   1
      Virial theorem: -V/T =      1.865551
@      MULPOP C      -2.05; H   _1  0.51; H   _2  0.51; H   _3  0.51; H   _4  0.51; 
 -----------------------------------------------------------------------------
   4  Screening settings (-IFTHRS, DIFDEN)   -7    T
@  4  -40.0920858983       1.21D+00  -1.31D+00     2   1   1   1
      Virial theorem: -V/T =      1.982551
@      MULPOP C      -0.78; H   _1  0.19; H   _2  0.19; H   _3  0.19; H   _4  0.19; 
 -----------------------------------------------------------------------------
   5  Screening settings (-IFTHRS, DIFDEN)   -7    T
@  5  -40.1914985533       6.81D-02  -9.94D-02     2   1   1   1
      Virial theorem: -V/T =      2.012916
@      MULPOP C      -0.36; H   _1  0.09; H   _2  0.09; H   _3  0.09; H   _4  0.09; 
 -----------------------------------------------------------------------------
   6  Screening settings (-IFTHRS, DIFDEN)   -9    F
@  6  -40.1917302493       2.39D-02  -2.32D-04     2   1   1   1
      Virial theorem: -V/T =      2.011954
@      MULPOP C      -0.38; H   _1  0.09; H   _2  0.09; H   _3  0.09; H   _4  0.09; 
 -----------------------------------------------------------------------------
   7  Screening settings (-IFTHRS, DIFDEN)   -9    T
@  7  -40.1917714460       1.96D-03  -4.12D-05     2   1   1   1
      Virial theorem: -V/T =      2.011289
@      MULPOP C      -0.38; H   _1  0.10; H   _2  0.10; H   _3  0.10; H   _4  0.10; 
 -----------------------------------------------------------------------------
   8  Screening settings (-IFTHRS, DIFDEN)  -11    F
@  8  -40.1917720842       2.24D-04  -6.38D-07     2   1   1   1
      Virial theorem: -V/T =      2.011253
@      MULPOP C      -0.38; H   _1  0.10; H   _2  0.10; H   _3  0.10; H   _4  0.10; 
 -----------------------------------------------------------------------------
   9  Screening settings (-IFTHRS, DIFDEN)  -11    T
@  9  -40.1917720926       2.77D-05  -8.32D-09     2   1   1   1
      Virial theorem: -V/T =      2.011254
@      MULPOP C      -0.38; H   _1  0.09; H   _2  0.09; H   _3  0.09; H   _4  0.09; 
 -----------------------------------------------------------------------------
  10  Screening settings (-IFTHRS, DIFDEN)  -13    F
@ 10  -40.1917720926       1.91D-06  -7.01D-11     2   1   1   1
      Virial theorem: -V/T =      2.011255
@      MULPOP C      -0.38; H   _1  0.09; H   _2  0.09; H   _3  0.09; H   _4  0.09; 
 -----------------------------------------------------------------------------
  11  Screening settings (-IFTHRS, DIFDEN)  -16    F
@ 11  -40.1917720926       2.04D-07  -3.27D-13     2   1   1   1
      Virial theorem: -V/T =      2.011255
@      MULPOP C      -0.38; H   _1  0.09; H   _2  0.09; H   _3  0.09; H   _4  0.09; 
 -----------------------------------------------------------------------------
  12  Screening settings (-IFTHRS, DIFDEN)  -16    T
@ 12  -40.1917720926       3.20D-08   0.00D+00     2   1   1   1
      Virial theorem: -V/T =      2.011255
@      MULPOP C      -0.38; H   _1  0.09; H   _2  0.09; H   _3  0.09; H   _4  0.09; 
 -----------------------------------------------------------------------------
  13  Screening settings (-IFTHRS, DIFDEN)  -16    T
@ 13  -40.1917720926       6.94D-10   0.00D+00     2   1   1   1
      Virial theorem: -V/T =      2.011255
@      MULPOP C      -0.38; H   _1  0.09; H   _2  0.09; H   _3  0.09; H   _4  0.09; 
 -----------------------------------------------------------------------------
  14  Screening settings (-IFTHRS, DIFDEN)  -16    T
@ 14  -40.1917720926       1.71D-11   1.42D-14     2   1   1   1

@ *** DIIS converged in  14 iterations !
@     Converged SCF energy, gradient:    -40.191772092640    1.71D-11
    - total time used in SIRFCK :              0.00 seconds


 *** SCF orbital energy analysis ***

 Only the five lowest virtual orbital energies printed in each symmetry.

 Number of electrons :   10
 Orbital occupations :    2    1    1    1

 Sym       Hartree-Fock orbital energies

  1    -11.24614520    -0.91114126     0.15222200     0.67112701     0.94587496
         1.19833119     1.19833119

  2     -0.52478334     0.22923252     0.41945542     0.77679176     1.66708634
         1.69778322

  3     -0.52478334     0.22923252     0.41945542     0.77679176     1.66708634
         1.69778322

  4     -0.52478334     0.22923252     0.41945542     0.77679176     1.66708634
         1.69778322

    E(LUMO) :     0.15222200 au (symmetry 1)
  - E(HOMO) :    -0.52478334 au (symmetry 3)
  ------------------------------------------
    gap     :     0.67700534 au

 >>> Writing SIRIFC interface file <<<

  Canonical primary and secondary basis sets
  ISYM       NORB1 MBAS1       NORB2 MBAS2
     1          12    12          30    30
     2          10    10          27    27
     3          10    10          27    27
     4          10    10          27    27

 Computation of exchange matrix done [6]

 AUXILIARY BASIS LOW EIGENVALUES
 ISYM         EIGENVALUE
   1      0.000095592510
   2      0.000055284124
   3      0.000055284124
   4      0.000055284124
 >>>  Time used in R12AUX     is   0.91 seconds

 >>>> CPU and wall time for SCF :       1.439       1.453


                       .-----------------------------------.
                       | >>> Final results from SIRIUS <<< |
                       `-----------------------------------'


@    Spin multiplicity:           1
@    Spatial symmetry:            1
@    Total charge of molecule:    0

@    Final HF energy:             -40.191772092640                 
@    Nuclear repulsion:            12.514560078913
@    Electronic energy:           -52.706332171553

@    Final gradient norm:           0.000000000017

 
     Date and time (Linux)  : Sun Sep  8 21:10:11 2013
     Host name              : lpqlx131.ups-tlse.fr                    

 (Only coefficients >0.0100 are printed.)

 Molecular orbitals for symmetry species  1
 ------------------------------------------

    Orbital         1        2        3        4
   1 C   :1s     0.5636  -0.1015   0.0530   0.0703
   2 C   :1s     0.4666  -0.1682   0.0852   0.1326
   3 C   :1s     0.0034   0.4331  -0.0983  -0.4555
   4 C   :1s    -0.0008   0.2981  -1.9759  -1.0416
   7 H   :1s     0.0003   0.0770   0.0184   0.0634
   8 H   :1s     0.0002   0.1094  -0.0089   0.9859
   9 H   :1s     0.0001   0.0088   0.7492  -0.3081
  10 H   :2px   -0.0001  -0.0110  -0.0006   0.0199
  11 H   :2py   -0.0001  -0.0110  -0.0006   0.0199
  12 H   :2pz   -0.0001  -0.0110  -0.0006   0.0199

 Molecular orbitals for symmetry species  2
 ------------------------------------------

    Orbital         1        2        3
   1 C   :2py    0.1818  -0.1464   0.0159
   2 C   :2py    0.2931  -0.1083  -0.0054
   3 C   :2py    0.2049  -1.1248   1.3166
   4 C   :3d1+   0.0320   0.0232   0.0151
   5 H   :1s     0.0961   0.0193  -0.0386
   6 H   :1s     0.1589  -0.0805  -0.7668
   7 H   :1s     0.0754   1.2270   0.2180
   8 H   :2px   -0.0095   0.0099   0.0117
   9 H   :2py    0.0002   0.0059   0.0259
  10 H   :2pz   -0.0095   0.0099   0.0117

 Molecular orbitals for symmetry species  3
 ------------------------------------------

    Orbital         1        2        3
   1 C   :2pz    0.1818  -0.1464   0.0159
   2 C   :2pz    0.2931  -0.1083  -0.0054
   3 C   :2pz    0.2049  -1.1248   1.3166
   4 C   :3d2-   0.0320   0.0232   0.0151
   5 H   :1s     0.0961   0.0193  -0.0386
   6 H   :1s     0.1589  -0.0805  -0.7668
   7 H   :1s     0.0754   1.2270   0.2180
   8 H   :2px   -0.0095   0.0099   0.0117
   9 H   :2py   -0.0095   0.0099   0.0117
  10 H   :2pz    0.0002   0.0059   0.0259

 Molecular orbitals for symmetry species  4
 ------------------------------------------

    Orbital         1        2        3
   1 C   :2px    0.1818  -0.1464   0.0159
   2 C   :2px    0.2931  -0.1083  -0.0054
   3 C   :2px    0.2049  -1.1248   1.3166
   4 C   :3d1-   0.0320   0.0232   0.0151
   5 H   :1s     0.0961   0.0193  -0.0386
   6 H   :1s     0.1589  -0.0805  -0.7668
   7 H   :1s     0.0754   1.2270   0.2180
   8 H   :2px    0.0002   0.0059   0.0259
   9 H   :2py   -0.0095   0.0099   0.0117
  10 H   :2pz   -0.0095   0.0099   0.0117



 >>>> Total CPU  time used in SIRIUS :      1.45 seconds
 >>>> Total wall time used in SIRIUS :      1.46 seconds

 
     Date and time (Linux)  : Sun Sep  8 21:10:11 2013
     Host name              : lpqlx131.ups-tlse.fr                    


                     .---------------------------------------.
                     | End of Wave Function Section (SIRIUS) |
                     `---------------------------------------'



                    .------------------------------------------.
                    | Starting in Coupled Cluster Section (CC) |
                    `------------------------------------------'

  

 *******************************************************************************
 *******************************************************************************
 *                                                                             *
 *                                                                             *
 *                    START OF COUPLED CLUSTER CALCULATION                     *
 *                                                                             *
 *                                                                             *
 *******************************************************************************
 *******************************************************************************


 LWORK =        64000000



 CCR12 ANSATZ =   1

 CCR12 APPROX =   2

   NRHF   :       1       1       1       1
   NRHFS  :       2       1       1       1
   NORB1  :      12      10      10      10
   NORB2  :      30      27      27      27

 Number of primary orbitals             :           42
 Number of secondary orbitals           :          111
 Total number of orbitals               :          153
 Total number of basis functions        :          153
 Number of (i|p') integrals             :          153
 Number of (i|u') integrals             :          153
 Number of (Ip'|1/r12|jL) integrals     :          153
 Number of (ip'|1/r12|jq') integrals    :        47124
 Number of (ip'|r12|jq') integrals      :        47124
 Number of (ip'|[T1,r12]|jq') integrals :        93636
 Threshold for R12 contributions            =  0.00000    
 Threshold for singular value decomposition = 0.100000E-11

 Calculation with Gaussian-damped linear-r12 terms
 Expansion coefficients and exponents:
    1        1.000000000000000        0.000000000000000
 The B matrix is transformed into an orthogonal basis
 and inverted by diagonalization

 ******************************************************************************
 The MP2-R12/A and MP2-R12/B energies are computed as described in:
 W. Klopper and C. C. M. Samson, J. Chem. Phys. 116, 6397-6410 (2002).
 ------------------------------------------------------------------------------
 Ansatz 1 is used and results are printed for approximations A and B.
------------------------------------------------------------------------------
 The Gaussian-damped R12 integrals are computed as described in:
 C. C. M. Samson, W. Klopper and T. Helgaker,
 Comp. Phys. Commun. 149, 1-10 (2002).
 ******************************************************************************

 Core memory required by CCSD_R12 :         268713  (double words)

 Computation of (ik|[[f12,T1],f12]|jl) integrals done
 >>>  Time used in #6 [4]     is   0.64 seconds
 Computation of (ik|f12**2|jl) integrals done
 >>>  Time used in #4 [4]     is   0.61 seconds
 Computation of (ik|f12/r12|jl) integrals done
 >>>  Time used in #2 [4]     is   0.59 seconds
 Computation of (ip'|f12|jq') integrals done
 >>>  Time used in #3 [6]     is  13.98 seconds
 Backtransformation of (ip'|r12|jq') integrals done
 Computation of V^aj_kl intermediate done

 >>> Time used for V^aj_kl is    0.05 seconds

 Computation of (ip'|1/r12|jq') integrals done
 >>>  Time used in #1 [5]     is   3.00 seconds
 Computation of (ip'|r12|jq')X(p'r')(kr'|r12|lq') integrals done
 >>>  Time used in #4 [5]     is   2.98 seconds
 Computation of (i'p'|f12|jq') integrals done
 >>>  Time used in #3 [6]     is  14.08 seconds
 Computation of (ip'|[T,f12]|jq') integrals done
 >>>  Time used in #5 [5]     is   7.64 seconds


                 +-----------------------------------------------+
                 ! MP2-R12 ansatz := (1 - P1 - P2 + P1*P2) * R12 !
                 +-----------------------------------------------+


 SECOND-ORDER PAIR ENERGIES:

                    1   -0.008552696    0.000000000
                    2   -0.012167435   -0.004524398
                    3   -0.013386563    0.000000000
                    4   -0.012167435   -0.004524398
                    5   -0.013412621   -0.011368248
                    6   -0.013386563    0.000000000
                    7   -0.012167435   -0.004524398
                    8   -0.013412621   -0.011368248
                    9   -0.013412621   -0.011368248
                   10   -0.013386563    0.000000000

 MP2 =   -0.173130492   -0.125452553   -0.047677939


                         +--------------------------------+
                         ! Auxiliary-basis MP2-R12 method !
                         +--------------------------------+


 SECOND-ORDER R12/A PAIR ENERGIES:

   1   -0.008552696   -0.010623222    0.000000000    0.000000000     1.62962         1.93487    
   2   -0.012167435   -0.014443622   -0.004524398   -0.004706073     1.62962         1.93487    
   3   -0.013386563   -0.016082139    0.000000000    0.000000000     1.62962         1.93487    
   4   -0.012167435   -0.014443622   -0.004524398   -0.004706073     1.62962         1.93487    
   5   -0.013412621   -0.015786039   -0.011368248   -0.012119637     1.62962         1.93487    
   6   -0.013386563   -0.016082139    0.000000000    0.000000000     1.62962         1.93487    
   7   -0.012167435   -0.014443622   -0.004524398   -0.004706073     1.62962         1.93487    
   8   -0.013412621   -0.015786039   -0.011368248   -0.012119637     1.62962         1.93487    
   9   -0.013412621   -0.015786039   -0.011368248   -0.012119637     1.62962         1.93487    
  10   -0.013386563   -0.016082139    0.000000000    0.000000000     1.62962         1.93487    

       -0.125452553   -0.149558622   -0.047677939   -0.050477130

              MP2-R12/A   correlation energy =   -0.200035752

 SECOND-ORDER R12/B PAIR ENERGIES:

   1   -0.008552696   -0.010013553    0.000000000    0.000000000     3.27762         3.70988    
   2   -0.012167435   -0.014013151   -0.004524398   -0.004670732     2.89126         3.32352    
   3   -0.013386563   -0.015375901    0.000000000    0.000000000     2.50490         2.93717    
   4   -0.012167435   -0.014013151   -0.004524398   -0.004670732     2.89126         3.32352    
   5   -0.013412621   -0.015229105   -0.011368248   -0.011863229     2.50490         2.93717    
   6   -0.013386563   -0.015375901    0.000000000    0.000000000     2.50490         2.93717    
   7   -0.012167435   -0.014013151   -0.004524398   -0.004670732     2.89126         3.32352    
   8   -0.013412621   -0.015229105   -0.011368248   -0.011863229     2.50490         2.93717    
   9   -0.013412621   -0.015229105   -0.011368248   -0.011863229     2.50490         2.93717    
  10   -0.013386563   -0.015375901    0.000000000    0.000000000     2.50490         2.93717    

       -0.125452553   -0.143868024   -0.047677939   -0.049601882

              MP2-R12/B   correlation energy =   -0.193469907
 Time for MP2-R12 part cpu :   43.567999999999998     
 Time for MP2-R12 part wall:   44.521999984979630     
   

 *******************************************************************
 *                                                                 *
 *<<<<<<<<<<                                             >>>>>>>>>>*
 *<<<<<<<<<< OUTPUT FROM COUPLED CLUSTER ENERGY PROGRAM  >>>>>>>>>>*
 *<<<<<<<<<<                                             >>>>>>>>>>*
 *                                                                 *
 *******************************************************************


             The Direct Coupled Cluster Energy Program
             -----------------------------------------


          Number of t1 amplitudes                 :        37
          Number of t2 amplitudes                 :      2812
          Number of t2' amplitudes for R12 part   :        40
          Total number of amplitudes in ccsd      :      2889



                        +---------------------------------+
                        ! Largest amplitudes in MP2 guess !
                        +---------------------------------+



          CC_PRAM:Overall Contribution of the Different Components
          --------------------------------------------------------



          Single Excitation Contribution :               0.0000 %

          Double Excitation Contribution :             100.0000 %

          ||T1||/||T2||                  :               0.0000

          Norm of Total Amplitude Vector :               0.1727


 +=============================================================================+
 | symmetry|  orbital index  |   Excitation Numbers             |   Amplitude  |
 |  Index  |   a   b   i   j |      NAI      NBJ |     NAIBJ    |              |
 +=============================================================================+
 +-----------------------------------------------------------------------------+
 | 2 2 2 2 |   1   1   1   1 |       11       11 |           66 |   -0.020727  |
 | 2 2 2 2 |   3   3   1   1 |       13       13 |           91 |   -0.025020  |
 | 3 3 3 3 |   1   1   1   1 |       20       20 |          210 |   -0.020727  |
 | 3 3 3 3 |   3   3   1   1 |       22       22 |          253 |   -0.025020  |
 | 4 4 4 4 |   1   1   1   1 |       29       29 |          435 |   -0.020727  |
 | 4 4 4 4 |   3   3   1   1 |       31       31 |          496 |   -0.025020  |
 +=============================================================================+


          Norm of Printed Amplitude Vector :             0.0563

          Printed all single excitations greater than 0.010000

          Printed all double excitations greater than 0.020000
 Iter.  1: Coupled cluster MP2-R12/A energy :     -40.3918078441912982
     Conventional correlation energy:    -0.1731304917318397
     R12 correlation energy         :    -0.0269052598189972
     Total correlation energy       :    -0.2000357515508369


       Iteration no.:  1
       -----------------

       Time used in   RHS - TOTAL  :       1.00 seconds
       Norm^2 of t1am   after ccvec:        0.0000000000D+00
       Norm^2 of t2am   after ccvec:        0.2983824093D-01
       Norm^2 of omega1 after ccvec:        0.1281490663D-02
       Norm^2 of omega2 after ccvec:        0.7584165741D-28
       Norm^2 of r12am     in NXTAM:        0.7933830451D+00
       Norm^2 of Omegar12  in NXTAM:        0.4714680270D-27
 Iter.  1: Coupled cluster CC2-R12/A energy :     -40.3916935949255560
     Conventional correlation energy:    -0.1730162424661117
     R12 correlation energy         :    -0.0269052598189791
     Total correlation energy       :    -0.1999215022850908


       Iteration no.:  2
       -----------------

       Time used in   RHS - TOTAL  :       1.00 seconds
       Norm^2 of t1am   after ccvec:        0.3208919063D-03
       Norm^2 of t2am   after ccvec:        0.2983824093D-01
       Norm^2 of omega1 after ccvec:        0.1355310791D-04
       Norm^2 of omega2 after ccvec:        0.7541966207D-04
       Norm^2 of r12am     in NXTAM:        0.7933830451D+00
       Norm^2 of Omegar12  in NXTAM:        0.1272005591D-07
 Iter.  2: Coupled cluster CC2-R12/A energy :     -40.3926474070644943
     Conventional correlation energy:    -0.1739375589874328
     R12 correlation energy         :    -0.0269377554365980
     Total correlation energy       :    -0.2008753144240308


       Iteration no.:  3
       -----------------

       Time used in   RHS - TOTAL  :       1.00 seconds
       Norm^2 of t1am   after ccvec:        0.3586091572D-03
       Norm^2 of t2am   after ccvec:        0.3008150235D-01
       Norm^2 of omega1 after ccvec:        0.3853339210D-05
       Norm^2 of omega2 after ccvec:        0.2505889213D-05
       Norm^2 of r12am     in NXTAM:        0.7973766465D+00
       Norm^2 of Omegar12  in NXTAM:        0.8832973635D-09
 Iter.  3: Coupled cluster CC2-R12/A energy :     -40.3929293001405654
     Conventional correlation energy:    -0.1742190653200950
     R12 correlation energy         :    -0.0269381421800077
     Total correlation energy       :    -0.2011572075001027


       Iteration no.:  4
       -----------------

       Time used in   RHS - TOTAL  :       1.00 seconds
       Norm^2 of t1am   after ccvec:        0.4309838414D-03
       Norm^2 of t2am   after ccvec:        0.3017825089D-01
       Norm^2 of omega1 after ccvec:        0.9533520957D-07
       Norm^2 of omega2 after ccvec:        0.8330092142D-07
       Norm^2 of r12am     in NXTAM:        0.7988161520D+00
       Norm^2 of Omegar12  in NXTAM:        0.2876420559D-10
 Iter.  4: Coupled cluster CC2-R12/A energy :     -40.3929132109683806
     Conventional correlation energy:    -0.1741991662351055
     R12 correlation energy         :    -0.0269419520928129
     Total correlation energy       :    -0.2011411183279184


       Iteration no.:  5
       -----------------

       Time used in   RHS - TOTAL  :       1.00 seconds
       Norm^2 of t1am   after ccvec:        0.4337813828D-03
       Norm^2 of t2am   after ccvec:        0.3016994301D-01
       Norm^2 of omega1 after ccvec:        0.3689478228D-08
       Norm^2 of omega2 after ccvec:        0.1606970215D-08
       Norm^2 of r12am     in NXTAM:        0.7992674542D+00
       Norm^2 of Omegar12  in NXTAM:        0.5914472439D-12
 Iter.  5: Coupled cluster CC2-R12/A energy :     -40.3929126311012254
     Conventional correlation energy:    -0.1741981045871768
     R12 correlation energy         :    -0.0269424338735829
     Total correlation energy       :    -0.2011405384607597


       Iteration no.:  6
       -----------------

       Time used in   RHS - TOTAL  :       1.00 seconds
       Norm^2 of t1am   after ccvec:        0.4353187390D-03
       Norm^2 of t2am   after ccvec:        0.3016985832D-01
       Norm^2 of omega1 after ccvec:        0.4573432141D-10
       Norm^2 of omega2 after ccvec:        0.5393229541D-10
       Norm^2 of r12am     in NXTAM:        0.7993581665D+00
       Norm^2 of Omegar12  in NXTAM:        0.1049127468D-13
 Iter.  6: Coupled cluster CC2-R12/A energy :     -40.3929124267538526
     Conventional correlation energy:    -0.1741977787617515
     R12 correlation energy         :    -0.0269425553516411
     Total correlation energy       :    -0.2011403341133926


       Iteration no.:  7
       -----------------

       Time used in   RHS - TOTAL  :       1.00 seconds
       Norm^2 of t1am   after ccvec:        0.4352841757D-03
       Norm^2 of t2am   after ccvec:        0.3016962754D-01
       Norm^2 of omega1 after ccvec:        0.1441141813D-11
       Norm^2 of omega2 after ccvec:        0.7042952844D-12
       Norm^2 of r12am     in NXTAM:        0.7993647390D+00
       Norm^2 of Omegar12  in NXTAM:        0.1797110667D-15
 Iter.  7: Coupled cluster CC2-R12/A energy :     -40.3929123970209645
     Conventional correlation energy:    -0.1741977266023795
     R12 correlation energy         :    -0.0269425777781256
     Total correlation energy       :    -0.2011403043805051


       Iteration no.:  8
       -----------------

       Time used in   RHS - TOTAL  :       1.00 seconds
       Norm^2 of t1am   after ccvec:        0.4352823854D-03
       Norm^2 of t2am   after ccvec:        0.3016958822D-01
       Norm^2 of omega1 after ccvec:        0.5073465957D-13
       Norm^2 of omega2 after ccvec:        0.3283218330D-13
       Norm^2 of r12am     in NXTAM:        0.7993660686D+00
       Norm^2 of Omegar12  in NXTAM:        0.1888757952D-17
 Iter.  8: Coupled cluster CC2-R12/A energy :     -40.3929123945922939
     Conventional correlation energy:    -0.1741977246999795
     R12 correlation energy         :    -0.0269425772518502
     Total correlation energy       :    -0.2011403019518297


       Iteration no.:  9
       -----------------

       Time used in   RHS - TOTAL  :       1.00 seconds
       Norm^2 of t1am   after ccvec:        0.4352810205D-03
       Norm^2 of t2am   after ccvec:        0.3016958526D-01
       Norm^2 of omega1 after ccvec:        0.5485072396D-15
       Norm^2 of omega2 after ccvec:        0.7534510850D-15
       Norm^2 of r12am     in NXTAM:        0.7993660182D+00
       Norm^2 of Omegar12  in NXTAM:        0.5263211455D-19
 Iter.  9: Coupled cluster CC2-R12/A energy :     -40.3929123941239610
     Conventional correlation energy:    -0.1741977244732027
     R12 correlation energy         :    -0.0269425770102943
     Total correlation energy       :    -0.2011403014834970


       Iteration no.: 10
       -----------------

       Time used in   RHS - TOTAL  :       1.00 seconds
       Norm^2 of t1am   after ccvec:        0.4352815188D-03
       Norm^2 of t2am   after ccvec:        0.3016958501D-01
       Norm^2 of omega1 after ccvec:        0.4116326691D-16
       Norm^2 of omega2 after ccvec:        0.5076799404D-16
       Norm^2 of r12am     in NXTAM:        0.7993660026D+00
       Norm^2 of Omegar12  in NXTAM:        0.5772061181D-20
 Iter. 10: Coupled cluster CC2-R12/A energy :     -40.3929123947385165
     Conventional correlation energy:    -0.1741977250648006
     R12 correlation energy         :    -0.0269425770332558
     Total correlation energy       :    -0.2011403020980564


       Iteration no.: 11
       -----------------

       Time used in   RHS - TOTAL  :       1.00 seconds
       Norm^2 of t1am   after ccvec:        0.4352815708D-03
       Norm^2 of t2am   after ccvec:        0.3016958510D-01
       Norm^2 of omega1 after ccvec:        0.3248881941D-17
       Norm^2 of omega2 after ccvec:        0.2070338349D-17
       Norm^2 of r12am     in NXTAM:        0.7993660051D+00
       Norm^2 of Omegar12  in NXTAM:        0.1823562635D-21
 Iter. 11: Coupled cluster CC2-R12/A energy :     -40.3929123947568414
     Conventional correlation energy:    -0.1741977250820668
     R12 correlation energy         :    -0.0269425770343137
     Total correlation energy       :    -0.2011403021163804


 CC2-R12/A energy converged to within   0.10D-09 is          -40.392912394757
 Final 2-norm of the CC vector function:  2.30634349D-09
 R12       energy converged to within   0.10D-09 is     -0.026942577


                    +------------------------------------------+
                    ! Largest amplitudes in converged solution !
                    +------------------------------------------+



          CC_PRAM:Overall Contribution of the Different Components
          --------------------------------------------------------



          Single Excitation Contribution :               1.4223 %

          Double Excitation Contribution :              98.5777 %

          ||T1||/||T2||                  :               0.1201

          Tau1 diagnostic                :               0.0074

          Norm of Total Amplitude Vector :               0.1749


 +=============================================================================+
 | symmetry|  orbital index  |   Excitation Numbers             |   Amplitude  |
 |  Index  |   a   b   i   j |      NAI      NBJ |     NAIBJ    |              |
 +=============================================================================+
 | 1   1   |   3       1     |        3          |              |   -0.003082  |
 | 2   2   |   1       1     |       11          |              |   -0.005419  |
 | 2   2   |   2       1     |       12          |              |    0.005334  |
 | 2   2   |   3       1     |       13          |              |    0.006748  |
 | 2   2   |   5       1     |       15          |              |    0.002863  |
 | 2   2   |   7       1     |       17          |              |   -0.004435  |
 | 3   3   |   1       1     |       20          |              |   -0.005419  |
 | 3   3   |   2       1     |       21          |              |    0.005334  |
 | 3   3   |   3       1     |       22          |              |    0.006748  |
 | 3   3   |   5       1     |       24          |              |    0.002863  |
 | 3   3   |   7       1     |       26          |              |   -0.004435  |
 | 4   4   |   1       1     |       29          |              |   -0.005419  |
 | 4   4   |   2       1     |       30          |              |    0.005334  |
 | 4   4   |   3       1     |       31          |              |    0.006748  |
 | 4   4   |   5       1     |       33          |              |    0.002863  |
 | 4   4   |   7       1     |       35          |              |   -0.004435  |
 +-----------------------------------------------------------------------------+
 | 2 2 2 2 |   1   1   1   1 |       11       11 |           66 |   -0.020762  |
 | 2 2 2 2 |   3   3   1   1 |       13       13 |           91 |   -0.025526  |
 | 3 3 3 3 |   1   1   1   1 |       20       20 |          210 |   -0.020762  |
 | 3 3 3 3 |   3   3   1   1 |       22       22 |          253 |   -0.025526  |
 | 4 4 4 4 |   1   1   1   1 |       29       29 |          435 |   -0.020762  |
 | 4 4 4 4 |   3   3   1   1 |       31       31 |          496 |   -0.025526  |
 +=============================================================================+


          Norm of Printed Amplitude Vector :             0.0604

          Printed all single excitations greater than 0.002385

          Printed all double excitations greater than 0.019857





             +-------------------------------------------------------+
             ! Final results from the Coupled Cluster energy program !
             +-------------------------------------------------------+



            Total SCF   energy:                   -40.1917720926

            Total MP2-R12/A energy:               -40.3918078442

            Total CC2-R12/A energy:               -40.3929123948




                   +--------------------------------------------+
                   ! Calculating singlet intermediates for CCLR !
                   +--------------------------------------------+



       Time used in   RHS - TOTAL  :       1.02 seconds


            E-intermediates calculated 
            Fock-intermediate calculated 


   

 *******************************************************************
 *                                                                 *
 *<<<<<<<<<< OUTPUT FROM COUPLED CLUSTER LINEAR RESPONSE >>>>>>>>>>*
 *                                                                 *
 *<<<<<<<<<<     CALCULATION OF EXCITATION ENERGIES      >>>>>>>>>>*
 *                                                                 *
 *******************************************************************



                            +--------------------------+
                            !  CC2 Excitation Energies !
                            +--------------------------+


 --------------------------
 Symmetry class Nr.:     1
 Multiplicity      :     1
 --------------------------

 Length of Excitation vectors in this class is:      2889
 Converging for  4 roots.
  >> output from FNDMN3 <<
  LOWEST VALUE AND PLACE   0.75401585626248346               29
  HIGHST VALUE AND PLACE    51.649282694685354               92
IELMNT XMIN IMIN NDEG        1    7.54016D-01      29   1
IELMNT XMIN IMIN NDEG        2    7.54016D-01      20   2
IELMNT XMIN IMIN NDEG        3    7.54016D-01      11   3
IELMNT XMIN IMIN NDEG        4    9.44239D-01      30   1
IELMNT XMIN IMIN NDEG        5    9.44239D-01      21   2
IELMNT XMIN IMIN NDEG        6    9.44239D-01      12   3
IELMNT XMIN IMIN NDEG        7    1.06336D+00       1   1
IELMNT XMIN IMIN NDEG        8    1.30158D+00      31   1
  NUMBER OF ELEMENTS OBTAINED IN FNDMN3            7
  FROM FNDMN3 : 
    PLACES OF LOWEST ELEMENTS 
     1 :     29     20     11     30     21     12      1
  MIN AND MAX IN SELECTED SUPSPACE   0.75401585626248346        1.0633632596757949     
 Start vector guessed from diagonal
 ... selected element no. 29
 Start vector guessed from diagonal
 ... selected element no. 20
 Start vector guessed from diagonal
 ... selected element no. 11
 Start vector guessed from diagonal
 ... selected element no. 30
 CCEQ_SOL: IPRLE   =               5
 CCEQ_SOL: TRIPLET =     F
 CCEQ_SOL: LINQCC  =     F
 CCEQ_SOL: NREDH   =               4
 CCEQ_SOL: MAXRED  =             200
 CCEQ_SOL: MAXLE   =             300
 CCEQ_SOL: ISIDE   =               1
 CCEQ_SOL: ISTRVE  =               1
 CCEQ_SOL: NVEC    =               4
 CCEQ_SOL: NUPVEC  =               4
 CCEQ_SOL: NCCVAR  =            2889



 >>>>> COUPLED CLUSTER RESPONSE SOLVER <<<<<

    Iter  #Vectors  time (min)   residual
    --------------------------------------


 Time used in     CC_RHTR in total   :       0.33 seconds
 Time used in   CC part              :       0.02 seconds
 Time used in   Int. calc. & read    :       0.31 seconds
 Time used in   IO of vectors/I.M.   :       0.00 seconds
  

 REDUCED EIGENVALUES real part:

               Column   1
       1       0.57119667
       2       0.57436003
       3       0.62827804
       4       0.71381125
    ==== End of matrix output ====
  
 ROOT:  1 RESIDUAL TOT: 3.10963D-01
 ROOT:  2 RESIDUAL TOT: 3.06043D-01
 ROOT:  3 RESIDUAL TOT: 3.26556D-01
 ROOT:  4 RESIDUAL TOT: 3.17726D-01
      1       4         0.01     0.33E+00

 Lowest eigenvalues in this iteration: 

               Column   1
       1       0.57119667
       2       0.57436003
       3       0.62827804
       4       0.71381125
    ==== End of matrix output ====
 Dimension of the reduced space:     8
 >>> TIME USED IN THIS MICRO ITERATION        0.34



 Time used in     CC_RHTR in total   :       0.34 seconds
 Time used in   CC part              :       0.02 seconds
 Time used in   Int. calc. & read    :       0.31 seconds
 Time used in   IO of vectors/I.M.   :       0.00 seconds
  

 REDUCED EIGENVALUES real part:

               Column   1
       1       0.49260921
       2       0.49415259
       3       0.54785637
       4       0.64392665
    ==== End of matrix output ====
  
 ROOT:  1 RESIDUAL TOT: 4.69015D-02
 ROOT:  2 RESIDUAL TOT: 5.09832D-02
 ROOT:  3 RESIDUAL TOT: 7.56573D-02
 ROOT:  4 RESIDUAL TOT: 3.92667D-02
      2       4         0.01     0.76E-01

 Lowest eigenvalues in this iteration: 

               Column   1
       1       0.49260921
       2       0.49415259
       3       0.54785637
       4       0.64392665
    ==== End of matrix output ====
 Dimension of the reduced space:    12
 >>> TIME USED IN THIS MICRO ITERATION        0.34



 Time used in     CC_RHTR in total   :       0.34 seconds
 Time used in   CC part              :       0.02 seconds
 Time used in   Int. calc. & read    :       0.32 seconds
 Time used in   IO of vectors/I.M.   :       0.00 seconds
  

 REDUCED EIGENVALUES real part:

               Column   1
       1       0.48997997
       2       0.49054804
       3       0.54254057
       4       0.64260234
    ==== End of matrix output ====
  
 ROOT:  1 RESIDUAL TOT: 2.75300D-02
 ROOT:  2 RESIDUAL TOT: 3.38488D-02
 ROOT:  3 RESIDUAL TOT: 3.49232D-02
 ROOT:  4 RESIDUAL TOT: 1.03621D-02
      3       4         0.01     0.35E-01

 Lowest eigenvalues in this iteration: 

               Column   1
       1       0.48997997
       2       0.49054804
       3       0.54254057
       4       0.64260234
    ==== End of matrix output ====
 Dimension of the reduced space:    16
 >>> TIME USED IN THIS MICRO ITERATION        0.34



 Time used in     CC_RHTR in total   :       0.34 seconds
 Time used in   CC part              :       0.02 seconds
 Time used in   Int. calc. & read    :       0.32 seconds
 Time used in   IO of vectors/I.M.   :       0.00 seconds
  

 REDUCED EIGENVALUES real part:

               Column   1
       1       0.48995182
       2       0.49036685
       3       0.54236257
       4       0.64258432
    ==== End of matrix output ====
  
 ROOT:  1 RESIDUAL TOT: 8.98334D-03
 ROOT:  2 RESIDUAL TOT: 1.38194D-02
 ROOT:  3 RESIDUAL TOT: 2.78244D-02
 ROOT:  4 RESIDUAL TOT: 7.43320D-03
      4       4         0.01     0.28E-01

 Lowest eigenvalues in this iteration: 

               Column   1
       1       0.48995182
       2       0.49036685
       3       0.54236257
       4       0.64258432
    ==== End of matrix output ====
 Dimension of the reduced space:    20
 >>> TIME USED IN THIS MICRO ITERATION        0.34



 Time used in     CC_RHTR in total   :       0.34 seconds
 Time used in   CC part              :       0.02 seconds
 Time used in   Int. calc. & read    :       0.32 seconds
 Time used in   IO of vectors/I.M.   :       0.00 seconds
  

 REDUCED EIGENVALUES real part:

               Column   1
       1       0.48984097
       2       0.48997242
       3       0.54064954
       4       0.64233491
    ==== End of matrix output ====
  
 ROOT:  1 RESIDUAL TOT: 5.16816D-03
 ROOT:  2 RESIDUAL TOT: 1.08632D-02
 ROOT:  3 RESIDUAL TOT: 1.63262D-02
 ROOT:  4 RESIDUAL TOT: 1.81833D-02
      5       4         0.01     0.18E-01

 Lowest eigenvalues in this iteration: 

               Column   1
       1       0.48984097
       2       0.48997242
       3       0.54064954
       4       0.64233491
    ==== End of matrix output ====
 Dimension of the reduced space:    24
 >>> TIME USED IN THIS MICRO ITERATION        0.35



 Time used in     CC_RHTR in total   :       0.33 seconds
 Time used in   CC part              :       0.02 seconds
 Time used in   Int. calc. & read    :       0.31 seconds
 Time used in   IO of vectors/I.M.   :       0.00 seconds
  

 REDUCED EIGENVALUES real part:

               Column   1
       1       0.48979869
       2       0.48980394
       3       0.54024708
       4       0.64120125
    ==== End of matrix output ====
  
 ROOT:  1 RESIDUAL TOT: 2.26630D-03
 ROOT:  2 RESIDUAL TOT: 1.46939D-03
 ROOT:  3 RESIDUAL TOT: 4.75471D-03
 ROOT:  4 RESIDUAL TOT: 2.29999D-02
      6       4         0.01     0.23E-01

 Lowest eigenvalues in this iteration: 

               Column   1
       1       0.48979869
       2       0.48980394
       3       0.54024708
       4       0.64120125
    ==== End of matrix output ====
 Dimension of the reduced space:    28
 >>> TIME USED IN THIS MICRO ITERATION        0.34



 Time used in     CC_RHTR in total   :       0.34 seconds
 Time used in   CC part              :       0.02 seconds
 Time used in   Int. calc. & read    :       0.31 seconds
 Time used in   IO of vectors/I.M.   :       0.00 seconds
  

 REDUCED EIGENVALUES real part:

               Column   1
       1       0.48981618
       2       0.48981736
       3       0.54026744
       4       0.63969662
    ==== End of matrix output ====
  
 ROOT:  1 RESIDUAL TOT: 3.02449D-04
 ROOT:  2 RESIDUAL TOT: 3.69440D-04
 ROOT:  3 RESIDUAL TOT: 1.13805D-03
 ROOT:  4 RESIDUAL TOT: 3.72651D-02
      7       4         0.01     0.37E-01

 Lowest eigenvalues in this iteration: 

               Column   1
       1       0.48981618
       2       0.48981736
       3       0.54026744
       4       0.63969662
    ==== End of matrix output ====
 Dimension of the reduced space:    32
 >>> TIME USED IN THIS MICRO ITERATION        0.35



 Time used in     CC_RHTR in total   :       0.34 seconds
 Time used in   CC part              :       0.02 seconds
 Time used in   Int. calc. & read    :       0.31 seconds
 Time used in   IO of vectors/I.M.   :       0.00 seconds
  

 REDUCED EIGENVALUES real part:

               Column   1
       1       0.48981375
       2       0.48981378
       3       0.54027269
       4       0.64054940
    ==== End of matrix output ====
  
 ROOT:  1 RESIDUAL TOT: 6.35589D-05
 ROOT:  2 RESIDUAL TOT: 7.34138D-05
 ROOT:  3 RESIDUAL TOT: 2.92270D-04
 ROOT:  4 RESIDUAL TOT: 1.79532D-03
      8       4         0.01     0.18E-02

 Lowest eigenvalues in this iteration: 

               Column   1
       1       0.48981375
       2       0.48981378
       3       0.54027269
       4       0.64054940
    ==== End of matrix output ====
 Dimension of the reduced space:    36
 >>> TIME USED IN THIS MICRO ITERATION        0.35



 Time used in     CC_RHTR in total   :       0.34 seconds
 Time used in   CC part              :       0.02 seconds
 Time used in   Int. calc. & read    :       0.31 seconds
 Time used in   IO of vectors/I.M.   :       0.00 seconds
  

 REDUCED EIGENVALUES real part:

               Column   1
       1       0.48981344
       2       0.48981347
       3       0.54027296
       4       0.64054595
    ==== End of matrix output ====
  
 ROOT:  1 RESIDUAL TOT: 9.42422D-06
[...]
 | 4 1 2 2 |   2  10   1   1 |       11       19 |          677 |    0.020066  |
 | 1 1 3 2 |   3  10   1   1 |       21       19 |          687 |   -0.024505  |
 | 2 1 4 2 |   2  10   1   1 |       30       19 |          696 |   -0.027855  |
 | 4 4 2 3 |   1   1   1   1 |       10       20 |          713 |    0.020066  |
 | 4 3 2 4 |   1   2   1   1 |       10       30 |         1083 |   -0.027855  |
 | 2 3 4 4 |   1   1   1   1 |       29       29 |         1065 |   -0.025848  |
 | 4 2 1 2 |   1   1   1   1 |        1       11 |         1740 |   -0.032278  |
 | 4 3 1 3 |   1   1   1   1 |        1       20 |         2073 |   -0.032278  |
 | 4 3 1 3 |   1   9   1   1 |        1       28 |         2369 |   -0.034799  |
 | 3 3 2 3 |   2   9   1   1 |       11       28 |         2379 |   -0.042078  |
 | 3 3 2 3 |   3   9   1   1 |       12       28 |         2380 |   -0.018601  |
 | 3 3 2 3 |   4   9   1   1 |       13       28 |         2381 |    0.024348  |
 | 2 3 3 3 |   2   9   1   1 |       20       28 |         2388 |   -0.042078  |
 | 2 3 3 3 |   3   9   1   1 |       21       28 |         2389 |   -0.018601  |
 | 2 3 3 3 |   4   9   1   1 |       22       28 |         2390 |    0.024348  |
 | 1 3 4 3 |   2   9   1   1 |       29       28 |         2397 |   -0.062713  |
 | 1 3 4 3 |   4   9   1   1 |       31       28 |         2399 |    0.029582  |
 | 4 4 1 4 |   1   3   1   1 |        1       31 |         2480 |   -0.022595  |
 +=============================================================================+


          Norm of Printed Amplitude Vector :             0.9827

          Printed all single excitations greater than 0.098508

          Printed all double excitations greater than 0.017208


 Analysis of the Coupled Cluster Excitation Vector Number :  2
 -------------------------------------------------------------

          Excitation Energy :                            13.0870 eV


          CC_PRAM:Overall Contribution of the Different Components
          --------------------------------------------------------



          Single Excitation Contribution :              97.0022 %

          Double Excitation Contribution :               2.9978 %

          ||T1||/||T2||                  :               5.6884

          Norm of Total Amplitude Vector :               0.9997


 +=============================================================================+
 | symmetry|  orbital index  |   Excitation Numbers             |   Amplitude  |
 |  Index  |   a   b   i   j |      NAI      NBJ |     NAIBJ    |              |
 +=============================================================================+
 | 2   3   |   1       1     |       19          |              |   -0.671547  |
 | 2   3   |   2       1     |       20          |              |    0.147336  |
 | 2   3   |   3       1     |       21          |              |    0.108460  |
 | 3   2   |   1       1     |       10          |              |    0.671547  |
 | 3   2   |   2       1     |       11          |              |   -0.147336  |
 | 3   2   |   3       1     |       12          |              |   -0.108460  |
 +-----------------------------------------------------------------------------+
 | 1 2 3 1 |   3   1   1   1 |       21        1 |           21 |   -0.023697  |
 | 2 2 4 1 |   2   1   1   1 |       30        1 |           30 |   -0.021400  |
 | 3 1 1 2 |   1   2   1   1 |        1       11 |          371 |    0.023697  |
 | 4 1 2 2 |   1   1   1   1 |       10       10 |          343 |   -0.020457  |
 | 1 1 3 2 |   2  10   1   1 |       20       19 |          686 |    0.020457  |
 | 2 1 4 2 |   1   2   1   1 |       29       11 |          399 |   -0.018698  |
 | 3 4 1 3 |   1   4   1   1 |        1       23 |          815 |    0.019403  |
 | 2 4 4 3 |   1   1   1   1 |       29       20 |          732 |    0.018320  |
 | 3 3 1 4 |   1   2   1   1 |        1       30 |         1074 |    0.021400  |
 | 4 3 2 4 |   2   1   1   1 |       11       29 |         1047 |   -0.018320  |
 | 1 3 3 4 |   3   1   1   1 |       21       29 |         1057 |    0.018698  |
 | 4 1 1 1 |   1  10   1   1 |        1       10 |         1703 |   -0.018264  |
 | 3 1 2 1 |   2  10   1   1 |       11       10 |         1713 |   -0.042806  |
 | 3 1 2 1 |   4  10   1   1 |       13       10 |         1715 |    0.018691  |
 | 1 1 4 1 |   2  10   1   1 |       29       10 |         1731 |   -0.025053  |
 | 4 2 1 2 |   1   9   1   1 |        1       19 |         2036 |    0.018264  |
 | 3 2 2 2 |   2   1   1   1 |       11       11 |         1750 |    0.024936  |
 | 2 2 3 2 |   2   1   1   1 |       20       11 |         1759 |   -0.025032  |
 | 2 2 3 2 |   2   2   1   1 |       20       12 |         1796 |   -0.021451  |
 | 2 2 3 2 |   2   9   1   1 |       20       19 |         2055 |    0.042806  |
 | 2 2 3 2 |   4   9   1   1 |       22       19 |         2057 |   -0.018691  |
 | 1 2 4 2 |   2   9   1   1 |       29       19 |         2064 |    0.025053  |
 | 3 3 2 3 |   2   1   1   1 |       11       20 |         2083 |    0.025032  |
 | 3 3 2 3 |   2   2   1   1 |       11       21 |         2120 |    0.021451  |
 | 2 3 3 3 |   2   1   1   1 |       20       20 |         2092 |   -0.024936  |
 | 3 4 2 4 |   2   1   1   1 |       11       29 |         2416 |   -0.021814  |
 | 2 4 3 4 |   2   1   1   1 |       20       29 |         2425 |    0.021814  |
 +=============================================================================+


          Norm of Printed Amplitude Vector :             0.9921

          Printed all single excitations greater than 0.098490

          Printed all double excitations greater than 0.017314


 Analysis of the Coupled Cluster Excitation Vector Number :  3
 -------------------------------------------------------------

          Excitation Energy :                            13.3420 eV


          CC_PRAM:Overall Contribution of the Different Components
          --------------------------------------------------------



          Single Excitation Contribution :              97.1669 %

          Double Excitation Contribution :               2.8331 %

          ||T1||/||T2||                  :               5.8564

          Norm of Total Amplitude Vector :               0.9999


 +=============================================================================+
 | symmetry|  orbital index  |   Excitation Numbers             |   Amplitude  |
 |  Index  |   a   b   i   j |      NAI      NBJ |     NAIBJ    |              |
 +=============================================================================+
 | 1   4   |   1       1     |       28          |              |   -0.106653  |
 | 2   3   |   1       1     |       19          |              |    0.686550  |
 | 3   2   |   1       1     |       10          |              |    0.686550  |
 +-----------------------------------------------------------------------------+
 | 3 2 1 1 |   1   1   1   1 |        1        1 |            1 |   -0.020013  |
 | 1 2 3 1 |   3   1   1   1 |       21        1 |           21 |   -0.019916  |
 | 2 2 4 1 |   2   1   1   1 |       30        1 |           30 |   -0.021861  |
 | 3 1 1 2 |   1   2   1   1 |        1       11 |          371 |   -0.019916  |
 | 4 1 2 2 |   1   1   1   1 |       10       10 |          343 |   -0.022178  |
 | 4 1 2 2 |   1   2   1   1 |       10       11 |          380 |    0.017257  |
 | 4 1 2 2 |   1  10   1   1 |       10       19 |          676 |   -0.017867  |
 | 1 1 3 2 |   2  10   1   1 |       20       19 |          686 |   -0.022178  |
 | 1 1 3 2 |   3  10   1   1 |       21       19 |          687 |    0.017257  |
 | 2 1 4 2 |   1   2   1   1 |       29       11 |          399 |   -0.021350  |
 | 3 4 1 3 |   1   4   1   1 |        1       23 |          815 |   -0.019559  |
 | 3 3 1 4 |   1   2   1   1 |        1       30 |         1074 |   -0.021861  |
 | 1 3 3 4 |   3   1   1   1 |       21       29 |         1057 |   -0.021350  |
 | 2 3 4 4 |   2   1   1   1 |       30       29 |         1066 |   -0.020258  |
 | 2 3 4 4 |   1   2   1   1 |       29       30 |         1102 |   -0.020258  |
 | 4 1 1 1 |   1  10   1   1 |        1       10 |         1703 |   -0.022039  |
 | 3 1 2 1 |   2  10   1   1 |       11       10 |         1713 |   -0.040382  |
 | 3 1 2 1 |   4  10   1   1 |       13       10 |         1715 |    0.019019  |
 | 2 1 3 1 |   2  10   1   1 |       20       10 |         1722 |   -0.030403  |
 | 1 1 4 1 |   2  10   1   1 |       29       10 |         1731 |   -0.025688  |
 | 4 2 1 2 |   1   9   1   1 |        1       19 |         2036 |   -0.022039  |
 | 3 2 2 2 |   2   9   1   1 |       11       19 |         2046 |   -0.030403  |
 | 2 2 3 2 |   2   9   1   1 |       20       19 |         2055 |   -0.040382  |
 | 2 2 3 2 |   4   9   1   1 |       22       19 |         2057 |    0.019019  |
 | 1 2 4 2 |   2   9   1   1 |       29       19 |         2064 |   -0.025688  |
 +=============================================================================+


          Norm of Printed Amplitude Vector :             0.9841

          Printed all single excitations greater than 0.098573

          Printed all double excitations greater than 0.016832


 Analysis of the Coupled Cluster Excitation Vector Number :  4
 -------------------------------------------------------------

          Excitation Energy :                            17.3531 eV


          CC_PRAM:Overall Contribution of the Different Components
          --------------------------------------------------------



          Single Excitation Contribution :              97.1569 %

          Double Excitation Contribution :               2.8431 %

          ||T1||/||T2||                  :               5.8457

          Norm of Total Amplitude Vector :               0.9993


 +=============================================================================+
 | symmetry|  orbital index  |   Excitation Numbers             |   Amplitude  |
 |  Index  |   a   b   i   j |      NAI      NBJ |     NAIBJ    |              |
 +=============================================================================+
 | 2   3   |   1       1     |       19          |              |   -0.143796  |
 | 2   3   |   2       1     |       20          |              |   -0.680935  |
 | 3   2   |   1       1     |       10          |              |    0.143796  |
 | 3   2   |   2       1     |       11          |              |    0.680935  |
 +-----------------------------------------------------------------------------+
 | 1 2 3 1 |   3   2   1   1 |       21        2 |           58 |   -0.027221  |
 | 2 2 4 1 |   2   2   1   1 |       30        2 |           67 |   -0.031380  |
 | 3 1 1 2 |   2   2   1   1 |        2       11 |          372 |    0.027221  |
 | 4 1 2 2 |   2   2   1   1 |       11       11 |          381 |   -0.018719  |
 | 1 4 3 3 |   3   1   1   1 |       21       20 |          724 |    0.018719  |
 | 2 4 4 3 |   2   1   1   1 |       30       20 |          733 |    0.026357  |
 | 3 3 1 4 |   2   2   1   1 |        2       30 |         1075 |    0.031380  |
 | 4 3 2 4 |   2   2   1   1 |       11       30 |         1084 |   -0.026357  |
 | 3 1 2 1 |   2  10   1   1 |       11       10 |         1713 |   -0.019788  |
 | 4 2 1 2 |   1   1   1   1 |        1       11 |         1740 |   -0.018924  |
 | 3 2 2 2 |   2   1   1   1 |       11       11 |         1750 |   -0.019772  |
 | 3 2 2 2 |   3   1   1   1 |       12       11 |         1751 |    0.016936  |
 | 3 2 2 2 |   4   1   1   1 |       13       11 |         1752 |    0.030335  |
 | 2 2 3 2 |   2   1   1   1 |       20       11 |         1759 |   -0.032114  |
 | 2 2 3 2 |   3   1   1   1 |       21       11 |         1760 |   -0.030168  |
 | 2 2 3 2 |   2   9   1   1 |       20       19 |         2055 |    0.019788  |
 | 1 2 4 2 |   2   1   1   1 |       29       11 |         1768 |   -0.021286  |
 | 1 2 4 2 |   4   1   1   1 |       31       11 |         1770 |    0.018402  |
 | 4 3 1 3 |   1   1   1   1 |        1       20 |         2073 |    0.018924  |
 | 3 3 2 3 |   2   1   1   1 |       11       20 |         2083 |    0.032114  |
 | 3 3 2 3 |   3   1   1   1 |       12       20 |         2084 |    0.030168  |
 | 2 3 3 3 |   2   1   1   1 |       20       20 |         2092 |    0.019772  |
 | 2 3 3 3 |   3   1   1   1 |       21       20 |         2093 |   -0.016936  |
 | 2 3 3 3 |   4   1   1   1 |       22       20 |         2094 |   -0.030335  |
 | 1 3 4 3 |   2   1   1   1 |       29       20 |         2101 |    0.021286  |
 | 1 3 4 3 |   4   1   1   1 |       31       20 |         2103 |   -0.018402  |
 | 3 4 2 4 |   3   1   1   1 |       12       29 |         2417 |   -0.019676  |
 | 2 4 3 4 |   3   1   1   1 |       21       29 |         2426 |    0.019676  |
 +=============================================================================+


          Norm of Printed Amplitude Vector :             0.9926

          Printed all single excitations greater than 0.098568

          Printed all double excitations greater than 0.016862


 *******************************************************************************

 --------------------------
 Symmetry class Nr.:     4
 Multiplicity      :     3
 --------------------------

 Length of Excitation vectors in this class is:      5545
 No Excitation Energies calculated in this symmetry class

 *******************************************************************

 Ground state energy is target 

 Ecorr =                    -40.39291239475684136551

 *******************************************************************
  

 *******************************************************************************
 *******************************************************************************
 *                                                                             *
 *                                                                             *
 *                   SUMMARY OF COUPLED CLUSTER CALCULATION                    *
 *                                                                             *
 *                                                                             *
 *******************************************************************************
 *******************************************************************************

                                                                                
                                                                                
            Total SCF   energy:                   -40.1917720926                
            Total MP2-R12/A energy:               -40.3918078442                
            Total CC2-R12/A energy:               -40.3929123948                
                                                                                
                                                                                
 +=============================================================================+
 |  sym. | Exci.  |        CC2-R12/A  Excitation energies            | ||T1||  |
 |(spin, |        +------------------------------------------------------------+
 | spat) |        |     Hartree    |       eV.      |     cm-1       |    %    |
 +=============================================================================+
 | ^1A   |    1   |     0.4898135  |      13.32850  |    107501.646  |  97.36  |
 | ^1A   |    2   |     0.4898135  |      13.32850  |    107501.646  |  97.35  |
 | ^1A   |    3   |     0.5402732  |      14.70158  |    118576.263  |  97.14  |
 | ^1A   |    4   |     0.6405451  |      17.43012  |    140583.400  |  97.43  |
 +-----------------------------------------------------------------------------+
 | ^1B2  |    1   |     0.4164885  |      11.33323  |     91408.663  |  97.04  |
 | ^1B2  |    2   |     0.4809386  |      13.08701  |    105553.832  |  97.00  |
 | ^1B2  |    3   |     0.4903105  |      13.34203  |    107610.710  |  97.17  |
 | ^1B2  |    4   |     0.6377158  |      17.35313  |    139962.447  |  97.16  |
 +-----------------------------------------------------------------------------+
 | ^1B1  |    1   |     0.4164885  |      11.33323  |     91408.663  |  97.04  |
 | ^1B1  |    2   |     0.4809386  |      13.08701  |    105553.832  |  97.00  |
 | ^1B1  |    3   |     0.4903105  |      13.34203  |    107610.710  |  97.17  |
 | ^1B1  |    4   |     0.6377158  |      17.35313  |    139962.447  |  97.16  |
 +-----------------------------------------------------------------------------+
 | ^1B3  |    1   |     0.4164885  |      11.33323  |     91408.663  |  97.04  |
 | ^1B3  |    2   |     0.4809386  |      13.08701  |    105553.832  |  97.00  |
 | ^1B3  |    3   |     0.4903105  |      13.34203  |    107610.710  |  97.17  |
 | ^1B3  |    4   |     0.6377158  |      17.35313  |    139962.447  |  97.16  |
 +=============================================================================+
                                                                                
                                                                                
     Total energies in Hartree:                                                 
             1 ^1A        -39.9030988514                                        
             2 ^1A        -39.9030988513                                        
             3 ^1A        -39.8526391829                                        
             4 ^1A        -39.7523672874                                        
             1 ^1B2       -39.9764238774                                        
             2 ^1B2       -39.9119737466                                        
             3 ^1B2       -39.9026019196                                        
             4 ^1B2       -39.7551965597                                        
             1 ^1B1       -39.9764238774                                        
             2 ^1B1       -39.9119737466                                        
             3 ^1B1       -39.9026019196                                        
             4 ^1B1       -39.7551965597                                        
             1 ^1B3       -39.9764238774                                        
             2 ^1B3       -39.9119737466                                        
             3 ^1B3       -39.9026019196                                        
             4 ^1B3       -39.7551965597                                        

  1 a.u. =        27.21138 eV.  
  1 a.u. =    219474.62934 cm-1.
  

 *******************************************************************************
 *******************************************************************************
 *                                                                             *
 *                                                                             *
 *                      END OF COUPLED CLUSTER CALCULATION                     *
 *                                                                             *
 *                                                                             *
 *******************************************************************************
 *******************************************************************************


 >>>> CPU and wall time for CC :      77.733      79.895

 
     Date and time (Linux)  : Sun Sep  8 21:11:31 2013
     Host name              : lpqlx131.ups-tlse.fr                    


                      .-------------------------------------.
                      | End of Coupled Cluster Section (CC) |
                      `-------------------------------------'

 >>>> Total CPU  time used in DALTON:  1 minute  19 seconds
 >>>> Total wall time used in DALTON:  1 minute  21 seconds

 
     Date and time (Linux)  : Sun Sep  8 21:11:31 2013
     Host name              : lpqlx131.ups-tlse.fr                    
