

     ************************************************************************
     *************** Dalton - An Electronic Structure Program ***************
     ************************************************************************

    This is output from DALTON (Release Dalton2013 patch 0)
   ----------------------------------------------------------------------------
    NOTE:
     
    Dalton is an experimental code for the evaluation of molecular
    properties using (MC)SCF, DFT, CI, and CC wave functions.
    The authors accept no responsibility for the performance of
    the code or for the correctness of the results.
     
    The code (in whole or part) is provided under a licence and
    is not to be reproduced for further distribution without
    the written permission of the authors or their representatives.
     
    See the home page "http://daltonprogram.org" for further information.
     
    If results obtained with this code are published,
    the appropriate citations would be both of:
     
       K. Aidas, C. Angeli, K. L. Bak, V. Bakken, R. Bast,
       L. Boman, O. Christiansen, R. Cimiraglia, S. Coriani,
       P. Dahle, E. K. Dalskov, U. Ekstroem, T. Enevoldsen,
       J. J. Eriksen, P. Ettenhuber, B. Fernandez, L. Ferrighi,
       H. Fliegl, L. Frediani, K. Hald, A. Halkier, C. Haettig,
       H. Heiberg, T. Helgaker, A. C. Hennum, H. Hettema,
       E. Hjertenaes, S. Hoest, I.-M. Hoeyvik, M. F. Iozzi,
       B. Jansik, H. J. Aa. Jensen, D. Jonsson, P. Joergensen,
       J. Kauczor, S. Kirpekar, T. Kjaergaard, W. Klopper,
       S. Knecht, R. Kobayashi, H. Koch, J. Kongsted, A. Krapp,
       K. Kristensen, A. Ligabue, O. B. Lutnaes, J. I. Melo,
       K. V. Mikkelsen, R. H. Myhre, C. Neiss, C. B. Nielsen,
       P. Norman, J. Olsen, J. M. H. Olsen, A. Osted,
       M. J. Packer, F. Pawlowski, T. B. Pedersen, P. F. Provasi,
       S. Reine, Z. Rinkevicius, T. A. Ruden, K. Ruud, V. Rybkin,
       P. Salek, C. C. M. Samson, A. Sanchez de Meras, T. Saue,
       S. P. A. Sauer, B. Schimmelpfennig, K. Sneskov,
       A. H. Steindal, K. O. Sylvester-Hvid, P. R. Taylor,
       A. M. Teale, E. I. Tellgren, D. P. Tew, A. J. Thorvaldsen,
       L. Thoegersen, O. Vahtras, M. A. Watson, D. J. D. Wilson,
       M. Ziolkowski and H. Agren.
       The Dalton quantum chemistry program system.
       WIREs Comput. Mol. Sci. 2013. doi: 10.1002/wcms.1172
    
    and
    
       Dalton, a Molecular Electronic Structure Program,
       Release DALTON2013.0 (2013), see http://daltonprogram.org
   ----------------------------------------------------------------------------

    Authors in alphabetical order (major contribution(s) in parenthesis):

  Kestutis Aidas,           Vilnius University,           Lithuania   (QM/MM)
  Celestino Angeli,         University of Ferrara,        Italy       (NEVPT2)
  Keld L. Bak,              UNI-C,                        Denmark     (AOSOPPA, non-adiabatic coupling, magnetic properties)
  Vebjoern Bakken,          University of Oslo,           Norway      (DALTON; geometry optimizer, symmetry detection)
  Radovan Bast,             KTH Stockholm                 Sweden      (DALTON installation and execution frameworks)
  Linus Boman,              NTNU,                         Norway      (Cholesky decomposition and subsystems)
  Ove Christiansen,         Aarhus University,            Denmark     (CC module)
  Renzo Cimiraglia,         University of Ferrara,        Italy       (NEVPT2)
  Sonia Coriani,            University of Trieste,        Italy       (CC module, MCD in RESPONS)
  Paal Dahle,               University of Oslo,           Norway      (Parallelization)
  Erik K. Dalskov,          UNI-C,                        Denmark     (SOPPA)
  Thomas Enevoldsen,        Univ. of Southern Denmark,    Denmark     (SOPPA)
  Janus J. Eriksen,         Aarhus University,            Denmark     (PE-MP2/SOPPA, TDA)
  Berta Fernandez,          U. of Santiago de Compostela, Spain       (doublet spin, ESR in RESPONS)
  Lara Ferrighi,            Aarhus University,            Denmark     (PCM Cubic response)
  Heike Fliegl,             University of Oslo,           Norway      (CCSD(R12))
  Luca Frediani,            UiT The Arctic U. of Norway,  Norway      (PCM)
  Bin Gao,                  UiT The Arctic U. of Norway,  Norway      (Gen1Int library)
  Christof Haettig,         Ruhr-University Bochum,       Germany     (CC module)
  Kasper Hald,              Aarhus University,            Denmark     (CC module)
  Asger Halkier,            Aarhus University,            Denmark     (CC module)
  Hanne Heiberg,            University of Oslo,           Norway      (geometry analysis, selected one-electron integrals)
  Trygve Helgaker,          University of Oslo,           Norway      (DALTON; ABACUS, ERI, DFT modules, London, and much more)
  Alf Christian Hennum,     University of Oslo,           Norway      (Parity violation)
  Hinne Hettema,            University of Auckland,       New Zealand (quadratic response in RESPONS; SIRIUS supersymmetry)
  Eirik Hjertenaes,         NTNU,                         Norway      (Cholesky decomposition)
  Maria Francesca Iozzi,    University of Oslo,           Norway      (RPA)
  Brano Jansik              Technical Univ. of Ostrava    Czech Rep.  (DFT cubic response)
  Hans Joergen Aa. Jensen,  Univ. of Southern Denmark,    Denmark     (DALTON; SIRIUS, RESPONS, ABACUS modules, London, and much more)
  Dan Jonsson,              UiT The Arctic U. of Norway,  Norway      (cubic response in RESPONS module)
  Poul Joergensen,          Aarhus University,            Denmark     (RESPONS, ABACUS, and CC modules)
  Joanna Kauczor,           Linkoeping University,        Sweden      (Complex polarization propagator (CPP) module)
  Sheela Kirpekar,          Univ. of Southern Denmark,    Denmark     (Mass-velocity & Darwin integrals)
  Wim Klopper,              KIT Karlsruhe,                Germany     (R12 code in CC, SIRIUS, and ABACUS modules)
  Stefan Knecht,            ETH Zurich,                   Switzerland (Parallel CI and MCSCF)
  Rika Kobayashi,           Australian National Univ.,    Australia   (DIIS in CC, London in MCSCF)
  Henrik Koch,              NTNU,                         Norway      (CC module, Cholesky decomposition)
  Jacob Kongsted,           Univ. of Southern Denmark,    Denmark     (Polarizable embedding, QM/MM)
  Andrea Ligabue,           University of Modena,         Italy       (CTOCD, AOSOPPA)
  Ola B. Lutnaes,           University of Oslo,           Norway      (DFT Hessian)
  Juan I. Melo,             University of Buenos Aires,   Argentina   (LRESC, Relativistic Effects on NMR Shieldings)
  Kurt V. Mikkelsen,        University of Copenhagen,     Denmark     (MC-SCRF and QM/MM)
  Rolf H. Myhre,            NTNU,                         Norway      (Cholesky, subsystems and ECC2)
  Christian Neiss,          Univ. Erlangen-Nuernberg,     Germany     (CCSD(R12))
  Christian B. Nielsen,     University of Copenhagen,     Denmark     (QM/MM)
  Patrick Norman,           Linkoeping University,        Sweden      (Cubic response and complex response in RESPONS)
  Jeppe Olsen,              Aarhus University,            Denmark     (SIRIUS CI/density modules)
  Jogvan Magnus H. Olsen,   Univ. of Southern Denmark,    Denmark     (Polarizable embedding, PE library, QM/MM)
  Anders Osted,             Copenhagen University,        Denmark     (QM/MM)
  Martin J. Packer,         University of Sheffield,      UK          (SOPPA)
  Filip Pawlowski,          Kazimierz Wielki University   Poland      (CC3)
  Thomas B. Pedersen,       University of Oslo,           Norway      (Cholesky decomposition)
  Patricio F. Provasi,      University of Northeastern,   Argentina   (Analysis of coupling constants in localized orbitals)
  Zilvinas Rinkevicius,     KTH Stockholm,                Sweden      (open-shell DFT, ESR)
  Elias Rudberg,            KTH Stockholm,                Sweden      (DFT grid and basis info)
  Torgeir A. Ruden,         University of Oslo,           Norway      (Numerical derivatives in ABACUS)
  Kenneth Ruud,             UiT The Arctic U. of Norway,  Norway      (DALTON; ABACUS magnetic properties and  much more)
  Pawel Salek,              KTH Stockholm,                Sweden      (DALTON; DFT code)
  Claire C. M. Samson       University of Karlsruhe       Germany     (Boys localization, r12 integrals in ERI)
  Alfredo Sanchez de Meras, University of Valencia,       Spain       (CC module, Cholesky decomposition)
  Trond Saue,               Paul Sabatier University,     France      (direct Fock matrix construction)
  Stephan P. A. Sauer,      University of Copenhagen,     Denmark     (SOPPA(CCSD), SOPPA prop., AOSOPPA, vibrational g-factors)
  Bernd Schimmelpfennig,    Forschungszentrum Karlsruhe,  Germany     (AMFI module)
  Kristian Sneskov,         Aarhus University,            Denmark     (QM/MM, PE-CC)
  Arnfinn H. Steindal,      UiT The Arctic U. of Norway,  Norway      (parallel QM/MM)
  K. O. Sylvester-Hvid,     University of Copenhagen,     Denmark     (MC-SCRF)
  Peter R. Taylor,          VLSCI/Univ. of Melbourne,     Australia   (Symmetry handling ABACUS, integral transformation)
  Andrew M. Teale,          University of Nottingham,     England     (DFT-AC, DFT-D)
  David P. Tew,             University of Bristol,        England     (CCSD(R12))
  Olav Vahtras,             KTH Stockholm,                Sweden      (triplet response, spin-orbit, ESR, TDDFT, open-shell DFT)
  David J. Wilson,          La Trobe University,          Australia   (DFT Hessian and DFT magnetizabilities)
  Hans Agren,               KTH Stockholm,                Sweden      (SIRIUS module, RESPONS, MC-SCRF solvation model)
 --------------------------------------------------------------------------------

     Date and time (Linux)  : Sun Sep  8 20:45:02 2013
     Host name              : lpqlx131.ups-tlse.fr                    

 * Work memory size             :    64000000 =  488.28 megabytes.

 * Directories for basis set searches:
   1) /home/bast/DALTON-2013.0-Source/build/test_cc2dc_energy
   2) /home/bast/DALTON-2013.0-Source/build/basis


Compilation information
-----------------------

 Who compiled             | bast
 Host                     | lpqlx131.ups-tlse.fr
 System                   | Linux-3.8.5-201.fc18.x86_64
 CMake generator          | Unix Makefiles
 Processor                | x86_64
 64-bit integers          | OFF
 MPI                      | OFF
 Fortran compiler         | /usr/bin/gfortran
 Fortran compiler version | GNU Fortran (GCC) 4.7.2 20121109 (Red Hat 4.7.2-8)
 C compiler               | /usr/bin/gcc
 C compiler version       | gcc (GCC) 4.7.2 20121109 (Red Hat 4.7.2-8)
 C++ compiler             | /usr/bin/g++
 C++ compiler version     | g++ (GCC) 4.7.2 20121109 (Red Hat 4.7.2-8)
 Static linking           | OFF
 Last Git revision        | f34203295a86316e27f9e7b44f9b6769c4a046c0
 Configuration time       | 2013-09-08 20:31:27.952056


   Content of the .dal input file
 ----------------------------------

**DALTON INPUT                                    
.RUN WAVEFUNCTION                                 
**INTEGRALS                                       
.DIPLEN                                           
.NUCPOT                                           
.NELFLD                                           
.THETA                                            
.SECMOM                                           
*ONEINT                                           
.SOLVENT                                          
 10                                               
**WAVE FUNCTIONS                                  
.CC                                               
*SCF INPUT                                        
.THRESH                                           
1.0D-11                                           
*CC INP                                           
.CC2                                              
.THRLEQ                                           
 1.0D-9                                           
.THRENR                                           
 1.0D-9                                           
.MAX IT                                           
 90                                               
.MXLRV                                            
 180                                              
*CCSLV                                            
.SOLVAT                                           
 1                                                
10 4.00  78.54  1.778                             
.ETOLSL                                           
 1.0D-7                                           
.TTOLSL                                           
 1.0D-7                                           
.LTOLSL                                           
 1.0D-7                                           
.MXSLIT                                           
 200                                              
*CCFOP                                            
.DIPMOM                                           
.QUADRU                                           
.SECMOM                                           
.NONREL                                           
**END OF DALTON INPUT                             


   Content of the .mol file
 ----------------------------

BASIS                                                                          
cc-pVDZ                                                                        
H2O i H2O(DC)                                                                  
------------------------                                                       
    2    0         1 1.00D-12                                                  
        8.0   1                                                                
O            0.000000        0.000000        0.000000                          
        1.0   2                                                                
H           -0.756799        0.000000        0.586007                          
H            0.756799        0.000000        0.586007                          


       *******************************************************************
       *********** Output from DALTON general input processing ***********
       *******************************************************************

 --------------------------------------------------------------------------------
   Overall default print level:    0
   Print level for DALTON.STAT:    1

    HERMIT 1- and 2-electron integral sections will be executed
    "Old" integral transformation used (limited to max 255 basis functions)
    Wave function sections will be executed (SIRIUS module)
 --------------------------------------------------------------------------------


   ****************************************************************************
   *************** Output of molecule and basis set information ***************
   ****************************************************************************


    The two title cards from your ".mol" input:
    ------------------------------------------------------------------------
 1: H2O i H2O(DC)                                                           
 2: ------------------------                                                
    ------------------------------------------------------------------------

  Coordinates are entered in Angstrom and converted to atomic units.
          - Conversion factor : 1 bohr = 0.52917721 A

  Atomic type no.    1
  --------------------
  Nuclear charge:   8.00000
  Number of symmetry independent centers:    1
  Number of basis sets to read;    2
  Basis set file used for this atomic type with Z =   8 :
     "/home/bast/DALTON-2013.0-Source/build/basis/cc-pVDZ"

  Atomic type no.    2
  --------------------
  Nuclear charge:   1.00000
  Number of symmetry independent centers:    2
  Number of basis sets to read;    2
  Basis set file used for this atomic type with Z =   1 :
     "/home/bast/DALTON-2013.0-Source/build/basis/cc-pVDZ"


                         SYMGRP: Point group information
                         -------------------------------

Point group: C1 


                                 Isotopic Masses
                                 ---------------

                           O          15.994915
                           H           1.007825
                           H           1.007825

                       Total mass:    18.010565 amu
                       Natural abundance:  99.730 %

 Center-of-mass coordinates (a.u.):    0.000000    0.000000    0.123934


  Atoms and basis sets
  --------------------

  Number of atom types :    2
  Total number of atoms:    3

  Basis set used is "cc-pVDZ" from the basis set library.

  label    atoms   charge   prim   cont     basis
  ----------------------------------------------------------------------
  O           1    8.0000    26    14      [9s4p1d|3s2p1d]                                    
  H           2    1.0000     7     5      [4s1p|2s1p]                                        
  ----------------------------------------------------------------------
  total:      3   10.0000    40    24
  ----------------------------------------------------------------------
  Spherical harmonic basis used.

  Threshold for neglecting AO integrals:  1.00D-12


  Cartesian Coordinates (a.u.)
  ----------------------------

  Total number of coordinates:    9
  O       :     1  x   0.0000000000    2  y   0.0000000000    3  z   0.0000000000
  H       :     4  x  -1.4301428417    5  y   0.0000000000    6  z   1.1073927373
  H       :     7  x   1.4301428417    8  y   0.0000000000    9  z   1.1073927373


   Interatomic separations (in Angstrom):
   --------------------------------------

            O           H           H     
            ------      ------      ------
 O     :    0.000000
 H     :    0.957157    0.000000
 H     :    0.957157    1.513598    0.000000


  Max    interatomic separation is    1.5136 Angstrom (    2.8603 Bohr)
  between atoms    3 and    2, "H     " and "H     ".

  Min HX interatomic separation is    0.9572 Angstrom (    1.8088 Bohr)


  Bond distances (Angstrom):
  --------------------------

                  atom 1     atom 2       distance
                  ------     ------       --------
  bond distance:  H          O            0.957157
  bond distance:  H          O            0.957157


  Bond angles (degrees):
  ----------------------

                  atom 1     atom 2     atom 3         angle
                  ------     ------     ------         -----
  bond angle:     H          O          H            104.497




 Principal moments of inertia (u*A**2) and principal axes
 --------------------------------------------------------

   IA       0.614717          1.000000    0.000000    0.000000
   IB       1.154453          0.000000    0.000000    1.000000
   IC       1.769170          0.000000    1.000000    0.000000


 Rotational constants
 --------------------

 The molecule is planar.

               A                   B                   C

         822132.5951         437764.9384         285658.8058 MHz
           27.423392           14.602267            9.528552 cm-1


@  Nuclear repulsion energy :    9.195434983361 Hartree


                     .---------------------------------------.
                     | Starting in Integral Section (HERMIT) |
                     `---------------------------------------'



    *************************************************************************
    ****************** Output from HERMIT input processing ******************
    *************************************************************************


 Default print level:        1

 * Nuclear model: Point charge

 Calculation of one- and two-electron Hamiltonian integrals.

 The following one-electron property integrals are calculated as requested:
          - overlap integrals
          - dipole length integrals
          - traceless quadrupole moment integrals
          - second moment integrals
          - Electric field at the nuclei
          - Potential energy at the nuclei

 Center of mass  (bohr):      0.000000000000      0.000000000000      0.123933711741
 Operator center (bohr):      0.000000000000      0.000000000000      0.000000000000
 Gauge origin    (bohr):      0.000000000000      0.000000000000      0.000000000000
 Dipole origin   (bohr):      0.000000000000      0.000000000000      0.000000000000


  Changes of defaults for ONEINP:
  -------------------------------

 One-electron RLM integrals calculated.
 Maximum L quantum number: 10
 All symmetries saved on file.

 Cavity center (center of mass):    0.000000    0.000000    0.123934


     ************************************************************************
     ************************** Output from HERINT **************************
     ************************************************************************


 Threshold for neglecting two-electron integrals:  1.00D-12
 Number of two-electron integrals written:       21643 ( 47.9% )
 Megabytes written:                              0.254

 >>>> Total CPU  time used in HERMIT:   0.05 seconds
 >>>> Total wall time used in HERMIT:   0.06 seconds


                        .----------------------------------.
                        | End of Integral Section (HERMIT) |
                        `----------------------------------'



                   .--------------------------------------------.
                   | Starting in Wave Function Section (SIRIUS) |
                   `--------------------------------------------'


 *** Output from Huckel module :

     Using EWMO model:          T
     Using EHT  model:          F
     Number of Huckel orbitals each symmetry:    7

 EWMO - Energy Weighted Maximum Overlap - is a Huckel type method,
        which normally is better than Extended Huckel Theory.
 Reference: Linderberg and Ohrn, Propagators in Quantum Chemistry (Wiley, 1973)

 Huckel EWMO eigenvalues for symmetry :  1
          -20.684969      -1.611747      -0.778215      -0.688403      -0.616200
           -0.232246      -0.168120

 **********************************************************************
 *SIRIUS* a direct, restricted step, second order MCSCF program       *
 **********************************************************************

 
     Date and time (Linux)  : Sun Sep  8 20:45:02 2013
     Host name              : lpqlx131.ups-tlse.fr                    

 Title lines from ".mol" input file:
     H2O i H2O(DC)                                                           
     ------------------------                                                

 Print level on unit LUPRI =   2 is   0
 Print level on unit LUW4  =   2 is   5

@    (Integral direct) CC calculation.

@    This is a combination run starting with
@              a restricted, closed shell Hartree-Fock calculation


 Initial molecular orbitals are obtained according to
 ".MOSTART EWMO  " input option

     Wave function specification
     ============================

     For the specification of the Coupled Cluster: see later.

@    For the wave function of type :      >>> CC <<<
@    Number of closed shell electrons          10
@    Number of electrons in active shells       0
@    Total charge of the molecule               0

@    Spin multiplicity and 2 M_S                1         0
     Total number of symmetries                 1
@    Reference state symmetry                   1

     Orbital specifications
     ======================
     Abelian symmetry species          All |    1
                                       --- |  ---
@    Occupied SCF orbitals               5 |    5
     Secondary orbitals                 19 |   19
     Total number of orbitals           24 |   24
     Number of basis functions          24 |   24

     Optimization information
     ========================
@    Number of configurations                 1
@    Number of orbital rotations             95
     ------------------------------------------
@    Total number of variables               96

     Maximum number of Fock   iterations      0
     Maximum number of DIIS   iterations     60
     Maximum number of QC-SCF iterations     60
     Threshold for SCF convergence     1.00D-11


 Changes of defaults for CC:
 ---------------------------

 -Dipole moment calculated
 -Traceless quadrupole moment calculated
 -Electronic second moment of charge calculated
  


 >>>>> DIIS optimization of Hartree-Fock <<<<<

 C1-DIIS algorithm; max error vectors =   10

 Iter      Total energy        Error norm    Delta(E)  DIIS dim.
 -----------------------------------------------------------------------------
     (Precalculated two-electron integrals are transformed to P-supermatrix elements.
      Threshold for discarding integrals :  1.00D-12 )
@  1    -75.8496911503        1.64463D+00   -7.58D+01    1
      Virial theorem: -V/T =      2.000031
@      MULPOP O      -0.55; H       0.28; H       0.28; 
 -----------------------------------------------------------------------------
@  2    -76.0207798604        3.17728D-01   -1.71D-01    2
      Virial theorem: -V/T =      2.001328
@      MULPOP O      -0.26; H       0.13; H       0.13; 
 -----------------------------------------------------------------------------
@  3    -76.0262715963        7.02511D-02   -5.49D-03    3
      Virial theorem: -V/T =      2.000220
@      MULPOP O      -0.29; H       0.15; H       0.15; 
 -----------------------------------------------------------------------------
@  4    -76.0267731590        1.85957D-02   -5.02D-04    4
      Virial theorem: -V/T =      2.000749
@      MULPOP O      -0.30; H       0.15; H       0.15; 
 -----------------------------------------------------------------------------
@  5    -76.0267962922        6.86412D-03   -2.31D-05    5
      Virial theorem: -V/T =      2.000377
@      MULPOP O      -0.30; H       0.15; H       0.15; 
 -----------------------------------------------------------------------------
@  6    -76.0268007108        1.38078D-03   -4.42D-06    6
      Virial theorem: -V/T =      2.000481
@      MULPOP O      -0.31; H       0.15; H       0.15; 
 -----------------------------------------------------------------------------
@  7    -76.0268010489        1.80943D-04   -3.38D-07    7
      Virial theorem: -V/T =      2.000496
@      MULPOP O      -0.31; H       0.15; H       0.15; 
 -----------------------------------------------------------------------------
@  8    -76.0268010542        2.83317D-05   -5.26D-09    8
      Virial theorem: -V/T =      2.000496
@      MULPOP O      -0.31; H       0.15; H       0.15; 
 -----------------------------------------------------------------------------
@  9    -76.0268010543        5.29848D-06   -9.89D-11    9
      Virial theorem: -V/T =      2.000496
@      MULPOP O      -0.31; H       0.15; H       0.15; 
 -----------------------------------------------------------------------------
@ 10    -76.0268010543        3.07334D-07   -3.25D-12   10
      Virial theorem: -V/T =      2.000496
@      MULPOP O      -0.31; H       0.15; H       0.15; 
 -----------------------------------------------------------------------------
@ 11    -76.0268010543        3.08932D-08   -8.53D-14   10
      Virial theorem: -V/T =      2.000496
@      MULPOP O      -0.31; H       0.15; H       0.15; 
 -----------------------------------------------------------------------------
@ 12    -76.0268010543        3.30631D-09    2.84D-14   10
      Virial theorem: -V/T =      2.000496
@      MULPOP O      -0.31; H       0.15; H       0.15; 
 -----------------------------------------------------------------------------
@ 13    -76.0268010543        6.46763D-10    0.00D+00   10
      Virial theorem: -V/T =      2.000496
@      MULPOP O      -0.31; H       0.15; H       0.15; 
 -----------------------------------------------------------------------------
@ 14    -76.0268010543        5.24992D-11    1.42D-14   10
      Virial theorem: -V/T =      2.000496
@      MULPOP O      -0.31; H       0.15; H       0.15; 
 -----------------------------------------------------------------------------
@ 15    -76.0268010543        4.27645D-12   -2.84D-14   10

@ *** DIIS converged in  15 iterations !
@     Converged SCF energy, gradient:    -76.026801054310    4.28D-12
    - total time used in SIRFCK :              0.00 seconds


 *** SCF orbital energy analysis ***

 Only the five lowest virtual orbital energies printed in each symmetry.

 Number of electrons :   10
 Orbital occupations :    5

 Sym       Hartree-Fock orbital energies

  1    -20.55041934    -1.33674880    -0.69931601    -0.56662274    -0.49315893
         0.18558182     0.25626805     0.78932884     0.85449225     1.16351330

    E(LUMO) :     0.18558182 au (symmetry 1)
  - E(HOMO) :    -0.49315893 au (symmetry 1)
  ------------------------------------------
    gap     :     0.67874075 au

 >>> Writing SIRIFC interface file <<<

 >>>> CPU and wall time for SCF :       0.014       0.014


                       .-----------------------------------.
                       | >>> Final results from SIRIUS <<< |
                       `-----------------------------------'


@    Spin multiplicity:           1
@    Spatial symmetry:            1
@    Total charge of molecule:    0

@    Final HF energy:             -76.026801054310                 
@    Nuclear repulsion:             9.195434983361
@    Electronic energy:           -85.222236037670

@    Final gradient norm:           0.000000000004

 
     Date and time (Linux)  : Sun Sep  8 20:45:02 2013
     Host name              : lpqlx131.ups-tlse.fr                    

 (Only coefficients >0.0100 are printed.)

 Molecular orbitals for symmetry species  1
 ------------------------------------------

    Orbital         1        2        3        4        5        6        7
   1 O   :1s    -1.0004   0.0082   0.0000  -0.0022   0.0000   0.0520   0.0000
   2 O   :1s    -0.0023  -0.8703   0.0000   0.2956   0.0000  -0.1427  -0.0000
   3 O   :1s     0.0014   0.1229  -0.0000   0.1806   0.0000  -0.9210  -0.0000
   4 O   :2px   -0.0000  -0.0000  -0.7140   0.0000  -0.0000  -0.0000   0.4125
   5 O   :2py   -0.0000   0.0000  -0.0000  -0.0000   0.9196   0.0000  -0.0000
   6 O   :2pz   -0.0026  -0.1149  -0.0000  -0.7948  -0.0000  -0.2775  -0.0000
   7 O   :2px   -0.0000  -0.0000   0.1069  -0.0000   0.0000  -0.0000   0.4810
   8 O   :2py   -0.0000   0.0000  -0.0000  -0.0000   0.0721   0.0000  -0.0000
   9 O   :2pz    0.0017   0.0660  -0.0000   0.0007  -0.0000  -0.2091  -0.0000
  11 O   :3d1-  -0.0000   0.0000  -0.0000  -0.0000   0.0182   0.0000  -0.0000
  12 O   :3d0   -0.0000  -0.0012  -0.0000  -0.0179  -0.0000  -0.0075  -0.0000
  13 O   :3d1+  -0.0000  -0.0000  -0.0268  -0.0000   0.0000  -0.0000   0.0213
  15 H   :1s     0.0004  -0.3296   0.5582  -0.3512   0.0000   0.1002   0.0441
  16 H   :1s    -0.0006   0.1551  -0.1900   0.1358  -0.0000   0.7791   1.4227
  17 H   :2px    0.0006  -0.0373   0.0233  -0.0318   0.0000   0.0176   0.0208
  18 H   :2py    0.0000  -0.0000   0.0000   0.0000   0.0311  -0.0000   0.0000
  19 H   :2pz   -0.0005   0.0205  -0.0327  -0.0075   0.0000  -0.0163  -0.0172
  20 H   :1s     0.0004  -0.3296  -0.5582  -0.3512  -0.0000   0.1002  -0.0441
  21 H   :1s    -0.0006   0.1551   0.1900   0.1358  -0.0000   0.7791  -1.4227
  22 H   :2px   -0.0006   0.0373   0.0233   0.0318  -0.0000  -0.0176   0.0208
  23 H   :2py    0.0000  -0.0000   0.0000   0.0000   0.0311  -0.0000   0.0000
  24 H   :2pz   -0.0005   0.0205   0.0327  -0.0075   0.0000  -0.0163   0.0172



 >>>> Total CPU  time used in SIRIUS :      0.02 seconds
 >>>> Total wall time used in SIRIUS :      0.02 seconds

 
     Date and time (Linux)  : Sun Sep  8 20:45:02 2013
     Host name              : lpqlx131.ups-tlse.fr                    


                     .---------------------------------------.
                     | End of Wave Function Section (SIRIUS) |
                     `---------------------------------------'



                    .------------------------------------------.
                    | Starting in Coupled Cluster Section (CC) |
                    `------------------------------------------'

  

 *******************************************************************************
 *******************************************************************************
 *                                                                             *
 *                                                                             *
 *                    START OF COUPLED CLUSTER CALCULATION                     *
 *                                                                             *
 *                                                                             *
 *******************************************************************************
 *******************************************************************************



 CCR12 ANSATZ =   0

 CCR12 APPROX =   0

   

 *******************************************************************
 *                                                                 *
 *<<<<<<<<<<                                             >>>>>>>>>>*
 *<<<<<<<<<< OUTPUT FROM COUPLED CLUSTER ENERGY PROGRAM  >>>>>>>>>>*
 *<<<<<<<<<<                                             >>>>>>>>>>*
 *                                                                 *
 *******************************************************************


             The Direct Coupled Cluster Energy Program
             -----------------------------------------


          Number of t1 amplitudes                 :        95
          Number of t2 amplitudes                 :      4560
          Total number of amplitudes in ccsd      :      4655

 Iter.  1: Coupled cluster MP2   energy :     -76.2307602936362514
 Iter.  1: Coupled cluster CC2   energy :     -76.2307527872824409
 Iter.  2: Coupled cluster CC2   energy :     -76.2315500934232517
 Iter.  3: Coupled cluster CC2   energy :     -76.2316174218143914
 Iter.  4: Coupled cluster CC2   energy :     -76.2316035572554966
 Iter.  5: Coupled cluster CC2   energy :     -76.2316046518230479
 Iter.  6: Coupled cluster CC2   energy :     -76.2316052615336019
 Iter.  7: Coupled cluster CC2   energy :     -76.2316052683936931
 Iter.  8: Coupled cluster CC2   energy :     -76.2316052675615339

 CC2   energy converged to within   0.10D-08 is          -76.231605267562
 Final 2-norm of the CC vector function:  1.36317666D-06
  Change in norm^2 of T-amplitudes in this solvent it.:   2.4600305926058209E-002





             +-------------------------------------------------------+
             ! Final results from the Coupled Cluster energy program !
             +-------------------------------------------------------+



            Total SCF   energy:                   -76.0268010543

            Total MP2   energy:                   -76.2307602936

            Total CC2   energy:                   -76.2316052676




                   +--------------------------------------------+
                   ! Calculating singlet intermediates for CCLR !
                   +--------------------------------------------+



            E-intermediates calculated 
            Fock-intermediate calculated 


   

 *******************************************************************
 *                                                                 *
 *<<<<<<<<<<<<< OUTPUT FROM COUPLED CLUSTER RESPONSE  >>>>>>>>>>>>>*
 *                                                                 *
 *<<<<<<<<<<    CALCULATION OF FIRST ORDER PROPERTIES    >>>>>>>>>>*
 *                                                                 *
 *******************************************************************



                         +-------------------------------+
                         ! Coupled Cluster model is: CC2 !
                         +-------------------------------+

 RPA: call cceq_str
 RPA: exit cceq_str
  Change in norm^2 of L-amplitudes in this solvent it.:  0.19994468515658681     
 Total <Lambda|H|CC> energy:   -76.231605263269543     
            The singles contribution is:            -0.0000000005
            The doubles contribution is:             0.0000000048
 CCFOP: call CC_D1AO to recalc the 1e Density


                            +--------------------------+
                            ! CC2  Natural Occupations !
                            +--------------------------+

  
   Symmetry block number:  1
   ---------------------
  
   1.99990617   1.98689465   1.97387790   1.96988912   1.96787635
   0.02367566   0.02143063   0.01753559   0.01035796   0.00547637
   0.00518051   0.00470968   0.00409745   0.00399638   0.00094561
   0.00093868   0.00061771   0.00060401   0.00055415   0.00046588
   0.00044489   0.00041969   0.00005577   0.00004919
  
   Sum in this symmetry class:  10.000000
  
  
   Total Sum of natural occupation numbers:  10.000000
  
   Dynamical correlation move: 0.101556 electrons
   

 *******************************************************************
 *    Output from coupled cluster solvent program                  *
 *******************************************************************


 +=====================================================+
 | Lmax     Cavity(a.u.)    Epsilon_st      Epsilon_op |
 +-----------------------------------------------------+
 |  10       4.00000000    78.54000000      1.77800000 |
 +=====================================================+


                         +-------------------------------+
                         ! Coupled Cluster model is: CC2 !
                         +-------------------------------+

 Solvent energy contribution in iteration  0:        -0.0064632831
 CC energy in the  current solvent iteration:       -76.2380685464
 CC energy in the previous solvent iteration:         0.0000000000
 LSLECVG:  F
  Change in Total energy in this solvent it.:  -76.238068546366463     
 *******************************************************************
 *        End of coupled cluster solvent program                   *
 *******************************************************************
  


             +--------------------------------------------------------+
             ! Unrelaxed  CC2    First-order one-electron properties: !
             +--------------------------------------------------------+



                            +-------------------------+
                            !  Electric Dipole Moment !
                            +-------------------------+



                          Total Molecular Dipole Moment
                          -----------------------------

                 au               Debye          C m (/(10**-30)

      x      0.00000000         0.00000000         0.00000000
      y     -0.00000000        -0.00000000        -0.00000000
      z      0.76671339         1.94879094         6.50046686




                          +-----------------------------+
                          !  Electric Quadrupole Moment !
                          +-----------------------------+



                        Total Molecular quadrupole moment
                        ---------------------------------

                    X              Y              Z

               Column   1     Column   2     Column   3
       1       1.49802396    -0.00000000     0.00000000
       2      -0.00000000    -1.61725937    -0.00000000
       3       0.00000000    -0.00000000     0.11923541
    ==== End of matrix output ====


                      +-------------------------------------+
                      !  Electronic second moment of charge !
                      +-------------------------------------+

                    X              Y              Z

               Column   1     Column   2     Column   3
       1       7.27601048     0.00000000    -0.00000000
       2       0.00000000     5.26224893     0.00000000
       3      -0.00000000     0.00000000     6.55722310
    ==== End of matrix output ====

 Alfa**2 Invariant:                         40.515272
 Beta**2 Invariant:                          3.124424

 Isotropic Property:                         6.365161 a.u.
 Property anisotropy invariant:              1.767604 a.u.
   

 *******************************************************************
 *                                                                 *
 *<<<<<<<<<<                                             >>>>>>>>>>*
 *<<<<<<<<<< OUTPUT FROM COUPLED CLUSTER ENERGY PROGRAM  >>>>>>>>>>*
 *<<<<<<<<<<                                             >>>>>>>>>>*
 *                                                                 *
 *******************************************************************


             The Direct Coupled Cluster Energy Program
             -----------------------------------------


          Number of t1 amplitudes                 :        95
          Number of t2 amplitudes                 :      4560
          Total number of amplitudes in ccsd      :      4655

 Iter.  1: Coupled cluster RSTAR energy :     -76.2316052675615339
 Iter.  1: Coupled cluster CC2   energy :     -76.2314459312677997
 Iter.  2: Coupled cluster CC2   energy :     -76.2311761592256119
 Iter.  3: Coupled cluster CC2   energy :     -76.2311576671112050
 Iter.  4: Coupled cluster CC2   energy :     -76.2311627665877438
 Iter.  5: Coupled cluster CC2   energy :     -76.2311631270553107
 Iter.  6: Coupled cluster CC2   energy :     -76.2311628338086251
 Iter.  7: Coupled cluster CC2   energy :     -76.2311625886505908
 Iter.  8: Coupled cluster CC2   energy :     -76.2311625752775228
 Iter.  9: Coupled cluster CC2   energy :     -76.2311625771909860
 Iter. 10: Coupled cluster CC2   energy :     -76.2311625776933255

 CC2   energy converged to within   0.10D-08 is          -76.231162577693
 Final 2-norm of the CC vector function:  7.66471326D-08
  Change in norm^2 of T-amplitudes in this solvent it.:  -3.4029758512897634E-004





             +-------------------------------------------------------+
             ! Final results from the Coupled Cluster energy program !
             +-------------------------------------------------------+



            Total SCF   energy:                   -76.0268010543

            Total RSTAR energy:                   -76.2316052676

            Total CC2   energy:                   -76.2311625777




                   +--------------------------------------------+
                   ! Calculating singlet intermediates for CCLR !
                   +--------------------------------------------+



            E-intermediates calculated 
            Fock-intermediate calculated 


   

 *******************************************************************
 *                                                                 *
 *<<<<<<<<<<<<< OUTPUT FROM COUPLED CLUSTER RESPONSE  >>>>>>>>>>>>>*
 *                                                                 *
 *<<<<<<<<<<    CALCULATION OF FIRST ORDER PROPERTIES    >>>>>>>>>>*
 *                                                                 *
 *******************************************************************



                         +-------------------------------+
                         ! Coupled Cluster model is: CC2 !
                         +-------------------------------+

 RPA: call cceq_str
 Vector nr.  1 of symmetry  1 found on file - RESTART SUCCESS
 Start vector is a CC2       L0  vector
 RPA: exit cceq_str
  Change in norm^2 of L-amplitudes in this solvent it.:  -2.0497258954751962E-003
 Total <Lambda|H|CC> energy:   -76.231084101357823     
            The singles contribution is:             0.0002323028
            The doubles contribution is:            -0.0001538265
 CCFOP: call CC_D1AO to recalc the 1e Density


                            +--------------------------+
                            ! CC2  Natural Occupations !
                            +--------------------------+

  
   Symmetry block number:  1
   ---------------------
  
   1.99990585   1.98694308   1.97397834   1.97042724   1.96834271
   0.02312668   0.02087515   0.01748804   0.01048571   0.00551335
   0.00516994   0.00468430   0.00411537   0.00401097   0.00092351
   0.00091998   0.00060261   0.00057072   0.00051516   0.00045684
   0.00043384   0.00041241   0.00005287   0.00004532
  
   Sum in this symmetry class:  10.000000
  
  
   Total Sum of natural occupation numbers:  10.000000
  
   Dynamical correlation move: 0.100403 electrons
   

 *******************************************************************
 *    Output from coupled cluster solvent program                  *
 *******************************************************************


 +=====================================================+
 | Lmax     Cavity(a.u.)    Epsilon_st      Epsilon_op |
 +-----------------------------------------------------+
 |  10       4.00000000    78.54000000      1.77800000 |
 +=====================================================+


                         +-------------------------------+
                         ! Coupled Cluster model is: CC2 !
                         +-------------------------------+

 Solvent energy contribution in iteration  1:        -0.0075588132
 CC energy in the  current solvent iteration:       -76.2386429146
 CC energy in the previous solvent iteration:       -76.2380685464
 LSLECVG:  F
  Change in Total energy in this solvent it.:  -5.7436819253098292E-004
 *******************************************************************
 *        End of coupled cluster solvent program                   *
 *******************************************************************
  


             +--------------------------------------------------------+
             ! Unrelaxed  CC2    First-order one-electron properties: !
             +--------------------------------------------------------+



                            +-------------------------+
                            !  Electric Dipole Moment !
                            +-------------------------+



                          Total Molecular Dipole Moment
                          -----------------------------

                 au               Debye          C m (/(10**-30)

      x     -0.00000000        -0.00000000        -0.00000000
      y     -0.00000000        -0.00000000        -0.00000000
      z      0.83907107         2.13270580         7.11394080




                          +-----------------------------+
                          !  Electric Quadrupole Moment !
                          +-----------------------------+



                        Total Molecular quadrupole moment
                        ---------------------------------

                    X              Y              Z

               Column   1     Column   2     Column   3
       1       1.55757246    -0.00000000    -0.00000000
       2      -0.00000000    -1.69921244    -0.00000000
       3      -0.00000000    -0.00000000     0.14163997
    ==== End of matrix output ====


                      +-------------------------------------+
                      !  Electronic second moment of charge !
                      +-------------------------------------+

                    X              Y              Z

               Column   1     Column   2     Column   3
       1       7.19075156     0.00000000     0.00000000
       2       0.00000000     5.27132440     0.00000000
       3       0.00000000     0.00000000     6.49672680
    ==== End of matrix output ====

 Alfa**2 Invariant:                         39.937356
 Beta**2 Invariant:                          2.833741

 Isotropic Property:                         6.319601 a.u.
 Property anisotropy invariant:              1.683372 a.u.
   

 *******************************************************************
 *                                                                 *
 *<<<<<<<<<<                                             >>>>>>>>>>*
 *<<<<<<<<<< OUTPUT FROM COUPLED CLUSTER ENERGY PROGRAM  >>>>>>>>>>*
 *<<<<<<<<<<                                             >>>>>>>>>>*
 *                                                                 *
 *******************************************************************


             The Direct Coupled Cluster Energy Program
             -----------------------------------------


          Number of t1 amplitudes                 :        95
          Number of t2 amplitudes                 :      4560
          Total number of amplitudes in ccsd      :      4655

 Iter.  1: Coupled cluster RSTAR energy :     -76.2311625776933255
 Iter.  1: Coupled cluster CC2   energy :     -76.2311468466710664
 Iter.  2: Coupled cluster CC2   energy :     -76.2311246717870006
 Iter.  3: Coupled cluster CC2   energy :     -76.2311230686757142
 Iter.  4: Coupled cluster CC2   energy :     -76.2311233229466865
 Iter.  5: Coupled cluster CC2   energy :     -76.2311233702926501
 Iter.  6: Coupled cluster CC2   energy :     -76.2311233626235918
 Iter.  7: Coupled cluster CC2   energy :     -76.2311233429363284
 Iter.  8: Coupled cluster CC2   energy :     -76.2311233417324274
 Iter.  9: Coupled cluster CC2   energy :     -76.2311233418022454

 CC2   energy converged to within   0.10D-08 is          -76.231123341802
 Final 2-norm of the CC vector function:  1.77378450D-08
  Change in norm^2 of T-amplitudes in this solvent it.:   9.0141461494448738E-006





             +-------------------------------------------------------+
             ! Final results from the Coupled Cluster energy program !
             +-------------------------------------------------------+



            Total SCF   energy:                   -76.0268010543

            Total RSTAR energy:                   -76.2311625777

            Total CC2   energy:                   -76.2311233418




                   +--------------------------------------------+
                   ! Calculating singlet intermediates for CCLR !
                   +--------------------------------------------+



            E-intermediates calculated 
            Fock-intermediate calculated 


   

 *******************************************************************
 *                                                                 *
 *<<<<<<<<<<<<< OUTPUT FROM COUPLED CLUSTER RESPONSE  >>>>>>>>>>>>>*
 *                                                                 *
 *<<<<<<<<<<    CALCULATION OF FIRST ORDER PROPERTIES    >>>>>>>>>>*
 *                                                                 *
 *******************************************************************



                         +-------------------------------+
                         ! Coupled Cluster model is: CC2 !
                         +-------------------------------+

 RPA: call cceq_str
 Vector nr.  1 of symmetry  1 found on file - RESTART SUCCESS
 Start vector is a CC2       L0  vector
 RPA: exit cceq_str
  Change in norm^2 of L-amplitudes in this solvent it.:  -5.4568585273251369E-005
 Total <Lambda|H|CC> energy:   -76.230991173947757     
            The singles contribution is:             0.0002965562
            The doubles contribution is:            -0.0001643884
 CCFOP: call CC_D1AO to recalc the 1e Density


                            +--------------------------+
                            ! CC2  Natural Occupations !
                            +--------------------------+

  
   Symmetry block number:  1
   ---------------------
  
   1.99990582   1.98694591   1.97398631   1.97046979   1.96837955
   0.02308251   0.02083061   0.01748374   0.01049823   0.00551745
   0.00516849   0.00468219   0.00411688   0.00401219   0.00092176
   0.00091836   0.00060135   0.00056824   0.00051213   0.00045608
   0.00043296   0.00041178   0.00005265   0.00004503
  
   Sum in this symmetry class:  10.000000
  
  
   Total Sum of natural occupation numbers:  10.000000
  
   Dynamical correlation move: 0.100313 electrons
   

 *******************************************************************
 *    Output from coupled cluster solvent program                  *
 *******************************************************************


 +=====================================================+
 | Lmax     Cavity(a.u.)    Epsilon_st      Epsilon_op |
 +-----------------------------------------------------+
 |  10       4.00000000    78.54000000      1.77800000 |
 +=====================================================+


                         +-------------------------------+
                         ! Coupled Cluster model is: CC2 !
                         +-------------------------------+

 Solvent energy contribution in iteration  2:        -0.0076559824
 CC energy in the  current solvent iteration:       -76.2386471563
 CC energy in the previous solvent iteration:       -76.2386429146
 LSLECVG:  F
  Change in Total energy in this solvent it.:  -4.2417900374402961E-006
 *******************************************************************
 *        End of coupled cluster solvent program                   *
 *******************************************************************
  


             +--------------------------------------------------------+
             ! Unrelaxed  CC2    First-order one-electron properties: !
             +--------------------------------------------------------+



                            +-------------------------+
                            !  Electric Dipole Moment !
                            +-------------------------+



                          Total Molecular Dipole Moment
                          -----------------------------

                 au               Debye          C m (/(10**-30)

      x      0.00000000         0.00000000         0.00000000
      y     -0.00000000        -0.00000000        -0.00000000
      z      0.84536884         2.14871312         7.16733549




                          +-----------------------------+
                          !  Electric Quadrupole Moment !
                          +-----------------------------+



                        Total Molecular quadrupole moment
                        ---------------------------------

                    X              Y              Z

               Column   1     Column   2     Column   3
       1       1.56164095    -0.00000000     0.00000000
       2      -0.00000000    -1.70560224    -0.00000000
       3       0.00000000    -0.00000000     0.14396130
    ==== End of matrix output ====


                      +-------------------------------------+
                      !  Electronic second moment of charge !
                      +-------------------------------------+

                    X              Y              Z

               Column   1     Column   2     Column   3
       1       7.18451365     0.00000000    -0.00000000
       2       0.00000000     5.27205868     0.00000000
       3      -0.00000000     0.00000000     6.49165367
    ==== End of matrix output ====

 Alfa**2 Invariant:                         39.892808
 Beta**2 Invariant:                          2.812475

 Isotropic Property:                         6.316075 a.u.
 Property anisotropy invariant:              1.677044 a.u.
   

 *******************************************************************
 *                                                                 *
 *<<<<<<<<<<                                             >>>>>>>>>>*
 *<<<<<<<<<< OUTPUT FROM COUPLED CLUSTER ENERGY PROGRAM  >>>>>>>>>>*
 *<<<<<<<<<<                                             >>>>>>>>>>*
 *                                                                 *
 *******************************************************************


             The Direct Coupled Cluster Energy Program
             -----------------------------------------


          Number of t1 amplitudes                 :        95
          Number of t2 amplitudes                 :      4560
          Total number of amplitudes in ccsd      :      4655

 Iter.  1: Coupled cluster RSTAR energy :     -76.2311233418022454
 Iter.  1: Coupled cluster CC2   energy :     -76.2311219851278139
 Iter.  2: Coupled cluster CC2   energy :     -76.2311201043261519
 Iter.  3: Coupled cluster CC2   energy :     -76.2311199669149033
 Iter.  4: Coupled cluster CC2   energy :     -76.2311199854946580
 Iter.  5: Coupled cluster CC2   energy :     -76.2311199898022096
 Iter.  6: Coupled cluster CC2   energy :     -76.2311199894231066

 CC2   energy converged to within   0.10D-08 is          -76.231119989423
 Final 2-norm of the CC vector function:  2.73240057D-07
  Change in norm^2 of T-amplitudes in this solvent it.:   1.0622988140633616E-006





             +-------------------------------------------------------+
             ! Final results from the Coupled Cluster energy program !
             +-------------------------------------------------------+



            Total SCF   energy:                   -76.0268010543

            Total RSTAR energy:                   -76.2311233418

            Total CC2   energy:                   -76.2311199894




                   +--------------------------------------------+
                   ! Calculating singlet intermediates for CCLR !
                   +--------------------------------------------+



            E-intermediates calculated 
            Fock-intermediate calculated 


   

 *******************************************************************
 *                                                                 *
 *<<<<<<<<<<<<< OUTPUT FROM COUPLED CLUSTER RESPONSE  >>>>>>>>>>>>>*
 *                                                                 *
 *<<<<<<<<<<    CALCULATION OF FIRST ORDER PROPERTIES    >>>>>>>>>>*
 *                                                                 *
 *******************************************************************



                         +-------------------------------+
                         ! Coupled Cluster model is: CC2 !
                         +-------------------------------+

 RPA: call cceq_str
 Vector nr.  1 of symmetry  1 found on file - RESTART SUCCESS
 Start vector is a CC2       L0  vector
 RPA: exit cceq_str
  Change in norm^2 of L-amplitudes in this solvent it.:  -3.7187175012942664E-006
 Total <Lambda|H|CC> energy:   -76.230982856775398     
            The singles contribution is:             0.0003023994
            The doubles contribution is:            -0.0001652668
 CCFOP: call CC_D1AO to recalc the 1e Density


                            +--------------------------+
                            ! CC2  Natural Occupations !
                            +--------------------------+

  
   Symmetry block number:  1
   ---------------------
  
   1.99990581   1.98694614   1.97398698   1.97047340   1.96838266
   0.02307876   0.02082683   0.01748337   0.01049933   0.00551781
   0.00516835   0.00468201   0.00411701   0.00401229   0.00092161
   0.00091822   0.00060124   0.00056804   0.00051187   0.00045601
   0.00043288   0.00041172   0.00005264   0.00004501
  
   Sum in this symmetry class:  10.000000
  
  
   Total Sum of natural occupation numbers:  10.000000
  
   Dynamical correlation move: 0.100305 electrons
   

 *******************************************************************
 *    Output from coupled cluster solvent program                  *
 *******************************************************************


 +=====================================================+
 | Lmax     Cavity(a.u.)    Epsilon_st      Epsilon_op |
 +-----------------------------------------------------+
 |  10       4.00000000    78.54000000      1.77800000 |
 +=====================================================+


                         +-------------------------------+
                         ! Coupled Cluster model is: CC2 !
                         +-------------------------------+

 Solvent energy contribution in iteration  3:        -0.0076643317
 CC energy in the  current solvent iteration:       -76.2386471885
 CC energy in the previous solvent iteration:       -76.2386471563
 LSLECVG:  T
  Change in Total energy in this solvent it.:  -3.2110747838487441E-008
 *******************************************************************
 *        End of coupled cluster solvent program                   *
 *******************************************************************
  


             +--------------------------------------------------------+
             ! Unrelaxed  CC2    First-order one-electron properties: !
             +--------------------------------------------------------+



                            +-------------------------+
                            !  Electric Dipole Moment !
                            +-------------------------+



                          Total Molecular Dipole Moment
                          -----------------------------

                 au               Debye          C m (/(10**-30)

      x      0.00000000         0.00000000         0.00000000
      y     -0.00000000        -0.00000000        -0.00000000
      z      0.84591036         2.15008952         7.17192666




                          +-----------------------------+
                          !  Electric Quadrupole Moment !
                          +-----------------------------+



                        Total Molecular quadrupole moment
                        ---------------------------------

                    X              Y              Z

               Column   1     Column   2     Column   3
       1       1.56197343    -0.00000000     0.00000000
       2      -0.00000000    -1.70614151    -0.00000000
       3       0.00000000    -0.00000000     0.14416808
    ==== End of matrix output ====


                      +-------------------------------------+
                      !  Electronic second moment of charge !
                      +-------------------------------------+

                    X              Y              Z

               Column   1     Column   2     Column   3
       1       7.18399458     0.00000000    -0.00000000
       2       0.00000000     5.27212078     0.00000000
       3      -0.00000000     0.00000000     6.49121840
    ==== End of matrix output ====

 Alfa**2 Invariant:                         39.889051
 Beta**2 Invariant:                          2.810700

 Isotropic Property:                         6.315778 a.u.
 Property anisotropy invariant:              1.676514 a.u.
   

 *******************************************************************
 *                                                                 *
 *<<<<<<<<<<                                             >>>>>>>>>>*
 *<<<<<<<<<< OUTPUT FROM COUPLED CLUSTER ENERGY PROGRAM  >>>>>>>>>>*
 *<<<<<<<<<<                                             >>>>>>>>>>*
 *                                                                 *
 *******************************************************************


             The Direct Coupled Cluster Energy Program
             -----------------------------------------


          Number of t1 amplitudes                 :        95
          Number of t2 amplitudes                 :      4560
          Total number of amplitudes in ccsd      :      4655

 Iter.  1: Coupled cluster RSTAR energy :     -76.2311199894231066
 Iter.  1: Coupled cluster CC2   energy :     -76.2311198717372207
 Iter.  2: Coupled cluster CC2   energy :     -76.2311197104017850
 Iter.  3: Coupled cluster CC2   energy :     -76.2311196985219510
 Iter.  4: Coupled cluster CC2   energy :     -76.2311197000964427
 Iter.  5: Coupled cluster CC2   energy :     -76.2311197004760999

 CC2   energy converged to within   0.10D-08 is          -76.231119700476
 Final 2-norm of the CC vector function:  8.26547206D-08
  Change in norm^2 of T-amplitudes in this solvent it.:   9.2979070831500366E-008





             +-------------------------------------------------------+
             ! Final results from the Coupled Cluster energy program !
             +-------------------------------------------------------+



            Total SCF   energy:                   -76.0268010543

            Total RSTAR energy:                   -76.2311199894

            Total CC2   energy:                   -76.2311197005




                   +--------------------------------------------+
                   ! Calculating singlet intermediates for CCLR !
                   +--------------------------------------------+



            E-intermediates calculated 
            Fock-intermediate calculated 


   

 *******************************************************************
 *                                                                 *
 *<<<<<<<<<<<<< OUTPUT FROM COUPLED CLUSTER RESPONSE  >>>>>>>>>>>>>*
 *                                                                 *
 *<<<<<<<<<<    CALCULATION OF FIRST ORDER PROPERTIES    >>>>>>>>>>*
 *                                                                 *
 *******************************************************************



                         +-------------------------------+
                         ! Coupled Cluster model is: CC2 !
                         +-------------------------------+

 RPA: call cceq_str
 Vector nr.  1 of symmetry  1 found on file - RESTART SUCCESS
 Start vector is a CC2       L0  vector
 RPA: exit cceq_str
  Change in norm^2 of L-amplitudes in this solvent it.:  -3.1096995756207946E-007
 Total <Lambda|H|CC> energy:   -76.230982140359458     
            The singles contribution is:             0.0003029014
            The doubles contribution is:            -0.0001653413
 CCFOP: call CC_D1AO to recalc the 1e Density


                            +--------------------------+
                            ! CC2  Natural Occupations !
                            +--------------------------+

  
   Symmetry block number:  1
   ---------------------
  
   1.99990581   1.98694616   1.97398704   1.97047371   1.96838293
   0.02307844   0.02082650   0.01748333   0.01049942   0.00551784
   0.00516834   0.00468199   0.00411702   0.00401230   0.00092160
   0.00091821   0.00060123   0.00056802   0.00051185   0.00045601
   0.00043288   0.00041172   0.00005264   0.00004501
  
   Sum in this symmetry class:  10.000000
  
  
   Total Sum of natural occupation numbers:  10.000000
  
   Dynamical correlation move: 0.100304 electrons
   

 *******************************************************************
 *    Output from coupled cluster solvent program                  *
 *******************************************************************


 +=====================================================+
 | Lmax     Cavity(a.u.)    Epsilon_st      Epsilon_op |
 +-----------------------------------------------------+
 |  10       4.00000000    78.54000000      1.77800000 |
 +=====================================================+


                         +-------------------------------+
                         ! Coupled Cluster model is: CC2 !
                         +-------------------------------+

 Solvent energy contribution in iteration  4:        -0.0076650482
 CC energy in the  current solvent iteration:       -76.2386471885
 CC energy in the previous solvent iteration:       -76.2386471885
 LSLECVG:  T
  Change in Total energy in this solvent it.:  -6.0509819377330132E-011
 *******************************************************************
 *        End of coupled cluster solvent program                   *
 *******************************************************************
  


             +--------------------------------------------------------+
             ! Unrelaxed  CC2    First-order one-electron properties: !
             +--------------------------------------------------------+



                            +-------------------------+
                            !  Electric Dipole Moment !
                            +-------------------------+



                          Total Molecular Dipole Moment
                          -----------------------------

                 au               Debye          C m (/(10**-30)

      x      0.00000000         0.00000000         0.00000000
      y     -0.00000000        -0.00000000        -0.00000000
      z      0.84595685         2.15020770         7.17232087




                          +-----------------------------+
                          !  Electric Quadrupole Moment !
                          +-----------------------------+



                        Total Molecular quadrupole moment
                        ---------------------------------

                    X              Y              Z

               Column   1     Column   2     Column   3
       1       1.56200167    -0.00000000     0.00000000
       2      -0.00000000    -1.70618765    -0.00000000
       3       0.00000000    -0.00000000     0.14418597
    ==== End of matrix output ====


                      +-------------------------------------+
                      !  Electronic second moment of charge !
                      +-------------------------------------+

                    X              Y              Z

               Column   1     Column   2     Column   3
       1       7.18395031     0.00000000    -0.00000000
       2       0.00000000     5.27212610     0.00000000
       3      -0.00000000     0.00000000     6.49118103
    ==== End of matrix output ====

 Alfa**2 Invariant:                         39.888729
 Beta**2 Invariant:                          2.810548

 Isotropic Property:                         6.315752 a.u.
 Property anisotropy invariant:              1.676469 a.u.
   

 *******************************************************************
 *                                                                 *
 *<<<<<<<<<<                                             >>>>>>>>>>*
 *<<<<<<<<<< OUTPUT FROM COUPLED CLUSTER ENERGY PROGRAM  >>>>>>>>>>*
 *<<<<<<<<<<                                             >>>>>>>>>>*
 *                                                                 *
 *******************************************************************


             The Direct Coupled Cluster Energy Program
             -----------------------------------------


          Number of t1 amplitudes                 :        95
          Number of t2 amplitudes                 :      4560
          Total number of amplitudes in ccsd      :      4655

 Iter.  1: Coupled cluster RSTAR energy :     -76.2311197004760999
 Iter.  1: Coupled cluster CC2   energy :     -76.2311196904489634
 Iter.  2: Coupled cluster CC2   energy :     -76.2311196765322165
 Iter.  3: Coupled cluster CC2   energy :     -76.2311196754959752
 Iter.  4: Coupled cluster CC2   energy :     -76.2311196756223666

 CC2   energy converged to within   0.10D-08 is          -76.231119675622
 Final 2-norm of the CC vector function:  3.50119269D-08
  Change in norm^2 of T-amplitudes in this solvent it.:   7.9328989141536077E-009





             +-------------------------------------------------------+
             ! Final results from the Coupled Cluster energy program !
             +-------------------------------------------------------+



            Total SCF   energy:                   -76.0268010543

            Total RSTAR energy:                   -76.2311197005

            Total CC2   energy:                   -76.2311196756




                   +--------------------------------------------+
                   ! Calculating singlet intermediates for CCLR !
                   +--------------------------------------------+



            E-intermediates calculated 
            Fock-intermediate calculated 


   

 *******************************************************************
 *                                                                 *
 *<<<<<<<<<<<<< OUTPUT FROM COUPLED CLUSTER RESPONSE  >>>>>>>>>>>>>*
 *                                                                 *
 *<<<<<<<<<<    CALCULATION OF FIRST ORDER PROPERTIES    >>>>>>>>>>*
 *                                                                 *
 *******************************************************************



                         +-------------------------------+
                         ! Coupled Cluster model is: CC2 !
                         +-------------------------------+

 RPA: call cceq_str
 Vector nr.  1 of symmetry  1 found on file - RESTART SUCCESS
 Start vector is a CC2       L0  vector
 RPA: exit cceq_str
  Change in norm^2 of L-amplitudes in this solvent it.:  -2.6617321180477660E-008
 Total <Lambda|H|CC> energy:   -76.230982078522828     
            The singles contribution is:             0.0003029445
            The doubles contribution is:            -0.0001653474
 CCFOP: call CC_D1AO to recalc the 1e Density


                            +--------------------------+
                            ! CC2  Natural Occupations !
                            +--------------------------+

  
   Symmetry block number:  1
   ---------------------
  
   1.99990581   1.98694616   1.97398704   1.97047374   1.96838295
   0.02307841   0.02082648   0.01748333   0.01049943   0.00551784
   0.00516834   0.00468199   0.00411702   0.00401230   0.00092160
   0.00091821   0.00060123   0.00056802   0.00051185   0.00045601
   0.00043288   0.00041172   0.00005264   0.00004501
  
   Sum in this symmetry class:  10.000000
  
  
   Total Sum of natural occupation numbers:  10.000000
  
   Dynamical correlation move: 0.100304 electrons
   

 *******************************************************************
 *    Output from coupled cluster solvent program                  *
 *******************************************************************


 +=====================================================+
 | Lmax     Cavity(a.u.)    Epsilon_st      Epsilon_op |
 +-----------------------------------------------------+
 |  10       4.00000000    78.54000000      1.77800000 |
 +=====================================================+


                         +-------------------------------+
                         ! Coupled Cluster model is: CC2 !
                         +-------------------------------+

 Solvent energy contribution in iteration  5:        -0.0076651096
 CC energy in the  current solvent iteration:       -76.2386471881
 CC energy in the previous solvent iteration:       -76.2386471885
 LSLECVG:  T
  Change in Total energy in this solvent it.:   3.7177017020439962E-010

 Coupled cluster solvent equations are converged in   5 solvent iterations

 CC2     converged energy in solvent:            -76.2386471881485193


 CC2     solvation energy:                        -0.0076651096256933

 *******************************************************************
 *        End of coupled cluster solvent program                   *
 *******************************************************************
  


             +--------------------------------------------------------+
             ! Unrelaxed  CC2    First-order one-electron properties: !
             +--------------------------------------------------------+



                            +-------------------------+
                            !  Electric Dipole Moment !
                            +-------------------------+



                          Total Molecular Dipole Moment
                          -----------------------------

                 au               Debye          C m (/(10**-30)

      x      0.00000000         0.00000000         0.00000000
      y     -0.00000000        -0.00000000        -0.00000000
      z      0.84596084         2.15021785         7.17235472




                          +-----------------------------+
                          !  Electric Quadrupole Moment !
                          +-----------------------------+



                        Total Molecular quadrupole moment
                        ---------------------------------

                    X              Y              Z

               Column   1     Column   2     Column   3
       1       1.56200407    -0.00000000     0.00000000
       2      -0.00000000    -1.70619159    -0.00000000
       3       0.00000000    -0.00000000     0.14418752
    ==== End of matrix output ====


                      +-------------------------------------+
                      !  Electronic second moment of charge !
                      +-------------------------------------+

                    X              Y              Z

               Column   1     Column   2     Column   3
       1       7.18394655     0.00000000    -0.00000000
       2       0.00000000     5.27212656     0.00000000
       3      -0.00000000     0.00000000     6.49117783
    ==== End of matrix output ====

 Alfa**2 Invariant:                         39.888702
 Beta**2 Invariant:                          2.810535

 Isotropic Property:                         6.315750 a.u.
 Property anisotropy invariant:              1.676465 a.u.
  

 *******************************************************************************
 *******************************************************************************
 *                                                                             *
 *                                                                             *
 *                   SUMMARY OF COUPLED CLUSTER CALCULATION                    *
 *                                                                             *
 *                                                                             *
 *******************************************************************************
 *******************************************************************************

                                                                                
                                                                                
            Total SCF   energy:                   -76.0268010543                
            Total MP2   energy:                   -76.2307602936                
            Total CC2   energy:                   -76.2316052676                
                                                                                
                                                                                
            Total SCF   energy:                   -76.0268010543                
            Total RSTAR energy:                   -76.2316052676                
            Total CC2   energy:                   -76.2311625777                
                                                                                
                                                                                
            Total SCF   energy:                   -76.0268010543                
            Total RSTAR energy:                   -76.2311625777                
            Total CC2   energy:                   -76.2311233418                
                                                                                
                                                                                
            Total SCF   energy:                   -76.0268010543                
            Total RSTAR energy:                   -76.2311233418                
            Total CC2   energy:                   -76.2311199894                
                                                                                
                                                                                
            Total SCF   energy:                   -76.0268010543                
            Total RSTAR energy:                   -76.2311199894                
            Total CC2   energy:                   -76.2311197005                
                                                                                
                                                                                
            Total SCF   energy:                   -76.0268010543                
            Total RSTAR energy:                   -76.2311197005                
            Total CC2   energy:                   -76.2311196756                
                                                                                
 Solvent: L_max=10, R_cav=  4.0000, Eps_st = 78.5400, Eps_op =  1.7780:         
            CC2      Total energy:                 -76.2386471881               
            CC2      Solvation energy:              -0.0076651096               
                                                                                
  

 *******************************************************************************
 *******************************************************************************
 *                                                                             *
 *                                                                             *
 *                      END OF COUPLED CLUSTER CALCULATION                     *
 *                                                                             *
 *                                                                             *
 *******************************************************************************
 *******************************************************************************


 >>>> CPU and wall time for CC :       2.179       2.338

 
     Date and time (Linux)  : Sun Sep  8 20:45:04 2013
     Host name              : lpqlx131.ups-tlse.fr                    


                      .-------------------------------------.
                      | End of Coupled Cluster Section (CC) |
                      `-------------------------------------'

 >>>> Total CPU  time used in DALTON:   2.25 seconds
 >>>> Total wall time used in DALTON:   2.41 seconds

 
     Date and time (Linux)  : Sun Sep  8 20:45:04 2013
     Host name              : lpqlx131.ups-tlse.fr                    
