

     ************************************************************************
     *************** Dalton - An Electronic Structure Program ***************
     ************************************************************************

    This is output from DALTON (Release Dalton2013 patch 0)
   ----------------------------------------------------------------------------
    NOTE:
     
    Dalton is an experimental code for the evaluation of molecular
    properties using (MC)SCF, DFT, CI, and CC wave functions.
    The authors accept no responsibility for the performance of
    the code or for the correctness of the results.
     
    The code (in whole or part) is provided under a licence and
    is not to be reproduced for further distribution without
    the written permission of the authors or their representatives.
     
    See the home page "http://daltonprogram.org" for further information.
     
    If results obtained with this code are published,
    the appropriate citations would be both of:
     
       K. Aidas, C. Angeli, K. L. Bak, V. Bakken, R. Bast,
       L. Boman, O. Christiansen, R. Cimiraglia, S. Coriani,
       P. Dahle, E. K. Dalskov, U. Ekstroem, T. Enevoldsen,
       J. J. Eriksen, P. Ettenhuber, B. Fernandez, L. Ferrighi,
       H. Fliegl, L. Frediani, K. Hald, A. Halkier, C. Haettig,
       H. Heiberg, T. Helgaker, A. C. Hennum, H. Hettema,
       E. Hjertenaes, S. Hoest, I.-M. Hoeyvik, M. F. Iozzi,
       B. Jansik, H. J. Aa. Jensen, D. Jonsson, P. Joergensen,
       J. Kauczor, S. Kirpekar, T. Kjaergaard, W. Klopper,
       S. Knecht, R. Kobayashi, H. Koch, J. Kongsted, A. Krapp,
       K. Kristensen, A. Ligabue, O. B. Lutnaes, J. I. Melo,
       K. V. Mikkelsen, R. H. Myhre, C. Neiss, C. B. Nielsen,
       P. Norman, J. Olsen, J. M. H. Olsen, A. Osted,
       M. J. Packer, F. Pawlowski, T. B. Pedersen, P. F. Provasi,
       S. Reine, Z. Rinkevicius, T. A. Ruden, K. Ruud, V. Rybkin,
       P. Salek, C. C. M. Samson, A. Sanchez de Meras, T. Saue,
       S. P. A. Sauer, B. Schimmelpfennig, K. Sneskov,
       A. H. Steindal, K. O. Sylvester-Hvid, P. R. Taylor,
       A. M. Teale, E. I. Tellgren, D. P. Tew, A. J. Thorvaldsen,
       L. Thoegersen, O. Vahtras, M. A. Watson, D. J. D. Wilson,
       M. Ziolkowski and H. Agren.
       The Dalton quantum chemistry program system.
       WIREs Comput. Mol. Sci. 2013. doi: 10.1002/wcms.1172
    
    and
    
       Dalton, a Molecular Electronic Structure Program,
       Release DALTON2013.0 (2013), see http://daltonprogram.org
   ----------------------------------------------------------------------------

    Authors in alphabetical order (major contribution(s) in parenthesis):

  Kestutis Aidas,           Vilnius University,           Lithuania   (QM/MM)
  Celestino Angeli,         University of Ferrara,        Italy       (NEVPT2)
  Keld L. Bak,              UNI-C,                        Denmark     (AOSOPPA, non-adiabatic coupling, magnetic properties)
  Vebjoern Bakken,          University of Oslo,           Norway      (DALTON; geometry optimizer, symmetry detection)
  Radovan Bast,             KTH Stockholm                 Sweden      (DALTON installation and execution frameworks)
  Linus Boman,              NTNU,                         Norway      (Cholesky decomposition and subsystems)
  Ove Christiansen,         Aarhus University,            Denmark     (CC module)
  Renzo Cimiraglia,         University of Ferrara,        Italy       (NEVPT2)
  Sonia Coriani,            University of Trieste,        Italy       (CC module, MCD in RESPONS)
  Paal Dahle,               University of Oslo,           Norway      (Parallelization)
  Erik K. Dalskov,          UNI-C,                        Denmark     (SOPPA)
  Thomas Enevoldsen,        Univ. of Southern Denmark,    Denmark     (SOPPA)
  Janus J. Eriksen,         Aarhus University,            Denmark     (PE-MP2/SOPPA, TDA)
  Berta Fernandez,          U. of Santiago de Compostela, Spain       (doublet spin, ESR in RESPONS)
  Lara Ferrighi,            Aarhus University,            Denmark     (PCM Cubic response)
  Heike Fliegl,             University of Oslo,           Norway      (CCSD(R12))
  Luca Frediani,            UiT The Arctic U. of Norway,  Norway      (PCM)
  Bin Gao,                  UiT The Arctic U. of Norway,  Norway      (Gen1Int library)
  Christof Haettig,         Ruhr-University Bochum,       Germany     (CC module)
  Kasper Hald,              Aarhus University,            Denmark     (CC module)
  Asger Halkier,            Aarhus University,            Denmark     (CC module)
  Hanne Heiberg,            University of Oslo,           Norway      (geometry analysis, selected one-electron integrals)
  Trygve Helgaker,          University of Oslo,           Norway      (DALTON; ABACUS, ERI, DFT modules, London, and much more)
  Alf Christian Hennum,     University of Oslo,           Norway      (Parity violation)
  Hinne Hettema,            University of Auckland,       New Zealand (quadratic response in RESPONS; SIRIUS supersymmetry)
  Eirik Hjertenaes,         NTNU,                         Norway      (Cholesky decomposition)
  Maria Francesca Iozzi,    University of Oslo,           Norway      (RPA)
  Brano Jansik              Technical Univ. of Ostrava    Czech Rep.  (DFT cubic response)
  Hans Joergen Aa. Jensen,  Univ. of Southern Denmark,    Denmark     (DALTON; SIRIUS, RESPONS, ABACUS modules, London, and much more)
  Dan Jonsson,              UiT The Arctic U. of Norway,  Norway      (cubic response in RESPONS module)
  Poul Joergensen,          Aarhus University,            Denmark     (RESPONS, ABACUS, and CC modules)
  Joanna Kauczor,           Linkoeping University,        Sweden      (Complex polarization propagator (CPP) module)
  Sheela Kirpekar,          Univ. of Southern Denmark,    Denmark     (Mass-velocity & Darwin integrals)
  Wim Klopper,              KIT Karlsruhe,                Germany     (R12 code in CC, SIRIUS, and ABACUS modules)
  Stefan Knecht,            ETH Zurich,                   Switzerland (Parallel CI and MCSCF)
  Rika Kobayashi,           Australian National Univ.,    Australia   (DIIS in CC, London in MCSCF)
  Henrik Koch,              NTNU,                         Norway      (CC module, Cholesky decomposition)
  Jacob Kongsted,           Univ. of Southern Denmark,    Denmark     (Polarizable embedding, QM/MM)
  Andrea Ligabue,           University of Modena,         Italy       (CTOCD, AOSOPPA)
  Ola B. Lutnaes,           University of Oslo,           Norway      (DFT Hessian)
  Juan I. Melo,             University of Buenos Aires,   Argentina   (LRESC, Relativistic Effects on NMR Shieldings)
  Kurt V. Mikkelsen,        University of Copenhagen,     Denmark     (MC-SCRF and QM/MM)
  Rolf H. Myhre,            NTNU,                         Norway      (Cholesky, subsystems and ECC2)
  Christian Neiss,          Univ. Erlangen-Nuernberg,     Germany     (CCSD(R12))
  Christian B. Nielsen,     University of Copenhagen,     Denmark     (QM/MM)
  Patrick Norman,           Linkoeping University,        Sweden      (Cubic response and complex response in RESPONS)
  Jeppe Olsen,              Aarhus University,            Denmark     (SIRIUS CI/density modules)
  Jogvan Magnus H. Olsen,   Univ. of Southern Denmark,    Denmark     (Polarizable embedding, PE library, QM/MM)
  Anders Osted,             Copenhagen University,        Denmark     (QM/MM)
  Martin J. Packer,         University of Sheffield,      UK          (SOPPA)
  Filip Pawlowski,          Kazimierz Wielki University   Poland      (CC3)
  Thomas B. Pedersen,       University of Oslo,           Norway      (Cholesky decomposition)
  Patricio F. Provasi,      University of Northeastern,   Argentina   (Analysis of coupling constants in localized orbitals)
  Zilvinas Rinkevicius,     KTH Stockholm,                Sweden      (open-shell DFT, ESR)
  Elias Rudberg,            KTH Stockholm,                Sweden      (DFT grid and basis info)
  Torgeir A. Ruden,         University of Oslo,           Norway      (Numerical derivatives in ABACUS)
  Kenneth Ruud,             UiT The Arctic U. of Norway,  Norway      (DALTON; ABACUS magnetic properties and  much more)
  Pawel Salek,              KTH Stockholm,                Sweden      (DALTON; DFT code)
  Claire C. M. Samson       University of Karlsruhe       Germany     (Boys localization, r12 integrals in ERI)
  Alfredo Sanchez de Meras, University of Valencia,       Spain       (CC module, Cholesky decomposition)
  Trond Saue,               Paul Sabatier University,     France      (direct Fock matrix construction)
  Stephan P. A. Sauer,      University of Copenhagen,     Denmark     (SOPPA(CCSD), SOPPA prop., AOSOPPA, vibrational g-factors)
  Bernd Schimmelpfennig,    Forschungszentrum Karlsruhe,  Germany     (AMFI module)
  Kristian Sneskov,         Aarhus University,            Denmark     (QM/MM, PE-CC)
  Arnfinn H. Steindal,      UiT The Arctic U. of Norway,  Norway      (parallel QM/MM)
  K. O. Sylvester-Hvid,     University of Copenhagen,     Denmark     (MC-SCRF)
  Peter R. Taylor,          VLSCI/Univ. of Melbourne,     Australia   (Symmetry handling ABACUS, integral transformation)
  Andrew M. Teale,          University of Nottingham,     England     (DFT-AC, DFT-D)
  David P. Tew,             University of Bristol,        England     (CCSD(R12))
  Olav Vahtras,             KTH Stockholm,                Sweden      (triplet response, spin-orbit, ESR, TDDFT, open-shell DFT)
  David J. Wilson,          La Trobe University,          Australia   (DFT Hessian and DFT magnetizabilities)
  Hans Agren,               KTH Stockholm,                Sweden      (SIRIUS module, RESPONS, MC-SCRF solvation model)
 --------------------------------------------------------------------------------

     Date and time (Linux)  : Sun Sep  8 20:43:08 2013
     Host name              : lpqlx131.ups-tlse.fr                    

 * Work memory size             :    64000000 =  488.28 megabytes.

 * Directories for basis set searches:
   1) /home/bast/DALTON-2013.0-Source/build/test_cc3_LIH_431G_cauchy_12
   2) /home/bast/DALTON-2013.0-Source/build/basis


Compilation information
-----------------------

 Who compiled             | bast
 Host                     | lpqlx131.ups-tlse.fr
 System                   | Linux-3.8.5-201.fc18.x86_64
 CMake generator          | Unix Makefiles
 Processor                | x86_64
 64-bit integers          | OFF
 MPI                      | OFF
 Fortran compiler         | /usr/bin/gfortran
 Fortran compiler version | GNU Fortran (GCC) 4.7.2 20121109 (Red Hat 4.7.2-8)
 C compiler               | /usr/bin/gcc
 C compiler version       | gcc (GCC) 4.7.2 20121109 (Red Hat 4.7.2-8)
 C++ compiler             | /usr/bin/g++
 C++ compiler version     | g++ (GCC) 4.7.2 20121109 (Red Hat 4.7.2-8)
 Static linking           | OFF
 Last Git revision        | f34203295a86316e27f9e7b44f9b6769c4a046c0
 Configuration time       | 2013-09-08 20:31:27.952056


   Content of the .dal input file
 ----------------------------------

**DALTON                                          
.RUN WAVEFUNCTIONS                                
**INTEGRAL                                        
.DIPLEN                                           
.ANGMOM                                           
.THETA                                            
**WAVE FUNCTIONS                                  
.CC                                               
*ORBITALS                                         
.NOSUPSYM                                         
!.MOSTART                                         
!.H1DIAG                                          
*SCF INPUT                                        
.THRESH                                           
 1.0d-12                                          
*CC INPUT                                         
.CC3                                              
.THRENR                                           
 1.0d-14                                          
.THRLEQ                                           
 1.0d-10                                          
.PRINT                                            
 1                                                
.MAXRED                                           
 1000                                             
.MXLRV                                            
 111                                              
.RESTART                                          
*CCLR                                             
!.ASYMSD                                          
!.OLD_LR                                          
.OPERATOR                                         
ZDIPLEN ZDIPLEN                                   
.DISPCF                                           
  12                                              
!*NODDY                                           
!.XI                                              
!.ETA                                             
!.FMAT                                            
!.FNOALT                                          
!.XIDEN                                           
!.ETADEN                                          
**END OF DALTON                                   


   Content of the .mol file
 ----------------------------

BASIS                                                                          
4-31G                                                                          
Lithium flourid                                                                
small test basis                                                               
    2    0  Y  X      1.00D-15                                                 
        3.0   1                                                                
Li    0.0000000000000000  0.0000000000000000 1.30000000000000000               
        1.0   1                                                                
H     0.0000000000000000  0.0000000000000000 0.00000000000000000               


       *******************************************************************
       *********** Output from DALTON general input processing ***********
       *******************************************************************

 --------------------------------------------------------------------------------
   Overall default print level:    0
   Print level for DALTON.STAT:    1

    HERMIT 1- and 2-electron integral sections will be executed
    "Old" integral transformation used (limited to max 255 basis functions)
    Wave function sections will be executed (SIRIUS module)
 --------------------------------------------------------------------------------


   ****************************************************************************
   *************** Output of molecule and basis set information ***************
   ****************************************************************************


    The two title cards from your ".mol" input:
    ------------------------------------------------------------------------
 1: Lithium flourid                                                         
 2: small test basis                                                        
    ------------------------------------------------------------------------

  Atomic type no.    1
  --------------------
  Nuclear charge:   3.00000
  Number of symmetry independent centers:    1
  Number of basis sets to read;    2
  Basis set file used for this atomic type with Z =   3 :
     "/home/bast/DALTON-2013.0-Source/build/basis/4-31G"

  Atomic type no.    2
  --------------------
  Nuclear charge:   1.00000
  Number of symmetry independent centers:    1
  Number of basis sets to read;    2
  Basis set file used for this atomic type with Z =   1 :
     "/home/bast/DALTON-2013.0-Source/build/basis/4-31G"


                         SYMGRP: Point group information
                         -------------------------------

Point group: C1 


                                 Isotopic Masses
                                 ---------------

                           Li          7.016005
                           H           1.007825

                       Total mass:     8.023830 amu
                       Natural abundance:  92.486 %

 Center-of-mass coordinates (a.u.):    0.000000    0.000000    1.136715


  Atoms and basis sets
  --------------------

  Number of atom types :    2
  Total number of atoms:    2

  Basis set used is "4-31G" from the basis set library.

  label    atoms   charge   prim   cont     basis
  ----------------------------------------------------------------------
  Li          1    3.0000    17     9      [8s3p|3s2p]                                        
  H           1    1.0000     4     2      [4s|2s]                                            
  ----------------------------------------------------------------------
  total:      2    4.0000    21    11
  ----------------------------------------------------------------------

  Threshold for neglecting AO integrals:  1.00D-15


  Cartesian Coordinates (a.u.)
  ----------------------------

  Total number of coordinates:    6
  Li      :     1  x   0.0000000000    2  y   0.0000000000    3  z   1.3000000000
  H       :     4  x   0.0000000000    5  y   0.0000000000    6  z   0.0000000000


   Interatomic separations (in Angstrom):
   --------------------------------------

            Li          H     
            ------      ------
 Li    :    0.000000
 H     :    0.687930    0.000000


  Max    interatomic separation is    0.6879 Angstrom (    1.3000 Bohr)
  between atoms    2 and    1, "H     " and "Li    ".

  Min HX interatomic separation is    0.6879 Angstrom (    1.3000 Bohr)

WARNING: Number of short HX and YX bond lengths:    1    0
WARNING: If not intentional, maybe your coordinates were in Angstrom,
WARNING: but "Angstrom" was not specified in .mol file


  Bond distances (Angstrom):
  --------------------------

                  atom 1     atom 2       distance
                  ------     ------       --------
  bond distance:  H          Li           0.687930




 Principal moments of inertia (u*A**2) and principal axes
 --------------------------------------------------------

   IA       0.000000          0.000000    0.000000    1.000000
   IB       0.417044          0.000000    1.000000    0.000000
   IC       0.417044          1.000000    0.000000    0.000000


 Rotational constants
 --------------------

 The molecule is linear.

               B =      1211811.11 MHz     (   40.421667 cm-1)


@  Nuclear repulsion energy :    2.307692307692 Hartree


                     .---------------------------------------.
                     | Starting in Integral Section (HERMIT) |
                     `---------------------------------------'



    *************************************************************************
    ****************** Output from HERMIT input processing ******************
    *************************************************************************


 Default print level:        1

 * Nuclear model: Point charge

 Calculation of one- and two-electron Hamiltonian integrals.

 The following one-electron property integrals are calculated as requested:
          - overlap integrals
          - dipole length integrals
          - traceless quadrupole moment integrals
          - electronic angular momentum around the origin

 Center of mass  (bohr):      0.000000000000      0.000000000000      1.136714823220
 Operator center (bohr):      0.000000000000      0.000000000000      0.000000000000
 Gauge origin    (bohr):      0.000000000000      0.000000000000      0.000000000000
 Dipole origin   (bohr):      0.000000000000      0.000000000000      0.000000000000


     ************************************************************************
     ************************** Output from HERINT **************************
     ************************************************************************


 Threshold for neglecting two-electron integrals:  1.00D-15
 Number of two-electron integrals written:         677 ( 30.6% )
 Megabytes written:                              0.014

 >>>> Total CPU  time used in HERMIT:   0.01 seconds
 >>>> Total wall time used in HERMIT:   0.00 seconds


                        .----------------------------------.
                        | End of Integral Section (HERMIT) |
                        `----------------------------------'



                   .--------------------------------------------.
                   | Starting in Wave Function Section (SIRIUS) |
                   `--------------------------------------------'


 *** Output from Huckel module :

     Using EWMO model:          T
     Using EHT  model:          F
     Number of Huckel orbitals each symmetry:    6

 EWMO - Energy Weighted Maximum Overlap - is a Huckel type method,
        which normally is better than Extended Huckel Theory.
 Reference: Linderberg and Ohrn, Propagators in Quantum Chemistry (Wiley, 1973)

 Huckel EWMO eigenvalues for symmetry :  1
           -2.584574      -0.495387      -0.153253      -0.130000      -0.130000
           -0.070786

 **********************************************************************
 *SIRIUS* a direct, restricted step, second order MCSCF program       *
 **********************************************************************

 
     Date and time (Linux)  : Sun Sep  8 20:43:08 2013
     Host name              : lpqlx131.ups-tlse.fr                    

 Title lines from ".mol" input file:
     Lithium flourid                                                         
     small test basis                                                        

 Print level on unit LUPRI =   2 is   0
 Print level on unit LUW4  =   2 is   5

@    (Integral direct) CC calculation.

@    This is a combination run starting with
@              a restricted, closed shell Hartree-Fock calculation


 Initial molecular orbitals are obtained according to
 ".MOSTART EWMO  " input option

     Wave function specification
     ============================

     For the specification of the Coupled Cluster: see later.

@    For the wave function of type :      >>> CC <<<
@    Number of closed shell electrons           4
@    Number of electrons in active shells       0
@    Total charge of the molecule               0

@    Spin multiplicity and 2 M_S                1         0
     Total number of symmetries                 1
@    Reference state symmetry                   1

     Orbital specifications
     ======================
     Abelian symmetry species          All |    1
                                       --- |  ---
@    Occupied SCF orbitals               2 |    2
     Secondary orbitals                  9 |    9
     Total number of orbitals           11 |   11
     Number of basis functions          11 |   11

     Optimization information
     ========================
@    Number of configurations                 1
@    Number of orbital rotations             18
     ------------------------------------------
@    Total number of variables               19

     Maximum number of Fock   iterations      0
     Maximum number of DIIS   iterations     60
     Maximum number of QC-SCF iterations     60
     Threshold for SCF convergence     1.00D-12


 Changes of defaults for CC:
 ---------------------------


 -Iterative triple excitations included 
 -Linear response properties calculated
 -Dispersion coefficients for linear response calc.
  


 >>>>> DIIS optimization of Hartree-Fock <<<<<

 C1-DIIS algorithm; max error vectors =   10

 Iter      Total energy        Error norm    Delta(E)  DIIS dim.
 -----------------------------------------------------------------------------
     (Precalculated two-electron integrals are transformed to P-supermatrix elements.
      Threshold for discarding integrals :  1.00D-15 )
@  1    -7.51139916805        7.63546D-01   -7.51D+00    1
      Virial theorem: -V/T =      1.817302
@      MULPOP Li      0.51; H      -0.51; 
 -----------------------------------------------------------------------------
@  2    -7.57069793439        1.51859D-01   -5.93D-02    2
      Virial theorem: -V/T =      1.865212
@      MULPOP Li     -0.14; H       0.14; 
 -----------------------------------------------------------------------------
@  3    -7.57480299959        3.33658D-02   -4.11D-03    3
      Virial theorem: -V/T =      1.869229
@      MULPOP Li     -0.26; H       0.26; 
 -----------------------------------------------------------------------------
@  4    -7.57538220613        1.66606D-02   -5.79D-04    4
      Virial theorem: -V/T =      1.869598
@      MULPOP Li     -0.26; H       0.26; 
 -----------------------------------------------------------------------------
@  5    -7.57558520373        2.21645D-03   -2.03D-04    5
      Virial theorem: -V/T =      1.870071
@      MULPOP Li     -0.26; H       0.26; 
 -----------------------------------------------------------------------------
@  6    -7.57558888934        3.46480D-04   -3.69D-06    6
      Virial theorem: -V/T =      1.870072
@      MULPOP Li     -0.26; H       0.26; 
 -----------------------------------------------------------------------------
@  7    -7.57558895244        3.76795D-05   -6.31D-08    7
      Virial theorem: -V/T =      1.870097
@      MULPOP Li     -0.26; H       0.26; 
 -----------------------------------------------------------------------------
@  8    -7.57558895287        3.00281D-06   -4.30D-10    8
      Virial theorem: -V/T =      1.870097
@      MULPOP Li     -0.26; H       0.26; 
 -----------------------------------------------------------------------------
@  9    -7.57558895288        4.63323D-07   -5.75D-12    9
      Virial theorem: -V/T =      1.870097
@      MULPOP Li     -0.26; H       0.26; 
 -----------------------------------------------------------------------------
@ 10    -7.57558895288        4.18152D-08   -5.33D-14   10
      Virial theorem: -V/T =      1.870097
@      MULPOP Li     -0.26; H       0.26; 
 -----------------------------------------------------------------------------
@ 11    -7.57558895288        8.69017D-10   -3.55D-15   10
      Virial theorem: -V/T =      1.870097
@      MULPOP Li     -0.26; H       0.26; 
 -----------------------------------------------------------------------------
@ 12    -7.57558895288        4.69275D-11    1.78D-15   10
      Virial theorem: -V/T =      1.870097
@      MULPOP Li     -0.26; H       0.26; 
 -----------------------------------------------------------------------------
@ 13    -7.57558895288        2.50861D-12   -1.78D-15   10
      Virial theorem: -V/T =      1.870097
@      MULPOP Li     -0.26; H       0.26; 
 -----------------------------------------------------------------------------
@ 14    -7.57558895288        1.05103D-13    0.00D+00   10

@ *** DIIS converged in  14 iterations !
@     Converged SCF energy, gradient:     -7.575588952880    1.05D-13
    - total time used in SIRFCK :              0.00 seconds


 *** SCF orbital energy analysis ***

 Only the five lowest virtual orbital energies printed in each symmetry.

 Number of electrons :    4
 Orbital occupations :    2

 Sym       Hartree-Fock orbital energies

  1     -2.57534435    -0.30023054     0.01915101     0.07066237     0.07066237
         0.14066887     0.23481248

    E(LUMO) :     0.01915101 au (symmetry 1)
  - E(HOMO) :    -0.30023054 au (symmetry 1)
  ------------------------------------------
    gap     :     0.31938155 au

 >>> Writing SIRIFC interface file <<<

 >>>> CPU and wall time for SCF :       0.005       0.005


                       .-----------------------------------.
                       | >>> Final results from SIRIUS <<< |
                       `-----------------------------------'


@    Spin multiplicity:           1
@    Spatial symmetry:            1
@    Total charge of molecule:    0

@    Final HF energy:              -7.575588952880                 
@    Nuclear repulsion:             2.307692307692
@    Electronic energy:            -9.883281260572

@    Final gradient norm:           0.000000000000

 
     Date and time (Linux)  : Sun Sep  8 20:43:08 2013
     Host name              : lpqlx131.ups-tlse.fr                    

 (Only coefficients >0.0100 are printed.)

 Molecular orbitals for symmetry species  1
 ------------------------------------------

    Orbital         1        2        3        4
   1 Li  :1s    -0.9900  -0.3059  -0.0634   0.0000
   2 Li  :1s    -0.0570   0.4481  -0.1284  -0.0000
   3 Li  :1s     0.0186   0.0765   0.9401   0.0000
   5 Li  :2py   -0.0000  -0.0000  -0.0000  -0.0305
   6 Li  :2pz    0.0201  -0.5437   0.1672  -0.0000
   7 Li  :2px   -0.0000   0.0000  -0.0000   0.0443
   8 Li  :2py   -0.0000  -0.0000  -0.0000  -0.9741
   9 Li  :2pz   -0.0046   0.1610   0.4793  -0.0000
  10 H   :1s    -0.0601   0.3897  -0.1100  -0.0000
  11 H   :1s     0.0488   0.1134  -0.1577  -0.0000



 >>>> Total CPU  time used in SIRIUS :      0.01 seconds
 >>>> Total wall time used in SIRIUS :      0.01 seconds

 
     Date and time (Linux)  : Sun Sep  8 20:43:08 2013
     Host name              : lpqlx131.ups-tlse.fr                    


                     .---------------------------------------.
                     | End of Wave Function Section (SIRIUS) |
                     `---------------------------------------'



                    .------------------------------------------.
                    | Starting in Coupled Cluster Section (CC) |
                    `------------------------------------------'

  

 *******************************************************************************
 *******************************************************************************
 *                                                                             *
 *                                                                             *
 *                    START OF COUPLED CLUSTER CALCULATION                     *
 *                                                                             *
 *                                                                             *
 *******************************************************************************
 *******************************************************************************



 CCR12 ANSATZ =   0

 CCR12 APPROX =   0

   

 *******************************************************************
 *                                                                 *
 *<<<<<<<<<<                                             >>>>>>>>>>*
 *<<<<<<<<<< OUTPUT FROM COUPLED CLUSTER ENERGY PROGRAM  >>>>>>>>>>*
 *<<<<<<<<<<                                             >>>>>>>>>>*
 *                                                                 *
 *******************************************************************


             The Direct Coupled Cluster Energy Program
             -----------------------------------------


          Number of t1 amplitudes                 :        18
          Number of t2 amplitudes                 :       171
          Total number of amplitudes in ccsd      :       189

 could not find required file CCR0_1___1
 IOPTSV is    33 ... program continues nevertheless.
 Iter.  1: Coupled cluster MP2   energy :      -7.5941367950779730
 Iter.  1: Coupled cluster CC3   energy :      -7.5989335486361167
 Iter.  2: Coupled cluster CC3   energy :      -7.6017410863032522
 Iter.  3: Coupled cluster CC3   energy :      -7.6020355732676919
 Iter.  4: Coupled cluster CC3   energy :      -7.6021074965034368
 Iter.  5: Coupled cluster CC3   energy :      -7.6021016148496976
 Iter.  6: Coupled cluster CC3   energy :      -7.6021038486617778
 Iter.  7: Coupled cluster CC3   energy :      -7.6021081368969536
 Iter.  8: Coupled cluster CC3   energy :      -7.6021078331017478
 Iter.  9: Coupled cluster CC3   energy :      -7.6021078297464877
 Iter. 10: Coupled cluster CC3   energy :      -7.6021078210971904
 Iter. 11: Coupled cluster CC3   energy :      -7.6021078106862099
 Iter. 12: Coupled cluster CC3   energy :      -7.6021078044361898
 Iter. 13: Coupled cluster CC3   energy :      -7.6021078008352090
 Iter. 14: Coupled cluster CC3   energy :      -7.6021077987121890
 Iter. 15: Coupled cluster CC3   energy :      -7.6021077982700369
 Iter. 16: Coupled cluster CC3   energy :      -7.6021077984229910
 Iter. 17: Coupled cluster CC3   energy :      -7.6021077984997527
 Iter. 18: Coupled cluster CC3   energy :      -7.6021077985603389
 Iter. 19: Coupled cluster CC3   energy :      -7.6021077985594712
 Iter. 20: Coupled cluster CC3   energy :      -7.6021077985563714
 Iter. 21: Coupled cluster CC3   energy :      -7.6021077985550729
 Iter. 22: Coupled cluster CC3   energy :      -7.6021077985547230
 Iter. 23: Coupled cluster CC3   energy :      -7.6021077985547025
 Iter. 24: Coupled cluster CC3   energy :      -7.6021077985546617
 Iter. 25: Coupled cluster CC3   energy :      -7.6021077985546617

 CC3   energy converged to within   0.10D-13 is           -7.602107798555
 Final 2-norm of the CC vector function:  1.98370930D-13





             +-------------------------------------------------------+
             ! Final results from the Coupled Cluster energy program !
             +-------------------------------------------------------+



            Total SCF   energy:                    -7.5755889529

            Total MP2   energy:                    -7.5941367951

            Total CC3   energy:                    -7.6021077986




                   +--------------------------------------------+
                   ! Calculating singlet intermediates for CCLR !
                   +--------------------------------------------+



            E-intermediates calculated 
            Fock-intermediate calculated 
            Gamma-intermediate calculated 
            BF-intermediate calculated 
            C-intermediate calculated 
            D-intermediate calculated 


   

 *******************************************************************
 *                                                                 *
 *<<<<<<<<<<<<< OUTPUT FROM COUPLED CLUSTER RESPONSE  >>>>>>>>>>>>>*
 *                                                                 *
 *******************************************************************



                         +-------------------------------+
                         ! Coupled Cluster model is: CC3 !
                         +-------------------------------+

 RPA: call cceq_str
 could not find required file CCL0_1___1
 IOPTSV is    33 ... program continues nevertheless.
 Vector nr.  1 of type L0  and symmetry  1 was not found on file.
     Start vector generated from gradient
 RPA: exit cceq_str



 >>>>> COUPLED CLUSTER RESPONSE SOLVER <<<<<

    Iter  #Vectors  time (min)   residual
    --------------------------------------
      1       1         0.00     0.36E+00
      2       1         0.00     0.98E-01
      3       1         0.00     0.37E-01
      4       1         0.00     0.17E-01
      5       1         0.00     0.98E-02
      6       1         0.00     0.23E-02
      7       1         0.00     0.59E-03
      8       1         0.00     0.16E-03
      9       1         0.00     0.41E-04
     10       1         0.00     0.80E-05
     11       1         0.00     0.18E-05
     12       1         0.00     0.53E-06
     13       1         0.00     0.10E-06
     14       1         0.00     0.15E-07
     15       1         0.00     0.20E-08
     16       1         0.00     0.25E-09
     17       1         0.00     0.51E-10
    --------------------------------------
    converged in 17 iterations
    threshold:    0.10E-09


         Routine          Time (min)
         ---------------------------
         CC_TRDRV            0.00
         CCRED               0.00
         CCNEX               0.00
         ---------------------------
         Total time          0.00


 >>>> Total CPU  time used in CCEQ_SOLV:   0.15 seconds
 >>>> Total wall time used in CCEQ_SOLV:   0.42 seconds


 >>>>>>>>>>>>>>>>>>>>> <<<<<<<<<<<<<<<<<<<<<

  
     

   *******************************************************************
   *                                                                 *
   *<<<<<<<<   OUTPUT FROM PROPERTY AND SYMMETRY ANALYSIS   >>>>>>>>>*
   *                                                                 *
   *******************************************************************


     Prepare CC3 quadratic response calculation.


     Prepare CC3 cubic response calculation.



                         +-------------------------------+
                         ! REQUESTED PROPERTY OPERATORS: !
                         +-------------------------------+

             Index   Oper. Label  Symmetry  Transp.  PDBS  Atom
             --------------------------------------------------
                1     HAM0            1        1      T      0
                2     ZDIPLEN         1        1      F      0
             --------------------------------------------------




                         +-------------------------------+
                         ! REQUESTED EXPECTATION VALUES: !
                         +-------------------------------+

                       Index   Oper. Label  Symmetry
                       -----------------------------
                       -----------------------------




                       +------------------------------------+
                       ! REQUESTED EFFECTIVE FOCK MATRICES: !
                       +------------------------------------+

                       Index   Oper. Label  Symmetry
                       -----------------------------
                       -----------------------------




                       +-----------------------------------+
                       ! REQUESTED FIRST ORDER XI VECTORS: !
                       +-----------------------------------+

             Index   Oper. Label  relaxed  Sym.     Frequency
             --------------------------------------------------
                1      ZDIPLEN        F     1      0.000000D+00
             --------------------------------------------------




                        +----------------------------------+
                        ! REQUESTED FIRST ORDER T VECTORS: !
                        +----------------------------------+

             Index   Oper. Label  relaxed  Sym.     Frequency
             --------------------------------------------------
                1      ZDIPLEN        F     1      0.000000D+00
             --------------------------------------------------




                  +---------------------------------------------+
                  ! REQUESTED FIRST-ORDER RIGHT CAUCHY VECTORS: !
                  +---------------------------------------------+

               Index   Oper. Label  Symmetry  Cauchy Order
               --------------------------------------------------
                  1      ZDIPLEN     1      1
                  2      ZDIPLEN     1      2
                  3      ZDIPLEN     1      3
                  4      ZDIPLEN     1      4
                  5      ZDIPLEN     1      5
                  6      ZDIPLEN     1      6
                  7      ZDIPLEN     1      7
                  8      ZDIPLEN     1      8
                  9      ZDIPLEN     1      9
                 10      ZDIPLEN     1     10
                 11      ZDIPLEN     1     11
                 12      ZDIPLEN     1     12
               --------------------------------------------------


      

    *******************************************************************
    *          SOLVING COUPLED CLUSTER RESPONSE EQUATIONS             *
    *******************************************************************



 
 +======================================================================+
 !                     RHS & ETA VECTORS TO COMPUTE:                    !
 +======================================================================+
 | TYPE | # VEC. |  NEEDED FOR:                                         |
 +----------------------------------------------------------------------+
 |  O1  |    1   |  first-order amplitude equations                     |
 +======================================================================+



 +======================================================================+
 !                       LINEAR EQUATIONS TO SOLVE:                     !
 +======================================================================+
 | TYPE | # VEC. |  EQUATION:                                           |
 +----------------------------------------------------------------------+
 |  R1  |    1   |  first-order amplitude response                      |
 |  RC  |   12   |  first-order right Cauchy vectors                    |
 +======================================================================+



 +======================================================================+
 !                F MATRIX TRANSFORMATIONS TO COMPUTE:                  !
 +======================================================================+
 | TYPE | # VEC. |  TRANSFORMED:                                        |
 +----------------------------------------------------------------------+
 |  F1  |    1   |  first-order amplitude response (R1) vector          |
 +======================================================================+




 -------------------------------------------------------------------
 |          OUTPUT FROM AMPLITUDE RHS VECTOR SECTION               |
 -------------------------------------------------------------------

@ WARNING: ETA1 VECTOR FOR ZDIPLEN ( F, 0.00000D+00) IS NOT AVAILABLE.


   For the requested  1 1th.-order amplitude rhs vectors "O1 ".
         -   0 D matrix transformations 
         -   0 C matrix transformations 
         -   0 B matrix transformations 
         -   0 C{O} matrix transformations 
         -   0 B{O} matrix transformations 
         -   0 A{O} matrix transformations 
         -   1Xi{O} vector calculations    
   will be performed.


 RPA: call cceq_str
 could not find required file CCR1_1___1
 IOPTSV is    33 ... program continues nevertheless.
 Vector nr.  1 of type R1  and symmetry  1 was not found on file.
     R1  start vector nr.  1 of symmetry  1 generated from gradient
 RPA: exit cceq_str



 >>>>> COUPLED CLUSTER RESPONSE SOLVER <<<<<

    Iter  #Vectors  time (min)   residual
    --------------------------------------
      1       1         0.00     0.18E+00
      2       1         0.00     0.72E-01
      3       1         0.00     0.25E-01
      4       1         0.00     0.10E-01
      5       1         0.00     0.21E-02
      6       1         0.00     0.49E-03
      7       1         0.00     0.14E-03
      8       1         0.00     0.39E-04
      9       1         0.00     0.81E-05
     10       1         0.00     0.14E-05
     11       1         0.00     0.24E-06
     12       1         0.00     0.72E-07
     13       1         0.00     0.18E-07
     14       1         0.00     0.27E-08
     15       1         0.00     0.35E-09
     16       1         0.00     0.54E-10
    --------------------------------------
    converged in 16 iterations
    threshold:    0.10E-09


         Routine          Time (min)
         ---------------------------
         CC_TRDRV            0.00
         CCRED               0.00
         CCNEX               0.00
         ---------------------------
         Total time          0.00


 >>>> Total CPU  time used in CCEQ_SOLV:   0.15 seconds
 >>>> Total wall time used in CCEQ_SOLV:   0.31 seconds


 >>>>>>>>>>>>>>>>>>>>> <<<<<<<<<<<<<<<<<<<<<


 -------------------------------------------------------------------
 |          OUTPUT FROM AMPLITUDE RHS VECTOR SECTION               |
 -------------------------------------------------------------------



   For the requested  1 1th.-order amplitude rhs vectors "CO1".
         -   0 D matrix transformations 
         -   0 C matrix transformations 
         -   0 B matrix transformations 
         -   0 C{O} matrix transformations 
         -   0 B{O} matrix transformations 
         -   0 A{O} matrix transformations 
         -   1Xi{O} vector calculations    
   will be performed.


 RPA: call cceq_str
 could not find required file CCRC_1___1
 IOPTSV is    33 ... program continues nevertheless.
 Vector nr.  1 of type RC  and symmetry  1 was not found on file.
     RC  start vector nr.  1 of symmetry  1 generated from gradient
 RPA: exit cceq_str



 >>>>> COUPLED CLUSTER RESPONSE SOLVER <<<<<

    Iter  #Vectors  time (min)   residual
    --------------------------------------
      1       1         0.00     0.90E-01
      2       1         0.00     0.36E-01
      3       1         0.00     0.14E-01
      4       1         0.00     0.36E-02
      5       1         0.00     0.71E-03
      6       1         0.00     0.17E-03
      7       1         0.00     0.55E-04
      8       1         0.00     0.10E-04
      9       1         0.00     0.23E-05
     10       1         0.00     0.74E-06
     11       1         0.00     0.17E-06
     12       1         0.00     0.28E-07
     13       1         0.00     0.50E-08
     14       1         0.00     0.85E-09
     15       1         0.00     0.11E-09
     16       1         0.00     0.15E-10
    --------------------------------------
    converged in 16 iterations
    threshold:    0.10E-09


         Routine          Time (min)
         ---------------------------
         CC_TRDRV            0.00
         CCRED               0.00
         CCNEX               0.00
         ---------------------------
         Total time          0.00


 >>>> Total CPU  time used in CCEQ_SOLV:   0.15 seconds
 >>>> Total wall time used in CCEQ_SOLV:   0.30 seconds


 >>>>>>>>>>>>>>>>>>>>> <<<<<<<<<<<<<<<<<<<<<


 -------------------------------------------------------------------
 |          OUTPUT FROM AMPLITUDE RHS VECTOR SECTION               |
 -------------------------------------------------------------------



   For the requested  1 1th.-order amplitude rhs vectors "CO1".
         -   0 D matrix transformations 
         -   0 C matrix transformations 
         -   0 B matrix transformations 
         -   0 C{O} matrix transformations 
         -   0 B{O} matrix transformations 
         -   0 A{O} matrix transformations 
         -   1Xi{O} vector calculations    
   will be performed.


 RPA: call cceq_str
 could not find required file CCRC_1___2
 IOPTSV is    33 ... program continues nevertheless.
 Vector nr.  2 of type RC  and symmetry  1 was not found on file.
     RC  start vector nr.  2 of symmetry  1 generated from gradient
 RPA: exit cceq_str



 >>>>> COUPLED CLUSTER RESPONSE SOLVER <<<<<

    Iter  #Vectors  time (min)   residual
    --------------------------------------
      1       1         0.00     0.24E-01
      2       1         0.00     0.14E-01
      3       1         0.00     0.46E-02
      4       1         0.00     0.11E-02
      5       1         0.00     0.22E-03
      6       1         0.00     0.66E-04
      7       1         0.00     0.15E-04
      8       1         0.00     0.29E-05
      9       1         0.00     0.72E-06
     10       1         0.00     0.22E-06
     11       1         0.00     0.43E-07
     12       1         0.00     0.58E-08
     13       1         0.00     0.71E-09
     14       1         0.00     0.12E-09
     15       1         0.00     0.19E-10
    --------------------------------------
    converged in 15 iterations
    threshold:    0.10E-09


         Routine          Time (min)
         ---------------------------
         CC_TRDRV            0.00
         CCRED               0.00
         CCNEX               0.00
         ---------------------------
         Total time          0.00


 >>>> Total CPU  time used in CCEQ_SOLV:   0.14 seconds
 >>>> Total wall time used in CCEQ_SOLV:   0.28 seconds


 >>>>>>>>>>>>>>>>>>>>> <<<<<<<<<<<<<<<<<<<<<


 -------------------------------------------------------------------
 |          OUTPUT FROM AMPLITUDE RHS VECTOR SECTION               |
 -------------------------------------------------------------------



   For the requested  1 1th.-order amplitude rhs vectors "CO1".
         -   0 D matrix transformations 
         -   0 C matrix transformations 
         -   0 B matrix transformations 
         -   0 C{O} matrix transformations 
         -   0 B{O} matrix transformations 
         -   0 A{O} matrix transformations 
         -   1Xi{O} vector calculations    
   will be performed.


 RPA: call cceq_str
 could not find required file CCRC_1___3
 IOPTSV is    33 ... program continues nevertheless.
 Vector nr.  3 of type RC  and symmetry  1 was not found on file.
     RC  start vector nr.  3 of symmetry  1 generated from gradient
 RPA: exit cceq_str



 >>>>> COUPLED CLUSTER RESPONSE SOLVER <<<<<

    Iter  #Vectors  time (min)   residual
    --------------------------------------
      1       1         0.00     0.10E-01
      2       1         0.00     0.59E-02
      3       1         0.00     0.19E-02
      4       1         0.00     0.44E-03
      5       1         0.00     0.91E-04
      6       1         0.00     0.28E-04
      7       1         0.00     0.61E-05
      8       1         0.00     0.12E-05
      9       1         0.00     0.29E-06
     10       1         0.00     0.78E-07
     11       1         0.00     0.15E-07
     12       1         0.00     0.24E-08
     13       1         0.00     0.34E-09
     14       1         0.00     0.54E-10
    --------------------------------------
    converged in 14 iterations
    threshold:    0.10E-09


         Routine          Time (min)
         ---------------------------
         CC_TRDRV            0.00
         CCRED               0.00
         CCNEX               0.00
         ---------------------------
         Total time          0.00


 >>>> Total CPU  time used in CCEQ_SOLV:   0.13 seconds
 >>>> Total wall time used in CCEQ_SOLV:   0.26 seconds


 >>>>>>>>>>>>>>>>>>>>> <<<<<<<<<<<<<<<<<<<<<


 -------------------------------------------------------------------
 |          OUTPUT FROM AMPLITUDE RHS VECTOR SECTION               |
 -------------------------------------------------------------------



   For the requested  1 1th.-order amplitude rhs vectors "CO1".
         -   0 D matrix transformations 
         -   0 C matrix transformations 
         -   0 B matrix transformations 
         -   0 C{O} matrix transformations 
         -   0 B{O} matrix transformations 
         -   0 A{O} matrix transformations 
         -   1Xi{O} vector calculations    
   will be performed.


 RPA: call cceq_str
 could not find required file CCRC_1___4
 IOPTSV is    33 ... program continues nevertheless.
 Vector nr.  4 of type RC  and symmetry  1 was not found on file.
     RC  start vector nr.  4 of symmetry  1 generated from gradient
 RPA: exit cceq_str



 >>>>> COUPLED CLUSTER RESPONSE SOLVER <<<<<

    Iter  #Vectors  time (min)   residual
    --------------------------------------
      1       1         0.00     0.44E-02
      2       1         0.00     0.26E-02
      3       1         0.00     0.84E-03
      4       1         0.00     0.19E-03
      5       1         0.00     0.41E-04
      6       1         0.00     0.13E-04
      7       1         0.00     0.27E-05
      8       1         0.00     0.59E-06
      9       1         0.00     0.14E-06
     10       1         0.00     0.45E-07
     11       1         0.00     0.85E-08
     12       1         0.00     0.13E-08
     13       1         0.00     0.20E-09
     14       1         0.00     0.32E-10
    --------------------------------------
    converged in 14 iterations
    threshold:    0.10E-09


         Routine          Time (min)
         ---------------------------
         CC_TRDRV            0.00
         CCRED               0.00
         CCNEX               0.00
         ---------------------------
         Total time          0.00


 >>>> Total CPU  time used in CCEQ_SOLV:   0.13 seconds
 >>>> Total wall time used in CCEQ_SOLV:   0.27 seconds


 >>>>>>>>>>>>>>>>>>>>> <<<<<<<<<<<<<<<<<<<<<


 -------------------------------------------------------------------
 |          OUTPUT FROM AMPLITUDE RHS VECTOR SECTION               |
 -------------------------------------------------------------------



   For the requested  1 1th.-order amplitude rhs vectors "CO1".
         -   0 D matrix transformations 
         -   0 C matrix transformations 
         -   0 B matrix transformations 
         -   0 C{O} matrix transformations 
         -   0 B{O} matrix transformations 
         -   0 A{O} matrix transformations 
         -   1Xi{O} vector calculations    
   will be performed.


 RPA: call cceq_str
 could not find required file CCRC_1___5
 IOPTSV is    33 ... program continues nevertheless.
 Vector nr.  5 of type RC  and symmetry  1 was not found on file.
     RC  start vector nr.  5 of symmetry  1 generated from gradient
 RPA: exit cceq_str



 >>>>> COUPLED CLUSTER RESPONSE SOLVER <<<<<

    Iter  #Vectors  time (min)   residual
    --------------------------------------
      1       1         0.00     0.23E-02
      2       1         0.00     0.14E-02
      3       1         0.00     0.43E-03
      4       1         0.00     0.96E-04
      5       1         0.00     0.21E-04
      6       1         0.00     0.60E-05
      7       1         0.00     0.14E-05
      8       1         0.00     0.30E-06
      9       1         0.00     0.70E-07
     10       1         0.00     0.23E-07
     11       1         0.00     0.44E-08
     12       1         0.00     0.73E-09
     13       1         0.00     0.11E-09
     14       1         0.00     0.17E-10
    --------------------------------------
    converged in 14 iterations
    threshold:    0.10E-09


         Routine          Time (min)
         ---------------------------
         CC_TRDRV            0.00
         CCRED               0.00
         CCNEX               0.00
         ---------------------------
         Total time          0.00


 >>>> Total CPU  time used in CCEQ_SOLV:   0.13 seconds
 >>>> Total wall time used in CCEQ_SOLV:   0.26 seconds


 >>>>>>>>>>>>>>>>>>>>> <<<<<<<<<<<<<<<<<<<<<


 -------------------------------------------------------------------
 |          OUTPUT FROM AMPLITUDE RHS VECTOR SECTION               |
 -------------------------------------------------------------------



   For the requested  1 1th.-order amplitude rhs vectors "CO1".
         -   0 D matrix transformations 
         -   0 C matrix transformations 
         -   0 B matrix transformations 
         -   0 C{O} matrix transformations 
         -   0 B{O} matrix transformations 
         -   0 A{O} matrix transformations 
         -   1Xi{O} vector calculations    
   will be performed.


 RPA: call cceq_str
 could not find required file CCRC_1___6
 IOPTSV is    33 ... program continues nevertheless.
 Vector nr.  6 of type RC  and symmetry  1 was not found on file.
     RC  start vector nr.  6 of symmetry  1 generated from gradient
 RPA: exit cceq_str



 >>>>> COUPLED CLUSTER RESPONSE SOLVER <<<<<

    Iter  #Vectors  time (min)   residual
    --------------------------------------
      1       1         0.00     0.17E-02
      2       1         0.00     0.74E-03
      3       1         0.00     0.24E-03
      4       1         0.00     0.51E-04
      5       1         0.00     0.12E-04
      6       1         0.00     0.31E-05
      7       1         0.00     0.88E-06
      8       1         0.00     0.17E-06
      9       1         0.00     0.39E-07
     10       1         0.00     0.12E-07
     11       1         0.00     0.26E-08
     12       1         0.00     0.47E-09
     13       1         0.00     0.64E-10
    --------------------------------------
    converged in 13 iterations
    threshold:    0.10E-09


         Routine          Time (min)
         ---------------------------
         CC_TRDRV            0.00
         CCRED               0.00
         CCNEX               0.00
         ---------------------------
         Total time          0.00


 >>>> Total CPU  time used in CCEQ_SOLV:   0.12 seconds
 >>>> Total wall time used in CCEQ_SOLV:   0.24 seconds


 >>>>>>>>>>>>>>>>>>>>> <<<<<<<<<<<<<<<<<<<<<


 -------------------------------------------------------------------
 |          OUTPUT FROM AMPLITUDE RHS VECTOR SECTION               |
 -------------------------------------------------------------------



   For the requested  1 1th.-order amplitude rhs vectors "CO1".
         -   0 D matrix transformations 
         -   0 C matrix transformations 
         -   0 B matrix transformations 
         -   0 C{O} matrix transformations 
         -   0 B{O} matrix transformations 
         -   0 A{O} matrix transformations 
         -   1Xi{O} vector calculations    
   will be performed.


 RPA: call cceq_str
 could not find required file CCRC_1___7
 IOPTSV is    33 ... program continues nevertheless.
 Vector nr.  7 of type RC  and symmetry  1 was not found on file.
     RC  start vector nr.  7 of symmetry  1 generated from gradient
 RPA: exit cceq_str



 >>>>> COUPLED CLUSTER RESPONSE SOLVER <<<<<

    Iter  #Vectors  time (min)   residual
    --------------------------------------
      1       1         0.00     0.15E-02
      2       1         0.00     0.33E-03
      3       1         0.00     0.15E-03
      4       1         0.00     0.31E-04
      5       1         0.00     0.77E-05
      6       1         0.00     0.19E-05
      7       1         0.00     0.53E-06
      8       1         0.00     0.12E-06
      9       1         0.00     0.24E-07
     10       1         0.00     0.65E-08
     11       1         0.00     0.17E-08
     12       1         0.00     0.33E-09
     13       1         0.00     0.51E-10
    --------------------------------------
    converged in 13 iterations
    threshold:    0.10E-09


         Routine          Time (min)
         ---------------------------
         CC_TRDRV            0.00
         CCRED               0.00
         CCNEX               0.00
         ---------------------------
         Total time          0.00


 >>>> Total CPU  time used in CCEQ_SOLV:   0.12 seconds
 >>>> Total wall time used in CCEQ_SOLV:   0.24 seconds


 >>>>>>>>>>>>>>>>>>>>> <<<<<<<<<<<<<<<<<<<<<


 -------------------------------------------------------------------
 |          OUTPUT FROM AMPLITUDE RHS VECTOR SECTION               |
 -------------------------------------------------------------------



   For the requested  1 1th.-order amplitude rhs vectors "CO1".
         -   0 D matrix transformations 
         -   0 C matrix transformations 
         -   0 B matrix transformations 
         -   0 C{O} matrix transformations 
         -   0 B{O} matrix transformations 
         -   0 A{O} matrix transformations 
         -   1Xi{O} vector calculations    
   will be performed.


 RPA: call cceq_str
 could not find required file CCRC_1___8
 IOPTSV is    33 ... program continues nevertheless.
 Vector nr.  8 of type RC  and symmetry  1 was not found on file.
     RC  start vector nr.  8 of symmetry  1 generated from gradient
 RPA: exit cceq_str



 >>>>> COUPLED CLUSTER RESPONSE SOLVER <<<<<

    Iter  #Vectors  time (min)   residual
    --------------------------------------
      1       1         0.00     0.15E-02
      2       1         0.00     0.21E-03
      3       1         0.00     0.68E-04
      4       1         0.00     0.22E-04
      5       1         0.00     0.52E-05
      6       1         0.00     0.13E-05
      7       1         0.00     0.33E-06
      8       1         0.00     0.82E-07
      9       1         0.00     0.18E-07
     10       1         0.00     0.36E-08
     11       1         0.00     0.12E-08
     12       1         0.00     0.25E-09
     13       1         0.00     0.44E-10
    --------------------------------------
    converged in 13 iterations
    threshold:    0.10E-09


         Routine          Time (min)
         ---------------------------
         CC_TRDRV            0.00
         CCRED               0.00
         CCNEX               0.00
         ---------------------------
         Total time          0.00


 >>>> Total CPU  time used in CCEQ_SOLV:   0.12 seconds
 >>>> Total wall time used in CCEQ_SOLV:   0.24 seconds


 >>>>>>>>>>>>>>>>>>>>> <<<<<<<<<<<<<<<<<<<<<


 -------------------------------------------------------------------
 |          OUTPUT FROM AMPLITUDE RHS VECTOR SECTION               |
 -------------------------------------------------------------------



   For the requested  1 1th.-order amplitude rhs vectors "CO1".
         -   0 D matrix transformations 
         -   0 C matrix transformations 
         -   0 B matrix transformations 
         -   0 C{O} matrix transformations 
         -   0 B{O} matrix transformations 
         -   0 A{O} matrix transformations 
         -   1Xi{O} vector calculations    
   will be performed.


 RPA: call cceq_str
 could not find required file CCRC_1___9
 IOPTSV is    33 ... program continues nevertheless.
 Vector nr.  9 of type RC  and symmetry  1 was not found on file.
     RC  start vector nr.  9 of symmetry  1 generated from gradient
 RPA: exit cceq_str



 >>>>> COUPLED CLUSTER RESPONSE SOLVER <<<<<

    Iter  #Vectors  time (min)   residual
    --------------------------------------
      1       1         0.00     0.15E-02
      2       1         0.00     0.19E-03
      3       1         0.00     0.32E-04
      4       1         0.00     0.13E-04
      5       1         0.00     0.40E-05
      6       1         0.00     0.90E-06
      7       1         0.00     0.23E-06
      8       1         0.00     0.57E-07
      9       1         0.00     0.14E-07
     10       1         0.00     0.24E-08
     11       1         0.00     0.70E-09
     12       1         0.00     0.19E-09
     13       1         0.00     0.38E-10
    --------------------------------------
    converged in 13 iterations
    threshold:    0.10E-09


         Routine          Time (min)
         ---------------------------
         CC_TRDRV            0.00
         CCRED               0.00
         CCNEX               0.00
         ---------------------------
         Total time          0.00


 >>>> Total CPU  time used in CCEQ_SOLV:   0.12 seconds
 >>>> Total wall time used in CCEQ_SOLV:   0.25 seconds


 >>>>>>>>>>>>>>>>>>>>> <<<<<<<<<<<<<<<<<<<<<


 -------------------------------------------------------------------
 |          OUTPUT FROM AMPLITUDE RHS VECTOR SECTION               |
 -------------------------------------------------------------------



   For the requested  1 1th.-order amplitude rhs vectors "CO1".
         -   0 D matrix transformations 
         -   0 C matrix transformations 
         -   0 B matrix transformations 
         -   0 C{O} matrix transformations 
         -   0 B{O} matrix transformations 
         -   0 A{O} matrix transformations 
         -   1Xi{O} vector calculations    
   will be performed.


 RPA: call cceq_str
 could not find required file CCRC_1__10
 IOPTSV is    33 ... program continues nevertheless.
 Vector nr. 10 of type RC  and symmetry  1 was not found on file.
     RC  start vector nr. 10 of symmetry  1 generated from gradient
 RPA: exit cceq_str



 >>>>> COUPLED CLUSTER RESPONSE SOLVER <<<<<

    Iter  #Vectors  time (min)   residual
    --------------------------------------
      1       1         0.00     0.15E-02
      2       1         0.00     0.18E-03
      3       1         0.00     0.25E-04
      4       1         0.00     0.62E-05
      5       1         0.00     0.24E-05
      6       1         0.00     0.67E-06
      7       1         0.00     0.17E-06
      8       1         0.00     0.42E-07
      9       1         0.00     0.11E-07
     10       1         0.00     0.19E-08
     11       1         0.00     0.42E-09
     12       1         0.00     0.12E-09
     13       1         0.00     0.31E-10
    --------------------------------------
    converged in 13 iterations
    threshold:    0.10E-09


         Routine          Time (min)
         ---------------------------
         CC_TRDRV            0.00
         CCRED               0.00
         CCNEX               0.00
         ---------------------------
         Total time          0.00


 >>>> Total CPU  time used in CCEQ_SOLV:   0.12 seconds
 >>>> Total wall time used in CCEQ_SOLV:   0.24 seconds


 >>>>>>>>>>>>>>>>>>>>> <<<<<<<<<<<<<<<<<<<<<


 -------------------------------------------------------------------
 |          OUTPUT FROM AMPLITUDE RHS VECTOR SECTION               |
 -------------------------------------------------------------------



   For the requested  1 1th.-order amplitude rhs vectors "CO1".
         -   0 D matrix transformations 
         -   0 C matrix transformations 
         -   0 B matrix transformations 
         -   0 C{O} matrix transformations 
         -   0 B{O} matrix transformations 
         -   0 A{O} matrix transformations 
         -   1Xi{O} vector calculations    
   will be performed.


 RPA: call cceq_str
 could not find required file CCRC_1__11
 IOPTSV is    33 ... program continues nevertheless.
 Vector nr. 11 of type RC  and symmetry  1 was not found on file.
     RC  start vector nr. 11 of symmetry  1 generated from gradient
 RPA: exit cceq_str



 >>>>> COUPLED CLUSTER RESPONSE SOLVER <<<<<

    Iter  #Vectors  time (min)   residual
    --------------------------------------
      1       1         0.00     0.15E-02
      2       1         0.00     0.18E-03
      3       1         0.00     0.24E-04
      4       1         0.00     0.46E-05
      5       1         0.00     0.12E-05
      6       1         0.00     0.32E-06
      7       1         0.00     0.79E-07
      8       1         0.00     0.19E-07
      9       1         0.00     0.69E-08
     10       1         0.00     0.17E-08
     11       1         0.00     0.31E-09
     12       1         0.00     0.68E-10
    --------------------------------------
    converged in 12 iterations
    threshold:    0.10E-09


         Routine          Time (min)
         ---------------------------
         CC_TRDRV            0.00
         CCRED               0.00
         CCNEX               0.00
         ---------------------------
         Total time          0.00


 >>>> Total CPU  time used in CCEQ_SOLV:   0.11 seconds
 >>>> Total wall time used in CCEQ_SOLV:   0.23 seconds


 >>>>>>>>>>>>>>>>>>>>> <<<<<<<<<<<<<<<<<<<<<


 -------------------------------------------------------------------
 |          OUTPUT FROM AMPLITUDE RHS VECTOR SECTION               |
 -------------------------------------------------------------------



   For the requested  1 1th.-order amplitude rhs vectors "CO1".
         -   0 D matrix transformations 
         -   0 C matrix transformations 
         -   0 B matrix transformations 
         -   0 C{O} matrix transformations 
         -   0 B{O} matrix transformations 
         -   0 A{O} matrix transformations 
         -   1Xi{O} vector calculations    
   will be performed.


 RPA: call cceq_str
 could not find required file CCRC_1__12
 IOPTSV is    33 ... program continues nevertheless.
 Vector nr. 12 of type RC  and symmetry  1 was not found on file.
     RC  start vector nr. 12 of symmetry  1 generated from gradient
 RPA: exit cceq_str



 >>>>> COUPLED CLUSTER RESPONSE SOLVER <<<<<

    Iter  #Vectors  time (min)   residual
    --------------------------------------
      1       1         0.00     0.15E-02
      2       1         0.00     0.18E-03
      3       1         0.00     0.24E-04
      4       1         0.00     0.46E-05
      5       1         0.00     0.12E-05
      6       1         0.00     0.36E-06
      7       1         0.00     0.95E-07
      8       1         0.00     0.26E-07
      9       1         0.00     0.88E-08
     10       1         0.00     0.17E-08
     11       1         0.00     0.29E-09
     12       1         0.00     0.52E-10
    --------------------------------------
    converged in 12 iterations
    threshold:    0.10E-09


         Routine          Time (min)
         ---------------------------
         CC_TRDRV            0.00
         CCRED               0.00
         CCNEX               0.00
         ---------------------------
         Total time          0.00


 >>>> Total CPU  time used in CCEQ_SOLV:   0.11 seconds
 >>>> Total wall time used in CCEQ_SOLV:   0.21 seconds


 >>>>>>>>>>>>>>>>>>>>> <<<<<<<<<<<<<<<<<<<<<


 Solution of CC response equations completed.


 *******************************************************************
 *                                                                 *
 *     COUPLED CLUSTER LINEAR RESPONSE DISPERSION COEFFICIENTS     *
 *                                                                 *
 *******************************************************************



   For the requested  1 Cauchy moments
         -   7 F matrix transformations with Cauchy vectors
         -   1 ETA and XKSI vector calculations 
   will be performed.




             +-------------------------------------------------------+
             !         FINAL CC3 RESULTS FOR DISPERSION COEFFICIENTS !
             +-------------------------------------------------------+

    The dispersion coefficients D_AB(n) for n>0 are defined through the expansion:
                          alpha(w) = sum_n w^n D_AB(n) 

    D_AB(-4) corresponds to the S_AB(+2) Cauchy moment,
    D_AB(-2) corresponds to the S_AB( 0) Cauchy moment.

    Note that the sign of dispersion coefficients is here defined opposite to
    the sign of the linear response functions!


 A operator   B operator     n        D_AB
----------------------------------------------------------------------------------------

   ZDIPLEN     ZDIPLEN       0        12.9559198882    
                             2        920.450029980    
                             4        83755.8824075    
                             6        7971366.12693    
                             8        764788701.164    
                            10        73478812219.2    
                            12       0.706138027779E+13

----------------------------------------------------------------------------------------



 requested model not yet implemented
  

 *******************************************************************************
 *******************************************************************************
 *                                                                             *
 *                                                                             *
 *                   SUMMARY OF COUPLED CLUSTER CALCULATION                    *
 *                                                                             *
 *                                                                             *
 *******************************************************************************
 *******************************************************************************

                                                                                
                                                                                
            Total SCF   energy:                    -7.5755889529                
            Total MP2   energy:                    -7.5941367951                
            Total CC3   energy:                    -7.6021077986                
  

 *******************************************************************************
 *******************************************************************************
 *                                                                             *
 *                                                                             *
 *                      END OF COUPLED CLUSTER CALCULATION                     *
 *                                                                             *
 *                                                                             *
 *******************************************************************************
 *******************************************************************************


 >>>> CPU and wall time for CC :       2.838       6.841

 
     Date and time (Linux)  : Sun Sep  8 20:43:15 2013
     Host name              : lpqlx131.ups-tlse.fr                    


                      .-------------------------------------.
                      | End of Coupled Cluster Section (CC) |
                      `-------------------------------------'

 >>>> Total CPU  time used in DALTON:   2.85 seconds
 >>>> Total wall time used in DALTON:   6.86 seconds

 
     Date and time (Linux)  : Sun Sep  8 20:43:15 2013
     Host name              : lpqlx131.ups-tlse.fr                    
