

     ************************************************************************
     *************** Dalton - An Electronic Structure Program ***************
     ************************************************************************

    This is output from DALTON (Release Dalton2013 patch 0)
   ----------------------------------------------------------------------------
    NOTE:
     
    Dalton is an experimental code for the evaluation of molecular
    properties using (MC)SCF, DFT, CI, and CC wave functions.
    The authors accept no responsibility for the performance of
    the code or for the correctness of the results.
     
    The code (in whole or part) is provided under a licence and
    is not to be reproduced for further distribution without
    the written permission of the authors or their representatives.
     
    See the home page "http://daltonprogram.org" for further information.
     
    If results obtained with this code are published,
    the appropriate citations would be both of:
     
       K. Aidas, C. Angeli, K. L. Bak, V. Bakken, R. Bast,
       L. Boman, O. Christiansen, R. Cimiraglia, S. Coriani,
       P. Dahle, E. K. Dalskov, U. Ekstroem, T. Enevoldsen,
       J. J. Eriksen, P. Ettenhuber, B. Fernandez, L. Ferrighi,
       H. Fliegl, L. Frediani, K. Hald, A. Halkier, C. Haettig,
       H. Heiberg, T. Helgaker, A. C. Hennum, H. Hettema,
       E. Hjertenaes, S. Hoest, I.-M. Hoeyvik, M. F. Iozzi,
       B. Jansik, H. J. Aa. Jensen, D. Jonsson, P. Joergensen,
       J. Kauczor, S. Kirpekar, T. Kjaergaard, W. Klopper,
       S. Knecht, R. Kobayashi, H. Koch, J. Kongsted, A. Krapp,
       K. Kristensen, A. Ligabue, O. B. Lutnaes, J. I. Melo,
       K. V. Mikkelsen, R. H. Myhre, C. Neiss, C. B. Nielsen,
       P. Norman, J. Olsen, J. M. H. Olsen, A. Osted,
       M. J. Packer, F. Pawlowski, T. B. Pedersen, P. F. Provasi,
       S. Reine, Z. Rinkevicius, T. A. Ruden, K. Ruud, V. Rybkin,
       P. Salek, C. C. M. Samson, A. Sanchez de Meras, T. Saue,
       S. P. A. Sauer, B. Schimmelpfennig, K. Sneskov,
       A. H. Steindal, K. O. Sylvester-Hvid, P. R. Taylor,
       A. M. Teale, E. I. Tellgren, D. P. Tew, A. J. Thorvaldsen,
       L. Thoegersen, O. Vahtras, M. A. Watson, D. J. D. Wilson,
       M. Ziolkowski and H. Agren.
       The Dalton quantum chemistry program system.
       WIREs Comput. Mol. Sci. 2013. doi: 10.1002/wcms.1172
    
    and
    
       Dalton, a Molecular Electronic Structure Program,
       Release DALTON2013.0 (2013), see http://daltonprogram.org
   ----------------------------------------------------------------------------

    Authors in alphabetical order (major contribution(s) in parenthesis):

  Kestutis Aidas,           Vilnius University,           Lithuania   (QM/MM)
  Celestino Angeli,         University of Ferrara,        Italy       (NEVPT2)
  Keld L. Bak,              UNI-C,                        Denmark     (AOSOPPA, non-adiabatic coupling, magnetic properties)
  Vebjoern Bakken,          University of Oslo,           Norway      (DALTON; geometry optimizer, symmetry detection)
  Radovan Bast,             KTH Stockholm                 Sweden      (DALTON installation and execution frameworks)
  Linus Boman,              NTNU,                         Norway      (Cholesky decomposition and subsystems)
  Ove Christiansen,         Aarhus University,            Denmark     (CC module)
  Renzo Cimiraglia,         University of Ferrara,        Italy       (NEVPT2)
  Sonia Coriani,            University of Trieste,        Italy       (CC module, MCD in RESPONS)
  Paal Dahle,               University of Oslo,           Norway      (Parallelization)
  Erik K. Dalskov,          UNI-C,                        Denmark     (SOPPA)
  Thomas Enevoldsen,        Univ. of Southern Denmark,    Denmark     (SOPPA)
  Janus J. Eriksen,         Aarhus University,            Denmark     (PE-MP2/SOPPA, TDA)
  Berta Fernandez,          U. of Santiago de Compostela, Spain       (doublet spin, ESR in RESPONS)
  Lara Ferrighi,            Aarhus University,            Denmark     (PCM Cubic response)
  Heike Fliegl,             University of Oslo,           Norway      (CCSD(R12))
  Luca Frediani,            UiT The Arctic U. of Norway,  Norway      (PCM)
  Bin Gao,                  UiT The Arctic U. of Norway,  Norway      (Gen1Int library)
  Christof Haettig,         Ruhr-University Bochum,       Germany     (CC module)
  Kasper Hald,              Aarhus University,            Denmark     (CC module)
  Asger Halkier,            Aarhus University,            Denmark     (CC module)
  Hanne Heiberg,            University of Oslo,           Norway      (geometry analysis, selected one-electron integrals)
  Trygve Helgaker,          University of Oslo,           Norway      (DALTON; ABACUS, ERI, DFT modules, London, and much more)
  Alf Christian Hennum,     University of Oslo,           Norway      (Parity violation)
  Hinne Hettema,            University of Auckland,       New Zealand (quadratic response in RESPONS; SIRIUS supersymmetry)
  Eirik Hjertenaes,         NTNU,                         Norway      (Cholesky decomposition)
  Maria Francesca Iozzi,    University of Oslo,           Norway      (RPA)
  Brano Jansik              Technical Univ. of Ostrava    Czech Rep.  (DFT cubic response)
  Hans Joergen Aa. Jensen,  Univ. of Southern Denmark,    Denmark     (DALTON; SIRIUS, RESPONS, ABACUS modules, London, and much more)
  Dan Jonsson,              UiT The Arctic U. of Norway,  Norway      (cubic response in RESPONS module)
  Poul Joergensen,          Aarhus University,            Denmark     (RESPONS, ABACUS, and CC modules)
  Joanna Kauczor,           Linkoeping University,        Sweden      (Complex polarization propagator (CPP) module)
  Sheela Kirpekar,          Univ. of Southern Denmark,    Denmark     (Mass-velocity & Darwin integrals)
  Wim Klopper,              KIT Karlsruhe,                Germany     (R12 code in CC, SIRIUS, and ABACUS modules)
  Stefan Knecht,            ETH Zurich,                   Switzerland (Parallel CI and MCSCF)
  Rika Kobayashi,           Australian National Univ.,    Australia   (DIIS in CC, London in MCSCF)
  Henrik Koch,              NTNU,                         Norway      (CC module, Cholesky decomposition)
  Jacob Kongsted,           Univ. of Southern Denmark,    Denmark     (Polarizable embedding, QM/MM)
  Andrea Ligabue,           University of Modena,         Italy       (CTOCD, AOSOPPA)
  Ola B. Lutnaes,           University of Oslo,           Norway      (DFT Hessian)
  Juan I. Melo,             University of Buenos Aires,   Argentina   (LRESC, Relativistic Effects on NMR Shieldings)
  Kurt V. Mikkelsen,        University of Copenhagen,     Denmark     (MC-SCRF and QM/MM)
  Rolf H. Myhre,            NTNU,                         Norway      (Cholesky, subsystems and ECC2)
  Christian Neiss,          Univ. Erlangen-Nuernberg,     Germany     (CCSD(R12))
  Christian B. Nielsen,     University of Copenhagen,     Denmark     (QM/MM)
  Patrick Norman,           Linkoeping University,        Sweden      (Cubic response and complex response in RESPONS)
  Jeppe Olsen,              Aarhus University,            Denmark     (SIRIUS CI/density modules)
  Jogvan Magnus H. Olsen,   Univ. of Southern Denmark,    Denmark     (Polarizable embedding, PE library, QM/MM)
  Anders Osted,             Copenhagen University,        Denmark     (QM/MM)
  Martin J. Packer,         University of Sheffield,      UK          (SOPPA)
  Filip Pawlowski,          Kazimierz Wielki University   Poland      (CC3)
  Thomas B. Pedersen,       University of Oslo,           Norway      (Cholesky decomposition)
  Patricio F. Provasi,      University of Northeastern,   Argentina   (Analysis of coupling constants in localized orbitals)
  Zilvinas Rinkevicius,     KTH Stockholm,                Sweden      (open-shell DFT, ESR)
  Elias Rudberg,            KTH Stockholm,                Sweden      (DFT grid and basis info)
  Torgeir A. Ruden,         University of Oslo,           Norway      (Numerical derivatives in ABACUS)
  Kenneth Ruud,             UiT The Arctic U. of Norway,  Norway      (DALTON; ABACUS magnetic properties and  much more)
  Pawel Salek,              KTH Stockholm,                Sweden      (DALTON; DFT code)
  Claire C. M. Samson       University of Karlsruhe       Germany     (Boys localization, r12 integrals in ERI)
  Alfredo Sanchez de Meras, University of Valencia,       Spain       (CC module, Cholesky decomposition)
  Trond Saue,               Paul Sabatier University,     France      (direct Fock matrix construction)
  Stephan P. A. Sauer,      University of Copenhagen,     Denmark     (SOPPA(CCSD), SOPPA prop., AOSOPPA, vibrational g-factors)
  Bernd Schimmelpfennig,    Forschungszentrum Karlsruhe,  Germany     (AMFI module)
  Kristian Sneskov,         Aarhus University,            Denmark     (QM/MM, PE-CC)
  Arnfinn H. Steindal,      UiT The Arctic U. of Norway,  Norway      (parallel QM/MM)
  K. O. Sylvester-Hvid,     University of Copenhagen,     Denmark     (MC-SCRF)
  Peter R. Taylor,          VLSCI/Univ. of Melbourne,     Australia   (Symmetry handling ABACUS, integral transformation)
  Andrew M. Teale,          University of Nottingham,     England     (DFT-AC, DFT-D)
  David P. Tew,             University of Bristol,        England     (CCSD(R12))
  Olav Vahtras,             KTH Stockholm,                Sweden      (triplet response, spin-orbit, ESR, TDDFT, open-shell DFT)
  David J. Wilson,          La Trobe University,          Australia   (DFT Hessian and DFT magnetizabilities)
  Hans Agren,               KTH Stockholm,                Sweden      (SIRIUS module, RESPONS, MC-SCRF solvation model)
 --------------------------------------------------------------------------------

     Date and time (Linux)  : Sun Sep  8 20:42:54 2013
     Host name              : lpqlx131.ups-tlse.fr                    

 * Work memory size             :    64000000 =  488.28 megabytes.

 * Directories for basis set searches:
   1) /home/bast/DALTON-2013.0-Source/build/test_cc3_HF_ccpVDZ_tmom
   2) /home/bast/DALTON-2013.0-Source/build/basis


Compilation information
-----------------------

 Who compiled             | bast
 Host                     | lpqlx131.ups-tlse.fr
 System                   | Linux-3.8.5-201.fc18.x86_64
 CMake generator          | Unix Makefiles
 Processor                | x86_64
 64-bit integers          | OFF
 MPI                      | OFF
 Fortran compiler         | /usr/bin/gfortran
 Fortran compiler version | GNU Fortran (GCC) 4.7.2 20121109 (Red Hat 4.7.2-8)
 C compiler               | /usr/bin/gcc
 C compiler version       | gcc (GCC) 4.7.2 20121109 (Red Hat 4.7.2-8)
 C++ compiler             | /usr/bin/g++
 C++ compiler version     | g++ (GCC) 4.7.2 20121109 (Red Hat 4.7.2-8)
 Static linking           | OFF
 Last Git revision        | f34203295a86316e27f9e7b44f9b6769c4a046c0
 Configuration time       | 2013-09-08 20:31:27.952056


   Content of the .dal input file
 ----------------------------------

**DALTON                                          
.RUN WAVE FUNCTIONS                               
**INTEGRAL                                        
.DIPLEN                                           
.DIPVEL                                           
.ANGMOM                                           
**WAVE FUNCTION                                   
.CC                                               
*SCF INPUT                                        
.THRESH                                           
 1.0D-12                                          
.NODIIS                                           
*ORBITAL INPUT                                    
.NOSUPSYM                                         
.MOSTART                                          
.H1DIAG                                           
*CC INP                                           
.CC3                                              
.PRINT                                            
 1                                                
.THRENR                                           
5.0D-9                                            
.THRLEQ                                           
5.0D-9                                            
.MAX IT                                           
 100                                              
*CCEXCI                                           
.THREXC                                           
 5.0D-9                                           
.TOLSC                                            
 5.0D-9                                           
.NCCEXCI                                          
 0 1 0 0                                          
 0 0 0 0                                          
*CCOPA                                            
.OPERATOR                                         
XDIPLEN                                           
**END OF DALTON                                   


   Content of the .mol file
 ----------------------------

BASIS                                                                          
cc-pVDZ                                                                        
CCSD(T) unrelaxed FOP                                                          
Dum di dum di da                                                               
    2    2  X  Y  Z   1.00D-15                                                 
        9.0   1    2    1    1                                                 
F     0.0000000000000000   0.000000000   0.08729478                            
        1.0   1    1    1                                                      
H     0.0000000000000000   0.000000000  -1.64558444                            


       *******************************************************************
       *********** Output from DALTON general input processing ***********
       *******************************************************************

 --------------------------------------------------------------------------------
   Overall default print level:    0
   Print level for DALTON.STAT:    1

    HERMIT 1- and 2-electron integral sections will be executed
    "Old" integral transformation used (limited to max 255 basis functions)
    Wave function sections will be executed (SIRIUS module)
 --------------------------------------------------------------------------------


   ****************************************************************************
   *************** Output of molecule and basis set information ***************
   ****************************************************************************


    The two title cards from your ".mol" input:
    ------------------------------------------------------------------------
 1: CCSD(T) unrelaxed FOP                                                   
 2: Dum di dum di da                                                        
    ------------------------------------------------------------------------

  Atomic type no.    1
  --------------------
  Nuclear charge:   9.00000
  Number of symmetry independent centers:    1
  Number of basis sets to read;    1
  Basis set file used for this atomic type with Z =   9 :
     "/home/bast/DALTON-2013.0-Source/build/basis/cc-pVDZ"

  Atomic type no.    2
  --------------------
  Nuclear charge:   1.00000
  Number of symmetry independent centers:    1
  Number of basis sets to read;    1
  Basis set file used for this atomic type with Z =   1 :
     "/home/bast/DALTON-2013.0-Source/build/basis/cc-pVDZ"


                         SYMGRP: Point group information
                         -------------------------------

Point group: C2v

   * The point group was generated by:

      Reflection in the yz-plane
      Reflection in the xz-plane

   * Group multiplication table

        |  E   C2z  Oxz  Oyz
   -----+--------------------
     E  |  E   C2z  Oxz  Oyz
    C2z | C2z   E   Oyz  Oxz
    Oxz | Oxz  Oyz   E   C2z
    Oyz | Oyz  Oxz  C2z   E 

   * Character table

        |  E   C2z  Oxz  Oyz
   -----+--------------------
    A1  |   1    1    1    1
    B1  |   1   -1    1   -1
    B2  |   1   -1   -1    1
    A2  |   1    1   -1   -1

   * Direct product table

        | A1   B1   B2   A2 
   -----+--------------------
    A1  | A1   B1   B2   A2 
    B1  | B1   A1   A2   B2 
    B2  | B2   A2   A1   B1 
    A2  | A2   B2   B1   A1 


                                 Isotopic Masses
                                 ---------------

                           F          18.998403
                           H           1.007825

                       Total mass:    20.006228 amu
                       Natural abundance:  99.985 %

 Center-of-mass coordinates (a.u.):    0.000000    0.000000    0.000000


  Atoms and basis sets
  --------------------

  Number of atom types :    2
  Total number of atoms:    2

  Basis set used is "cc-pVDZ" from the basis set library.

  label    atoms   charge   prim   cont     basis
  ----------------------------------------------------------------------
  F           1    9.0000    26    14      [9s4p1d|3s2p1d]                                    
  H           1    1.0000     7     5      [4s1p|2s1p]                                        
  ----------------------------------------------------------------------
  total:      2   10.0000    33    19
  ----------------------------------------------------------------------
  Spherical harmonic basis used.

  Threshold for neglecting AO integrals:  1.00D-15


  Cartesian Coordinates (a.u.)
  ----------------------------

  Total number of coordinates:    6
  F       :     1  x   0.0000000000    2  y   0.0000000000    3  z   0.0872947800
  H       :     4  x   0.0000000000    5  y   0.0000000000    6  z  -1.6455844400


  Symmetry Coordinates
  --------------------

  Number of coordinates in each symmetry:     2    2    2    0

  Symmetry  A1  ( 1)

    1   F     z    3
    2   H     z    6

  Symmetry  B1  ( 2)

    3   F     x    1
    4   H     x    4

  Symmetry  B2  ( 3)

    5   F     y    2
    6   H     y    5


   Interatomic separations (in Angstrom):
   --------------------------------------

            F           H     
            ------      ------
 F     :    0.000000
 H     :    0.917000    0.000000


  Max    interatomic separation is    0.9170 Angstrom (    1.7329 Bohr)
  between atoms    2 and    1, "H     " and "F     ".

  Min HX interatomic separation is    0.9170 Angstrom (    1.7329 Bohr)


  Bond distances (Angstrom):
  --------------------------

                  atom 1     atom 2       distance
                  ------     ------       --------
  bond distance:  H          F            0.917000




 Principal moments of inertia (u*A**2) and principal axes
 --------------------------------------------------------

   IA       0.000000          0.000000    0.000000    1.000000
   IB       0.804778          0.000000    1.000000    0.000000
   IC       0.804778          1.000000    0.000000    0.000000


 Rotational constants
 --------------------

 The molecule is linear.

               B =       627973.52 MHz     (   20.946942 cm-1)


@  Nuclear repulsion energy :    5.193668373495 Hartree


  Symmetry Orbitals
  -----------------

  Number of orbitals in each symmetry:          10    4    4    1


  Symmetry  A1 ( 1)

    1     F        1s         1
    2     F        1s         2
    3     F        1s         3
    4     F        2pz        6
    5     F        2pz        9
    6     F        3d0       12
    7     F        3d2+      14
    8     H        1s        15
    9     H        1s        16
   10     H        2pz       19


  Symmetry  B1 ( 2)

   11     F        2px        4
   12     F        2px        7
   13     F        3d1+      13
   14     H        2px       17


  Symmetry  B2 ( 3)

   15     F        2py        5
   16     F        2py        8
   17     F        3d1-      11
   18     H        2py       18


  Symmetry  A2 ( 4)

   19     F        3d2-      10

  Symmetries of electric field:  B1 (2)  B2 (3)  A1 (1)

  Symmetries of magnetic field:  B2 (3)  B1 (2)  A2 (4)


                     .---------------------------------------.
                     | Starting in Integral Section (HERMIT) |
                     `---------------------------------------'



    *************************************************************************
    ****************** Output from HERMIT input processing ******************
    *************************************************************************


 Default print level:        1

 * Nuclear model: Point charge

 Calculation of one- and two-electron Hamiltonian integrals.

 The following one-electron property integrals are calculated as requested:
          - overlap integrals
          - dipole length integrals
          - dipole velocity integrals
          - electronic angular momentum around the origin

 Center of mass  (bohr):      0.000000000000      0.000000000000      0.000000013595
 Operator center (bohr):      0.000000000000      0.000000000000      0.000000000000
 Gauge origin    (bohr):      0.000000000000      0.000000000000      0.000000000000
 Dipole origin   (bohr):      0.000000000000      0.000000000000      0.000000000000


     ************************************************************************
     ************************** Output from HERINT **************************
     ************************************************************************


 Threshold for neglecting two-electron integrals:  1.00D-15
 Number of two-electron integrals written:        4125 ( 22.7% )
 Megabytes written:                              0.048

 >>>> Total CPU  time used in HERMIT:   0.01 seconds
 >>>> Total wall time used in HERMIT:   0.01 seconds


                        .----------------------------------.
                        | End of Integral Section (HERMIT) |
                        `----------------------------------'



                   .--------------------------------------------.
                   | Starting in Wave Function Section (SIRIUS) |
                   `--------------------------------------------'

 NCCEXCI for singlet:           0           1           0           0
 NCCEXCI for triplet:           0           0           0           0

 **********************************************************************
 *SIRIUS* a direct, restricted step, second order MCSCF program       *
 **********************************************************************

 
     Date and time (Linux)  : Sun Sep  8 20:42:54 2013
     Host name              : lpqlx131.ups-tlse.fr                    

 Title lines from ".mol" input file:
     CCSD(T) unrelaxed FOP                                                   
     Dum di dum di da                                                        

 Print level on unit LUPRI =   2 is   0
 Print level on unit LUW4  =   2 is   5

@    (Integral direct) CC calculation.

@    This is a combination run starting with
@              a restricted, closed shell Hartree-Fock calculation


 Initial molecular orbitals are obtained according to
 ".MOSTART H1DIAG" input option

     Wave function specification
     ============================

     For the specification of the Coupled Cluster: see later.

@    For the wave function of type :      >>> CC <<<
@    Number of closed shell electrons          10
@    Number of electrons in active shells       0
@    Total charge of the molecule               0

@    Spin multiplicity and 2 M_S                1         0
     Total number of symmetries                 4
@    Reference state symmetry                   1

     Orbital specifications
     ======================
     Abelian symmetry species          All |    1    2    3    4
                                       --- |  ---  ---  ---  ---
     Total number of orbitals           19 |   10    4    4    1
     Number of basis functions          19 |   10    4    4    1

      ** Automatic occupation of RHF orbitals **

      -- Initial occupation of symmetries is determined from diagonal of H1 matrix.           
      -- Initial occupation of symmetries is :
@    Occupied SCF orbitals               5 |    3    1    1    0

     Maximum number of Fock   iterations      0
     Maximum number of DIIS   iterations      0
     Maximum number of QC-SCF iterations     60
     Threshold for SCF convergence     1.00D-12


 Changes of defaults for CC:
 ---------------------------


 -Iterative triple excitations included 
 -Excitation energies calculated
 -One-photon absorption strengths will be calculated
  


        SIRIUS QC-HF optimization (SIROPT)
 ================================================


   <<< OUTPUT FROM SIRCNO >>>    Keyword = ONLYFD

     (Precalculated two-electron integrals are transformed to P-supermatrix elements.
      Threshold for discarding integrals :  1.00D-15 )


 <<< MACRO ITERATION  1 >>>
 --------------------------

 Total MCSCF energy       :           -93.628855123816152  (MACRO    1)

 - Nuclear repulsion      :             5.193668373494606
 - Inactive energy        :           -98.822523497310755
 - Active energy          :             0.000000000000000

 Norm of total gradient   :             8.748990163229
 -    of CI gradient      :             0.000000000000
 -    of orbital gradient :             8.748990163229
      Virial theorem: -V/T =      1.742249
@      MULPOP F      -1.07; H       1.07; 

 (SIRNEO) iteration (  1,  2)
 Micro iteration termination criterion met, EVAL(ISTATE+1) = -1.48D+00

   <<< OUTPUT FROM SIRCNO >>>    Keyword = FD+NO 



 <<< MACRO ITERATION  2 >>>
 --------------------------

 Total MCSCF energy       :           -98.569258505426532  (MACRO    2)

 - Nuclear repulsion      :             5.193668373494606
 - Inactive energy        :          -103.762926878921135
 - Active energy          :             0.000000000000000

 Norm of total gradient   :             6.085376458643
 -    of CI gradient      :             0.000000000000
 -    of orbital gradient :             6.085376458643
      Virial theorem: -V/T =      1.891208
@      MULPOP F      -0.60; H       0.60; 

 Residual norm when dim(red L) =   3
 NEO root     CSF        orbital          total
    1     0.00000000     1.01493370     1.01493370 converged

 (NEONEX) NEO vector is converged.

   <<< OUTPUT FROM SIRCNO >>>    Keyword = FD+NO 



 <<< MACRO ITERATION  3 >>>
 --------------------------

 Total MCSCF energy       :           -99.867871161456378  (MACRO    3)

 - Nuclear repulsion      :             5.193668373494606
 - Inactive energy        :          -105.061539534950981
 - Active energy          :             0.000000000000000

 Norm of total gradient   :             2.110028947460
 -    of CI gradient      :             0.000000000000
 -    of orbital gradient :             2.110028947460
      Virial theorem: -V/T =      2.034455
@      MULPOP F      -0.10; H       0.10; 

 Residual norm when dim(red L) =   3
 NEO root     CSF        orbital          total
    1     0.00000000     0.03492161     0.03492161 converged

 (NEONEX) NEO vector is converged.

   <<< OUTPUT FROM SIRCNO >>>    Keyword = FD+NO 



 <<< MACRO ITERATION  4 >>>
 --------------------------

 Total MCSCF energy       :          -100.019193968062879  (MACRO    4)

 - Nuclear repulsion      :             5.193668373494606
 - Inactive energy        :          -105.212862341557482
 - Active energy          :             0.000000000000000

 Norm of total gradient   :             0.055206190204
 -    of CI gradient      :             0.000000000000
 -    of orbital gradient :             0.055206190204
      Virial theorem: -V/T =      1.999860
@      MULPOP F      -0.24; H       0.24; 

 Residual norm when dim(red L) =   3
 NEO root     CSF        orbital          total
    1     0.00000000     0.00200150     0.00200150 converged

 (NEONEX) NEO vector is converged.

   <<< OUTPUT FROM SIRCNO >>>    Keyword = FD+NO 



 <<< MACRO ITERATION  5 >>>
 --------------------------

 Total MCSCF energy       :          -100.019411138017404  (MACRO    5)

 - Nuclear repulsion      :             5.193668373494606
 - Inactive energy        :          -105.213079511512007
 - Active energy          :             0.000000000000000

 Norm of total gradient   :             0.001843182856
 -    of CI gradient      :             0.000000000000
 -    of orbital gradient :             0.001843182856
      Virial theorem: -V/T =      1.999913
@      MULPOP F      -0.24; H       0.24; 

 Residual norm when dim(red L) =   6
 NEO root     CSF        orbital          total
    1     0.00000000     0.00000036     0.00000036 converged

 (NEONEX) NEO vector is converged.

   <<< OUTPUT FROM SIRCNO >>>    Keyword = FD+NO 



 <<< MACRO ITERATION  6 >>>
 --------------------------

 Total MCSCF energy       :          -100.019411261974994  (MACRO    6)

 - Nuclear repulsion      :             5.193668373494606
 - Inactive energy        :          -105.213079635469597
 - Active energy          :             0.000000000000000

 Norm of total gradient   :             0.000000377586
 -    of CI gradient      :             0.000000000000
 -    of orbital gradient :             0.000000377586
      Virial theorem: -V/T =      1.999936
@      MULPOP F      -0.24; H       0.24; 

 Residual norm when dim(red L) =   8
 NEO root     CSF        orbital          total
    1     0.00000000     0.00000000     0.00000000 converged

 (NEONEX) NEO vector is converged.

   <<< OUTPUT FROM SIRCNO >>>    Keyword = FD+NO 



 <<< MACRO ITERATION  7 >>>
 --------------------------

 Total MCSCF energy       :          -100.019411261974540  (MACRO    7)

 - Nuclear repulsion      :             5.193668373494606
 - Inactive energy        :          -105.213079635469143
 - Active energy          :             0.000000000000000

 Norm of total gradient   :             0.000000000000
 -    of CI gradient      :             0.000000000000
 -    of orbital gradient :             0.000000000000
      Virial theorem: -V/T =      1.999936
@      MULPOP F      -0.24; H       0.24; 

 (SIRSTP) Close to convergence, ratio set to one.
 Energy difference; actual and predicted:    4.54747D-13   -3.29784D-15

 (SIRSTP) Close to convergence, ratio set to one.
 Energy difference; actual and predicted:   -1.37892D+02
 Close to convergence, ratio set to one.

 *** Optimization control: QC-HF converged ***
     Number of macro iterations used            7
     Number of micro iterations used           20
     Total number of CPU seconds used         0.01


 *** SCF orbital energy analysis ***

 Only the five lowest virtual orbital energies printed in each symmetry.

 Number of electrons :   10
 Orbital occupations :    3    1    1    0

 Sym       Hartree-Fock orbital energies

  1    -26.27812790    -1.58345225    -0.74719710     0.18383997     0.81004875
         1.41561908     2.13409617     2.49887227

  2     -0.62888914     1.41187802     1.60414910     4.28032814

  3     -0.62888914     1.41187802     1.60414910     4.28032814

  4      4.00435439

    E(LUMO) :     0.18383997 au (symmetry 1)
  - E(HOMO) :    -0.62888914 au (symmetry 3)
  ------------------------------------------
    gap     :     0.81272910 au

 >>>> CPU and wall time for SCF :       0.008       0.007


                     .----------------------------------------.
                     | >>> SIRIUS OPTIMIZATION STATISTICS <<< |
                     `----------------------------------------'


 
     Date and time (Linux)  : Sun Sep  8 20:42:54 2013
     Host name              : lpqlx131.ups-tlse.fr                    


  ITER ITMIC     EMCSCF           GRDNRM        RATIO      STPLNG
 ---------------------------------------------------------------------
    1    2    -93.628855123816   8.7489901632  0.000000   0.6971187846
    2    2    -98.569258505427   6.0853764586  0.809391   0.6632606234
    3    2    -99.867871161456   2.1100289475  0.703990   0.1520624702
    4    2   -100.019193968063   0.0552061902  0.995917   0.0100152158
    5    5   -100.019411138017   0.0018431829  0.999920   0.0001767947
    6    7   -100.019411261975   0.0000003776  0.999975   0.0000000000
    7    0   -100.019411261975   0.0000000000  1.000000   0.0000000000


  ITER  INDGCM  GCIMAX      GCINRM     INDGOM  GOBMAX      GOBNRM      GRDNRM
 ------------------------------------------------------------------------------
    1      0    0.000000    0.000000     11   -5.031597    8.748990    8.748990
    2      0    0.000000    0.000000      4   -2.120477    6.085376    6.085376
    3      0    0.000000    0.000000     22   -1.028316    2.110029    2.110029
    4      0    0.000000    0.000000     19   -0.026784    0.055206    0.055206
    5      0    0.000000    0.000000     11   -0.000926    0.001843    0.001843
    6      0    0.000000    0.000000      4   -0.000000    0.000000    0.000000
    7      0    0.000000    0.000000      1    0.000000    0.000000    0.000000


  ITER ITMIC NCLIN NOLIN   TIMMAC    TIMITR    TIMMIC    TIMLIN    TIMMIC/ITMIC
 ------------------------------------------------------------------------------

    1     2     0     2      0.00      0.00      0.00      0.00      0.00
    2     2     0     2      0.00      0.00      0.00      0.00      0.00
    3     2     0     2      0.00      0.00      0.00      0.00      0.00
    4     2     0     2      0.00      0.00      0.00      0.00      0.00
    5     5     0     5      0.00      0.00      0.00      0.00      0.00
    6     7     0     7      0.00      0.00      0.00      0.00      0.00
    7     0     0     0      0.00      0.00      0.00      0.00


 ITER         EMY                 EACTIV              EMCSCF

    1    -98.822523497311      0.000000000000    -93.628855123816
    2   -103.762926878921      0.000000000000    -98.569258505427
    3   -105.061539534951      0.000000000000    -99.867871161456
    4   -105.212862341557      0.000000000000   -100.019193968063
    5   -105.213079511512      0.000000000000   -100.019411138017
    6   -105.213079635470      0.000000000000   -100.019411261975
    7   -105.213079635469      0.000000000000   -100.019411261975


 ITER         DEPRED              DEACT               RATIO

    1      0.000000000000      0.000000000000      0.000000000000
    2     -6.103852596988     -4.940403381610      0.809391003978
    3     -1.844645298760     -1.298612656030      0.703990440277
    4     -0.151943173693     -0.151322806607      0.995917111173
    5     -0.000217187355     -0.000217169955      0.999919880955
    6     -0.000000123961     -0.000000123958      0.999975382295
    7     -0.000000000000      0.000000000000      1.000000000000


 ITER    BETA           GAMMA             STPLNG              RTRUST

    1      1.55598518  1.00000000      0.697118784621      0.700000000000
    2      0.20000000  1.00000000      0.663260623434      0.700000000000
    3      0.20000000  1.00000000      0.152062470197      0.700000000000
    4      0.20000000  1.00000000      0.010015215834      0.700000000000
    5      0.20000000  1.00000000      0.000176794742      0.700000000000
    6      0.20000000  1.00000000      0.000000000000      0.700000000000
    7      0.00000000  0.00000000      0.000000000000      0.700000000000


 Reduced L root no.  1
 ITER         EVAL              EVEC(1)           EVEC(2)           EVEC(3)
 ----------------------------------------------------------------------------
    1  -13.579027778684    0.677816078926   -0.676109689873   -0.288861645790
    2   -0.145019771002    0.991316144969   -0.118119594828   -0.057793269864
    3   -0.012144221465    0.999537860660   -0.028764082021   -0.009833244281
    4   -0.000017374919    0.999997993915   -0.001999735137   -0.000115000929
    5   -0.000000009917    0.999999999375   -0.000031330134   -0.000016112102
    6   -0.000000000000    1.000000000000   -0.000000006303   -0.000000001223
    7    0.000000000000    0.000000000000    0.000000000000    0.000000000000


                       .-----------------------------------.
                       | >>> Final results from SIRIUS <<< |
                       `-----------------------------------'


@    Spin multiplicity:           1
@    Spatial symmetry:            1
@    Total charge of molecule:    0

@    Final HF energy:            -100.019411261975                 
@    Nuclear repulsion:             5.193668373495
@    Electronic energy:          -105.213079635469

@    Final gradient norm:           0.000000000000

 
     Date and time (Linux)  : Sun Sep  8 20:42:54 2013
     Host name              : lpqlx131.ups-tlse.fr                    

 (Only coefficients >0.0100 are printed.)

 Molecular orbitals for symmetry species  1
 ------------------------------------------

    Orbital         1        2        3        4        5
   1 F   :1s     1.0002  -0.0040   0.0036  -0.0346  -0.0272
   2 F   :1s     0.0010   0.9367  -0.2213   0.1263  -0.2350
   3 F   :1s    -0.0010  -0.0522  -0.1640   0.5982   0.2723
   4 F   :2pz   -0.0016  -0.0906  -0.8030  -0.3148   0.5356
   5 F   :2pz    0.0013   0.0486   0.0682  -0.1919  -0.0504
   6 F   :3d0   -0.0000   0.0055   0.0181   0.0084   0.0739
   8 H   :1s     0.0003   0.2972   0.6594  -0.1490   2.1706
   9 H   :1s     0.0005  -0.1435  -0.2908  -1.1908  -1.9950
  10 H   :2pz   -0.0004   0.0453   0.0573  -0.0185  -0.3276

 Molecular orbitals for symmetry species  2
 ------------------------------------------

    Orbital         1        2        3
   1 F   :2px   -0.9598  -1.2286   0.5645
   2 F   :2px   -0.0355   1.3159  -1.1189
   3 F   :3d1+   0.0123  -0.0219  -0.0788
   4 H   :2px   -0.0341   0.4356   0.9809

 Molecular orbitals for symmetry species  3
 ------------------------------------------

    Orbital         1        2        3
   1 F   :2py   -0.9598  -1.2286   0.5645
   2 F   :2py   -0.0355   1.3159  -1.1189
   3 F   :3d1-   0.0123  -0.0219  -0.0788
   4 H   :2py   -0.0341   0.4356   0.9809

 Molecular orbitals for symmetry species  4
 ------------------------------------------

    Orbital         1
   1 F   :3d2-   1.0000



 >>>> Total CPU  time used in SIRIUS :      0.01 seconds
 >>>> Total wall time used in SIRIUS :      0.01 seconds

 
     Date and time (Linux)  : Sun Sep  8 20:42:54 2013
     Host name              : lpqlx131.ups-tlse.fr                    


                     .---------------------------------------.
                     | End of Wave Function Section (SIRIUS) |
                     `---------------------------------------'



                    .------------------------------------------.
                    | Starting in Coupled Cluster Section (CC) |
                    `------------------------------------------'

  

 *******************************************************************************
 *******************************************************************************
 *                                                                             *
 *                                                                             *
 *                    START OF COUPLED CLUSTER CALCULATION                     *
 *                                                                             *
 *                                                                             *
 *******************************************************************************
 *******************************************************************************



 CCR12 ANSATZ =   0

 CCR12 APPROX =   0

   

 *******************************************************************
 *                                                                 *
 *<<<<<<<<<<                                             >>>>>>>>>>*
 *<<<<<<<<<< OUTPUT FROM COUPLED CLUSTER ENERGY PROGRAM  >>>>>>>>>>*
 *<<<<<<<<<<                                             >>>>>>>>>>*
 *                                                                 *
 *******************************************************************


             The Direct Coupled Cluster Energy Program
             -----------------------------------------


          Number of t1 amplitudes                 :        27
          Number of t2 amplitudes                 :       729
          Total number of amplitudes in ccsd      :       756

 Iter.  1: Coupled cluster MP2   energy :    -100.2231931819756880
 Iter.  1: Coupled cluster CC3   energy :    -100.2269136029308072
 Iter.  2: Coupled cluster CC3   energy :    -100.2299361963185618
 Iter.  3: Coupled cluster CC3   energy :    -100.2302007429394024
 Iter.  4: Coupled cluster CC3   energy :    -100.2301796894504520
 Iter.  5: Coupled cluster CC3   energy :    -100.2301826639574358
 Iter.  6: Coupled cluster CC3   energy :    -100.2301806601013823
 Iter.  7: Coupled cluster CC3   energy :    -100.2301803913327802
 Iter.  8: Coupled cluster CC3   energy :    -100.2301803985607194
 Iter.  9: Coupled cluster CC3   energy :    -100.2301803943095990

 CC3   energy converged to within   0.50D-08 is         -100.230180394310
 Final 2-norm of the CC vector function:  2.92470199D-07





             +-------------------------------------------------------+
             ! Final results from the Coupled Cluster energy program !
             +-------------------------------------------------------+



            Total SCF   energy:                  -100.0194112620

            Total MP2   energy:                  -100.2231931820

            Total CC3   energy:                  -100.2301803943




                   +--------------------------------------------+
                   ! Calculating singlet intermediates for CCLR !
                   +--------------------------------------------+



            E-intermediates calculated 
            Fock-intermediate calculated 
            Gamma-intermediate calculated 
            BF-intermediate calculated 
            C-intermediate calculated 
            D-intermediate calculated 


   

 *******************************************************************
 *                                                                 *
 *<<<<<<<<<<<<< OUTPUT FROM COUPLED CLUSTER RESPONSE  >>>>>>>>>>>>>*
 *                                                                 *
 *******************************************************************



                         +-------------------------------+
                         ! Coupled Cluster model is: CC3 !
                         +-------------------------------+

 RPA: call cceq_str
     Start vector generated from gradient
 RPA: exit cceq_str



 >>>>> COUPLED CLUSTER RESPONSE SOLVER <<<<<

    Iter  #Vectors  time (min)   residual
    --------------------------------------
      1       1         0.00     0.49E+00
      2       1         0.00     0.11E+00
      3       1         0.00     0.21E-01
      4       1         0.00     0.50E-02
      5       1         0.00     0.10E-02
      6       1         0.00     0.25E-03
      7       1         0.00     0.52E-04
      8       1         0.00     0.90E-05
      9       1         0.00     0.14E-05
     10       1         0.00     0.15E-06
     11       1         0.00     0.25E-07
     12       1         0.00     0.38E-08
    --------------------------------------
    converged in 12 iterations
    threshold:    0.50E-08


         Routine          Time (min)
         ---------------------------
         CC_TRDRV            0.01
         CCRED               0.00
         CCNEX               0.00
         ---------------------------
         Total time          0.01


 >>>> Total CPU  time used in CCEQ_SOLV:   0.44 seconds
 >>>> Total wall time used in CCEQ_SOLV:   0.66 seconds


 >>>>>>>>>>>>>>>>>>>>> <<<<<<<<<<<<<<<<<<<<<

  
   

 *******************************************************************
 *                                                                 *
 *<<<<<<<<<< OUTPUT FROM COUPLED CLUSTER LINEAR RESPONSE >>>>>>>>>>*
 *                                                                 *
 *<<<<<<<<<<     CALCULATION OF EXCITATION ENERGIES      >>>>>>>>>>*
 *                                                                 *
 *******************************************************************



                            +--------------------------+
                            !  CC3 Excitation Energies !
                            +--------------------------+


 --------------------------
 Symmetry class Nr.:     1
 Multiplicity      :     1
 --------------------------

 Length of Excitation vectors in this class is:       756
 No Excitation Energies calculated in this symmetry class

 --------------------------
 Symmetry class Nr.:     1
 Multiplicity      :     3
 --------------------------

 Length of Excitation vectors in this class is:      1485
 No Excitation Energies calculated in this symmetry class


 *******************************************************************************

 --------------------------
 Symmetry class Nr.:     2
 Multiplicity      :     1
 --------------------------

 Length of Excitation vectors in this class is:       629
 Converging for  1 roots.
  >> output from FNDMN3 <<
  NUMBER OF ELEMENTS OBTAINED IN FNDMN3            4
  MIN AND MAX IN SELECTED SUPSPACE   0.81272910444377855        2.0445082144693134     
 Start vector guessed from diagonal
 ... selected element no. 10



 >>>>> COUPLED CLUSTER RESPONSE SOLVER <<<<<

    Iter  #Vectors  time (min)   residual
    --------------------------------------

 REDUCED EIGENVALUES real part:

               Column   1
       1       0.53120746
    ==== End of matrix output ====
      1       1         0.00     0.51E+00

 REDUCED EIGENVALUES real part:

               Column   1
       1       0.39949211
    ==== End of matrix output ====
      2       1         0.00     0.95E-01

 REDUCED EIGENVALUES real part:

               Column   1
       1       0.39796698
    ==== End of matrix output ====
      3       1         0.00     0.52E-01

 REDUCED EIGENVALUES real part:

               Column   1
       1       0.39774315
    ==== End of matrix output ====
      4       1         0.00     0.18E-01

 REDUCED EIGENVALUES real part:

               Column   1
       1       0.39752084
    ==== End of matrix output ====
      5       1         0.00     0.56E-02

 REDUCED EIGENVALUES real part:

               Column   1
       1       0.39749752
    ==== End of matrix output ====
      6       1         0.00     0.17E-02

 REDUCED EIGENVALUES real part:

               Column   1
       1       0.39749649
    ==== End of matrix output ====
      7       1         0.00     0.43E-03

 REDUCED EIGENVALUES real part:

               Column   1
       1       0.39749471
    ==== End of matrix output ====
      8       1         0.00     0.70E-04

 REDUCED EIGENVALUES real part:

               Column   1
       1       0.39749438
    ==== End of matrix output ====
      9       1         0.00     0.11E-04

 REDUCED EIGENVALUES real part:

               Column   1
       1       0.39749446
    ==== End of matrix output ====
     10       1         0.00     0.23E-05

 REDUCED EIGENVALUES real part:

               Column   1
       1       0.39749447
    ==== End of matrix output ====
     11       1         0.00     0.55E-06

 REDUCED EIGENVALUES real part:

               Column   1
       1       0.39749447
    ==== End of matrix output ====
     12       1         0.00     0.10E-06

 REDUCED EIGENVALUES real part:

               Column   1
       1       0.39749447
    ==== End of matrix output ====
     13       1         0.00     0.21E-07

 REDUCED EIGENVALUES real part:

               Column   1
       1       0.39749447
    ==== End of matrix output ====
     14       1         0.00     0.46E-08
    --------------------------------------
    converged in 14 iterations
    threshold:    0.50E-08


         Routine          Time (min)
         ---------------------------
         CC_TRDRV            0.01
         CCRED               0.00
         CCNEX               0.00
         ---------------------------
         Total time          0.01


 >>>> Total CPU  time used in CCEQ_SOLV:   0.54 seconds
 >>>> Total wall time used in CCEQ_SOLV:   0.87 seconds


 >>>>>>>>>>>>>>>>>>>>> <<<<<<<<<<<<<<<<<<<<<



  Final eigenvalues :
 =====================
 (convergence threshold:  5.00D-09)

    1   0.3974944703


 SYMMETRY CLASS NR.    2
 MULTIPLICITY          1


 CC3        excitation energies with Omega=   0.000000
 =====================================================
 (conversion factor used: 1 au = 27.2113957 eV)

 Excitation no.       Hartree               eV 
 --------------       -------               --
         1            0.3974944703       10.8163747526


 Total excited state energies for states of symmetry/spin    2    1
 Excitation no.       Energy (Hartree) 
 ------------------------------------- 
@@    2    1           -99.832685924012452


 Analysis of the Coupled Cluster Excitation Vector Number :  1
 -------------------------------------------------------------

          Excitation Energy :                            10.8164 eV


          CC_PRAM:Overall Contribution of the Different Components
          --------------------------------------------------------



          Single Excitation Contribution :              95.5973 %

          Double Excitation Contribution :               4.4027 %

          ||T1||/||T2||                  :               4.6597

          Norm of Total Amplitude Vector :               1.0000


 +=============================================================================+
 | symmetry|  orbital index  |   Excitation Numbers             |   Amplitude  |
 |  Index  |   a   b   i   j |      NAI      NBJ |     NAIBJ    |              |
 +=============================================================================+
 | 1   2   |   1       1     |       10          |              |    0.965203  |
 +-----------------------------------------------------------------------------+
 | 2 1 1 1 |   3   2   1   3 |        3       16 |          258 |    0.105226  |
 +=============================================================================+


          Norm of Printed Amplitude Vector :             0.9709

          Printed all single excitations greater than 0.488869

          Printed all double excitations greater than 0.104914
  >> output from FNDMN3 <<
  NUMBER OF ELEMENTS OBTAINED IN FNDMN3            4
  MIN AND MAX IN SELECTED SUPSPACE   0.81272910444377855        2.0445082144693134     
 Start vector guessed from diagonal
 ... selected element no. 10



 >>>>> COUPLED CLUSTER RESPONSE SOLVER <<<<<

    Iter  #Vectors  time (min)   residual
    --------------------------------------

 REDUCED EIGENVALUES real part:

               Column   1
       1       0.53104616
    ==== End of matrix output ====
      1       1         0.00     0.51E+00

 REDUCED EIGENVALUES real part:

               Column   1
       1       0.40012365
    ==== End of matrix output ====
      2       1         0.00     0.96E-01

 REDUCED EIGENVALUES real part:

               Column   1
       1       0.39847789
    ==== End of matrix output ====
      3       1         0.00     0.53E-01

 REDUCED EIGENVALUES real part:

               Column   1
       1       0.39822730
    ==== End of matrix output ====
      4       1         0.00     0.19E-01

 REDUCED EIGENVALUES real part:

               Column   1
       1       0.39800961
    ==== End of matrix output ====
      5       1         0.00     0.58E-02

 REDUCED EIGENVALUES real part:

               Column   1
       1       0.39798854
    ==== End of matrix output ====
      6       1         0.00     0.17E-02

 REDUCED EIGENVALUES real part:

               Column   1
       1       0.39798774
    ==== End of matrix output ====
      7       1         0.00     0.45E-03

 REDUCED EIGENVALUES real part:

               Column   1
       1       0.39798565
    ==== End of matrix output ====
      8       1         0.00     0.75E-04

 REDUCED EIGENVALUES real part:

               Column   1
       1       0.39798521
    ==== End of matrix output ====
      9       1         0.00     0.12E-04

 REDUCED EIGENVALUES real part:

               Column   1
       1       0.39798527
    ==== End of matrix output ====
     10       1         0.00     0.24E-05

 REDUCED EIGENVALUES real part:

               Column   1
       1       0.39798528
    ==== End of matrix output ====
     11       1         0.00     0.58E-06

 REDUCED EIGENVALUES real part:

               Column   1
       1       0.39798528
    ==== End of matrix output ====
     12       1         0.00     0.11E-06

 REDUCED EIGENVALUES real part:

               Column   1
       1       0.39798528
    ==== End of matrix output ====
     13       1         0.00     0.22E-07

 REDUCED EIGENVALUES real part:

               Column   1
       1       0.39798528
    ==== End of matrix output ====
     14       1         0.00     0.48E-08
    --------------------------------------
    converged in 14 iterations
    threshold:    0.50E-08


         Routine          Time (min)
         ---------------------------
         CC_TRDRV            0.01
         CCRED               0.00
         CCNEX               0.00
         ---------------------------
         Total time          0.01


 >>>> Total CPU  time used in CCEQ_SOLV:   0.54 seconds
 >>>> Total wall time used in CCEQ_SOLV:   0.65 seconds


 >>>>>>>>>>>>>>>>>>>>> <<<<<<<<<<<<<<<<<<<<<



  Final eigenvalues :
 =====================
 (convergence threshold:  5.00D-09)

    1   0.3979852846


 CC3        excitation energies with Omega=   0.397494
 =====================================================
 (conversion factor used: 1 au = 27.2113957 eV)

 Excitation no.       Hartree               eV
 --------------       -------               --

         1            0.397985           10.829730
  >> output from FNDMN3 <<
  NUMBER OF ELEMENTS OBTAINED IN FNDMN3            4
  MIN AND MAX IN SELECTED SUPSPACE   0.81272910444377855        2.0445082144693134     
 Start vector guessed from diagonal
 ... selected element no. 10



 >>>>> COUPLED CLUSTER RESPONSE SOLVER <<<<<

    Iter  #Vectors  time (min)   residual
    --------------------------------------

 REDUCED EIGENVALUES real part:

               Column   1
       1       0.53104595
    ==== End of matrix output ====
      1       1         0.00     0.51E+00

 REDUCED EIGENVALUES real part:

               Column   1
       1       0.40012452
    ==== End of matrix output ====
      2       1         0.00     0.96E-01

 REDUCED EIGENVALUES real part:

               Column   1
       1       0.39847861
    ==== End of matrix output ====
      3       1         0.00     0.53E-01

 REDUCED EIGENVALUES real part:

               Column   1
       1       0.39822797
    ==== End of matrix output ====
      4       1         0.00     0.19E-01

 REDUCED EIGENVALUES real part:

               Column   1
       1       0.39801029
    ==== End of matrix output ====
      5       1         0.00     0.58E-02

 REDUCED EIGENVALUES real part:

               Column   1
       1       0.39798922
    ==== End of matrix output ====
      6       1         0.00     0.17E-02

 REDUCED EIGENVALUES real part:

               Column   1
       1       0.39798842
    ==== End of matrix output ====
      7       1         0.00     0.45E-03

 REDUCED EIGENVALUES real part:

               Column   1
       1       0.39798633
    ==== End of matrix output ====
      8       1         0.00     0.75E-04

 REDUCED EIGENVALUES real part:

               Column   1
       1       0.39798589
    ==== End of matrix output ====
      9       1         0.00     0.12E-04

 REDUCED EIGENVALUES real part:

               Column   1
       1       0.39798595
    ==== End of matrix output ====
     10       1         0.00     0.24E-05

 REDUCED EIGENVALUES real part:

               Column   1
       1       0.39798596
    ==== End of matrix output ====
     11       1         0.00     0.58E-06

 REDUCED EIGENVALUES real part:

               Column   1
       1       0.39798597
    ==== End of matrix output ====
     12       1         0.00     0.11E-06

 REDUCED EIGENVALUES real part:

               Column   1
       1       0.39798597
    ==== End of matrix output ====
     13       1         0.00     0.22E-07

 REDUCED EIGENVALUES real part:

               Column   1
       1       0.39798597
    ==== End of matrix output ====
     14       1         0.00     0.48E-08
    --------------------------------------
    converged in 14 iterations
    threshold:    0.50E-08


         Routine          Time (min)
         ---------------------------
         CC_TRDRV            0.01
         CCRED               0.00
         CCNEX               0.00
         ---------------------------
         Total time          0.01


 >>>> Total CPU  time used in CCEQ_SOLV:   0.54 seconds
 >>>> Total wall time used in CCEQ_SOLV:   0.65 seconds


 >>>>>>>>>>>>>>>>>>>>> <<<<<<<<<<<<<<<<<<<<<



  Final eigenvalues :
 =====================
 (convergence threshold:  5.00D-09)

    1   0.3979859659


 CC3        excitation energies with Omega=   0.397985
 =====================================================
 (conversion factor used: 1 au = 27.2113957 eV)

 Excitation no.       Hartree               eV
 --------------       -------               --

         1            0.397986           10.829749
  >> output from FNDMN3 <<
  NUMBER OF ELEMENTS OBTAINED IN FNDMN3            4
  MIN AND MAX IN SELECTED SUPSPACE   0.81272910444377855        2.0445082144693134     
 Start vector guessed from diagonal
 ... selected element no. 10



 >>>>> COUPLED CLUSTER RESPONSE SOLVER <<<<<

    Iter  #Vectors  time (min)   residual
    --------------------------------------

 REDUCED EIGENVALUES real part:

               Column   1
       1       0.53104595
    ==== End of matrix output ====
      1       1         0.00     0.51E+00

 REDUCED EIGENVALUES real part:

               Column   1
       1       0.40012452
    ==== End of matrix output ====
      2       1         0.00     0.96E-01

 REDUCED EIGENVALUES real part:

               Column   1
       1       0.39847861
    ==== End of matrix output ====
      3       1         0.00     0.53E-01

 REDUCED EIGENVALUES real part:

               Column   1
       1       0.39822798
    ==== End of matrix output ====
      4       1         0.00     0.19E-01

 REDUCED EIGENVALUES real part:

               Column   1
       1       0.39801029
    ==== End of matrix output ====
      5       1         0.00     0.58E-02

 REDUCED EIGENVALUES real part:

               Column   1
       1       0.39798923
    ==== End of matrix output ====
      6       1         0.00     0.17E-02

 REDUCED EIGENVALUES real part:

               Column   1
       1       0.39798842
    ==== End of matrix output ====
      7       1         0.00     0.45E-03

 REDUCED EIGENVALUES real part:

               Column   1
       1       0.39798633
    ==== End of matrix output ====
      8       1         0.00     0.75E-04

 REDUCED EIGENVALUES real part:

               Column   1
       1       0.39798589
    ==== End of matrix output ====
      9       1         0.00     0.12E-04

 REDUCED EIGENVALUES real part:

               Column   1
       1       0.39798596
    ==== End of matrix output ====
     10       1         0.00     0.24E-05

 REDUCED EIGENVALUES real part:

               Column   1
       1       0.39798597
    ==== End of matrix output ====
     11       1         0.00     0.58E-06

 REDUCED EIGENVALUES real part:

               Column   1
       1       0.39798597
    ==== End of matrix output ====
     12       1         0.00     0.11E-06

 REDUCED EIGENVALUES real part:

               Column   1
       1       0.39798597
    ==== End of matrix output ====
     13       1         0.00     0.22E-07

 REDUCED EIGENVALUES real part:

               Column   1
       1       0.39798597
    ==== End of matrix output ====
     14       1         0.00     0.48E-08
    --------------------------------------
    converged in 14 iterations
    threshold:    0.50E-08


         Routine          Time (min)
         ---------------------------
         CC_TRDRV            0.01
         CCRED               0.00
         CCNEX               0.00
         ---------------------------
         Total time          0.01


 >>>> Total CPU  time used in CCEQ_SOLV:   0.54 seconds
 >>>> Total wall time used in CCEQ_SOLV:   0.71 seconds


 >>>>>>>>>>>>>>>>>>>>> <<<<<<<<<<<<<<<<<<<<<



  Final eigenvalues :
 =====================
 (convergence threshold:  5.00D-09)

    1   0.3979859669


 CC3        excitation energies with Omega=   0.397986
 =====================================================
 (conversion factor used: 1 au = 27.2113957 eV)

 Excitation no.       Hartree               eV
 --------------       -------               --

         1            0.397986           10.829749

 Converged root to diff. -0.000000  for root   1 in   4 iterations



 Total excited state energies for states of symmetry/spin   2  1
 Excitation no.       Energy (Hartree) 
 ------------------------------------- 
@@@    2    1           -99.832194427449437


 Analysis of the Coupled Cluster Excitation Vector Number :  1
 -------------------------------------------------------------

          Excitation Energy :                            10.8297 eV


          CC_PRAM:Overall Contribution of the Different Components
          --------------------------------------------------------



          Single Excitation Contribution :              95.5138 %

          Double Excitation Contribution :               4.4862 %

          ||T1||/||T2||                  :               4.6142

          Norm of Total Amplitude Vector :               1.0000


 +=============================================================================+
 | symmetry|  orbital index  |   Excitation Numbers             |   Amplitude  |
 |  Index  |   a   b   i   j |      NAI      NBJ |     NAIBJ    |              |
 +=============================================================================+
 | 1   2   |   1       1     |       10          |              |    0.964656  |
 +-----------------------------------------------------------------------------+
 | 2 1 1 1 |   3   2   1   3 |        3       16 |          258 |    0.107424  |
 +=============================================================================+


          Norm of Printed Amplitude Vector :             0.9706

          Printed all single excitations greater than 0.488656

          Printed all double excitations greater than 0.105903


 *******************************************************************************

 --------------------------
 Symmetry class Nr.:     2
 Multiplicity      :     3
 --------------------------

 Length of Excitation vectors in this class is:      1241
 No Excitation Energies calculated in this symmetry class


 *******************************************************************************

 --------------------------
 Symmetry class Nr.:     3
 Multiplicity      :     1
 --------------------------

 Length of Excitation vectors in this class is:       629
 No Excitation Energies calculated in this symmetry class


 *******************************************************************************

 --------------------------
 Symmetry class Nr.:     3
 Multiplicity      :     3
 --------------------------

 Length of Excitation vectors in this class is:      1241
 No Excitation Energies calculated in this symmetry class


 *******************************************************************************

 --------------------------
 Symmetry class Nr.:     4
 Multiplicity      :     1
 --------------------------

 Length of Excitation vectors in this class is:       541
 No Excitation Energies calculated in this symmetry class


 *******************************************************************************

 --------------------------
 Symmetry class Nr.:     4
 Multiplicity      :     3
 --------------------------

 Length of Excitation vectors in this class is:      1073
 No Excitation Energies calculated in this symmetry class
   

 *******************************************************************
 *                                                                 *
 *<<<<<<<<<< OUTPUT FROM COUPLED CLUSTER LINEAR RESPONSE >>>>>>>>>>*
 *                                                                 *
 *<<<<<<<<<<     CALCULATION OF EXCITATION ENERGIES      >>>>>>>>>>*
 *                                                                 *
 *******************************************************************



                            +--------------------------+
                            !  CC3 Excitation Energies !
                            +--------------------------+


 --------------------------
 Symmetry class Nr.:     1
 Multiplicity      :     1
 --------------------------

 Length of Excitation vectors in this class is:       756
 No Excitation Energies calculated in this symmetry class

 --------------------------
 Symmetry class Nr.:     1
 Multiplicity      :     3
 --------------------------

 Length of Excitation vectors in this class is:      1485
 No Excitation Energies calculated in this symmetry class


 *******************************************************************************

 --------------------------
 Symmetry class Nr.:     2
 Multiplicity      :     1
 --------------------------

 Length of Excitation vectors in this class is:       629
 Converging for  1 roots.
  >> output from FNDMN3 <<
  NUMBER OF ELEMENTS OBTAINED IN FNDMN3            4
  MIN AND MAX IN SELECTED SUPSPACE   0.81272910444377855        2.0445082144693134     
Try to use right eigenvector as start for a left eigenvector.
 Vector nr.  1 of symmetry  2 found on file - RESTART SUCCESS
 Start vector is a  CC3       RE vector



 >>>>> COUPLED CLUSTER RESPONSE SOLVER <<<<<

    Iter  #Vectors  time (min)   residual
    --------------------------------------

 REDUCED EIGENVALUES real part:

               Column   1
       1       0.39798597
    ==== End of matrix output ====
      1       1         0.00     0.37E+00

 REDUCED EIGENVALUES real part:

               Column   1
       1       0.39798597
    ==== End of matrix output ====
      2       1         0.00     0.53E-01

 REDUCED EIGENVALUES real part:

               Column   1
       1       0.39798597
    ==== End of matrix output ====
      3       1         0.00     0.18E-01

 REDUCED EIGENVALUES real part:

               Column   1
       1       0.39798597
    ==== End of matrix output ====
      4       1         0.00     0.47E-02

 REDUCED EIGENVALUES real part:

               Column   1
       1       0.39798597
    ==== End of matrix output ====
      5       1         0.00     0.18E-02

 REDUCED EIGENVALUES real part:

               Column   1
       1       0.39798597
    ==== End of matrix output ====
      6       1         0.00     0.58E-03

 REDUCED EIGENVALUES real part:

               Column   1
       1       0.39798597
    ==== End of matrix output ====
      7       1         0.00     0.17E-03

 REDUCED EIGENVALUES real part:

               Column   1
       1       0.39798597
    ==== End of matrix output ====
      8       1         0.00     0.59E-04

 REDUCED EIGENVALUES real part:

               Column   1
       1       0.39798597
    ==== End of matrix output ====
      9       1         0.00     0.14E-04

 REDUCED EIGENVALUES real part:

               Column   1
       1       0.39798597
    ==== End of matrix output ====
     10       1         0.00     0.23E-05

 REDUCED EIGENVALUES real part:

               Column   1
       1       0.39798597
    ==== End of matrix output ====
     11       1         0.00     0.31E-06

 REDUCED EIGENVALUES real part:

               Column   1
       1       0.39798597
    ==== End of matrix output ====
     12       1         0.00     0.74E-07

 REDUCED EIGENVALUES real part:

               Column   1
       1       0.39798597
    ==== End of matrix output ====
     13       1         0.00     0.15E-07

 REDUCED EIGENVALUES real part:

               Column   1
       1       0.39798597
    ==== End of matrix output ====
     14       1         0.00     0.33E-08
    --------------------------------------
    converged in 14 iterations
    threshold:    0.50E-08


         Routine          Time (min)
         ---------------------------
         CC_TRDRV            0.01
         CCRED               0.00
         CCNEX               0.00
         ---------------------------
         Total time          0.01


 >>>> Total CPU  time used in CCEQ_SOLV:   0.48 seconds
 >>>> Total wall time used in CCEQ_SOLV:   0.70 seconds


 >>>>>>>>>>>>>>>>>>>>> <<<<<<<<<<<<<<<<<<<<<



  Final eigenvalues :
 =====================
 (convergence threshold:  5.00D-09)

    1   0.3979859669


 SYMMETRY CLASS NR.    2
 MULTIPLICITY          1


 CC3        excitation energies with Omega=   0.397986
 =====================================================
 (conversion factor used: 1 au = 27.2113957 eV)

 Excitation no.       Hartree               eV 
 --------------       -------               --
         1            0.3979859669       10.8297490555


 Total excited state energies for states of symmetry/spin    2    1
 Excitation no.       Energy (Hartree) 
 ------------------------------------- 
@@    2    1           -99.832194427409291


 Analysis of the Coupled Cluster Excitation Vector Number :  1
 -------------------------------------------------------------

          Excitation Energy :                            10.8297 eV


          CC_PRAM:Overall Contribution of the Different Components
          --------------------------------------------------------



          Single Excitation Contribution :              92.1983 %

          Double Excitation Contribution :               7.8017 %

          ||T1||/||T2||                  :               3.4377

          Norm of Total Amplitude Vector :               1.0000


 +=============================================================================+
 | symmetry|  orbital index  |   Excitation Numbers             |   Amplitude  |
 |  Index  |   a   b   i   j |      NAI      NBJ |     NAIBJ    |              |
 +=============================================================================+
 | 1   2   |   1       1     |       10          |              |    0.948287  |
 +-----------------------------------------------------------------------------+
 | 2 1 1 1 |   3   2   1   3 |        3       16 |          258 |    0.098270  |
 | 2 1 1 1 |   1   2   2   3 |        4       16 |          259 |   -0.138840  |
 | 2 1 1 1 |   2   2   2   3 |        5       16 |          260 |    0.068541  |
 | 2 1 1 1 |   1   2   3   3 |        7       16 |          262 |   -0.047973  |
 | 1 1 2 1 |   4   1   1   3 |       13       15 |          251 |    0.052420  |
 | 1 1 2 1 |   5   1   1   3 |       14       15 |          252 |   -0.041998  |
 | 1 1 2 1 |   7   1   1   3 |       16       15 |          254 |   -0.049918  |
 | 1 1 2 1 |   1   2   1   3 |       10       16 |          265 |    0.079975  |
 | 1 1 2 1 |   4   2   1   3 |       13       16 |          268 |    0.109746  |
 | 1 1 2 1 |   4   3   1   3 |       13       17 |          285 |    0.031065  |
 | 2 2 1 2 |   3   1   3   1 |        9       22 |          366 |    0.030512  |
 | 1 2 2 2 |   3   2   1   1 |       12       23 |          386 |    0.034329  |
 | 1 3 2 3 |   6   2   1   1 |       15       26 |          440 |    0.034329  |
 | 2 3 3 1 |   2   1   1   3 |        8        7 |          521 |   -0.037243  |
 +=============================================================================+


          Norm of Printed Amplitude Vector :             0.9830

          Printed all single excitations greater than 0.480100

          Printed all double excitations greater than 0.027931
  >> output from FNDMN3 <<
  NUMBER OF ELEMENTS OBTAINED IN FNDMN3            4
  MIN AND MAX IN SELECTED SUPSPACE   0.81272910444377855        2.0445082144693134     
Try to use right eigenvector as start for a left eigenvector.
 Vector nr.  1 of symmetry  2 found on file - RESTART SUCCESS
 Start vector is a  CC3       RE vector



 >>>>> COUPLED CLUSTER RESPONSE SOLVER <<<<<

    Iter  #Vectors  time (min)   residual
    --------------------------------------

 REDUCED EIGENVALUES real part:

               Column   1
       1       0.39798597
    ==== End of matrix output ====
      1       1         0.00     0.37E+00

 REDUCED EIGENVALUES real part:

               Column   1
       1       0.39798597
    ==== End of matrix output ====
      2       1         0.00     0.53E-01

 REDUCED EIGENVALUES real part:

               Column   1
       1       0.39798597
    ==== End of matrix output ====
      3       1         0.00     0.18E-01

 REDUCED EIGENVALUES real part:

               Column   1
       1       0.39798597
    ==== End of matrix output ====
      4       1         0.00     0.47E-02

 REDUCED EIGENVALUES real part:

               Column   1
       1       0.39798597
    ==== End of matrix output ====
      5       1         0.00     0.18E-02

 REDUCED EIGENVALUES real part:

               Column   1
       1       0.39798597
    ==== End of matrix output ====
      6       1         0.00     0.58E-03

 REDUCED EIGENVALUES real part:

               Column   1
       1       0.39798597
    ==== End of matrix output ====
      7       1         0.00     0.17E-03

 REDUCED EIGENVALUES real part:

               Column   1
       1       0.39798597
    ==== End of matrix output ====
      8       1         0.00     0.59E-04

 REDUCED EIGENVALUES real part:

               Column   1
       1       0.39798597
    ==== End of matrix output ====
      9       1         0.00     0.14E-04

 REDUCED EIGENVALUES real part:

               Column   1
       1       0.39798597
    ==== End of matrix output ====
     10       1         0.00     0.23E-05

 REDUCED EIGENVALUES real part:

               Column   1
       1       0.39798597
    ==== End of matrix output ====
     11       1         0.00     0.31E-06

 REDUCED EIGENVALUES real part:

               Column   1
       1       0.39798597
    ==== End of matrix output ====
     12       1         0.00     0.74E-07

 REDUCED EIGENVALUES real part:

               Column   1
       1       0.39798597
    ==== End of matrix output ====
     13       1         0.00     0.15E-07

 REDUCED EIGENVALUES real part:

               Column   1
       1       0.39798597
    ==== End of matrix output ====
     14       1         0.00     0.33E-08
    --------------------------------------
    converged in 14 iterations
    threshold:    0.50E-08


         Routine          Time (min)
         ---------------------------
         CC_TRDRV            0.01
         CCRED               0.00
         CCNEX               0.00
         ---------------------------
         Total time          0.01


 >>>> Total CPU  time used in CCEQ_SOLV:   0.48 seconds
 >>>> Total wall time used in CCEQ_SOLV:   0.70 seconds


 >>>>>>>>>>>>>>>>>>>>> <<<<<<<<<<<<<<<<<<<<<



  Final eigenvalues :
 =====================
 (convergence threshold:  5.00D-09)

    1   0.3979859669


 CC3        excitation energies with Omega=   0.397986
 =====================================================
 (conversion factor used: 1 au = 27.2113957 eV)

 Excitation no.       Hartree               eV
 --------------       -------               --

         1            0.397986           10.829749

 Converged root to diff. -0.000000  for root   1 in   2 iterations



 Total excited state energies for states of symmetry/spin   2  1
 Excitation no.       Energy (Hartree) 
 ------------------------------------- 
@@@    2    1           -99.832194427409291


 Analysis of the Coupled Cluster Excitation Vector Number :  1
 -------------------------------------------------------------

          Excitation Energy :                            10.8297 eV


          CC_PRAM:Overall Contribution of the Different Components
          --------------------------------------------------------



          Single Excitation Contribution :              92.1983 %

          Double Excitation Contribution :               7.8017 %

          ||T1||/||T2||                  :               3.4377

          Norm of Total Amplitude Vector :               1.0000


 +=============================================================================+
 | symmetry|  orbital index  |   Excitation Numbers             |   Amplitude  |
 |  Index  |   a   b   i   j |      NAI      NBJ |     NAIBJ    |              |
 +=============================================================================+
 | 1   2   |   1       1     |       10          |              |    0.948287  |
 +-----------------------------------------------------------------------------+
 | 2 1 1 1 |   3   2   1   3 |        3       16 |          258 |    0.098270  |
 | 2 1 1 1 |   1   2   2   3 |        4       16 |          259 |   -0.138840  |
 | 2 1 1 1 |   2   2   2   3 |        5       16 |          260 |    0.068541  |
 | 2 1 1 1 |   1   2   3   3 |        7       16 |          262 |   -0.047973  |
 | 1 1 2 1 |   4   1   1   3 |       13       15 |          251 |    0.052420  |
 | 1 1 2 1 |   5   1   1   3 |       14       15 |          252 |   -0.041998  |
 | 1 1 2 1 |   7   1   1   3 |       16       15 |          254 |   -0.049918  |
 | 1 1 2 1 |   1   2   1   3 |       10       16 |          265 |    0.079975  |
 | 1 1 2 1 |   4   2   1   3 |       13       16 |          268 |    0.109746  |
 | 1 1 2 1 |   4   3   1   3 |       13       17 |          285 |    0.031065  |
 | 2 2 1 2 |   3   1   3   1 |        9       22 |          366 |    0.030512  |
 | 1 2 2 2 |   3   2   1   1 |       12       23 |          386 |    0.034329  |
 | 1 3 2 3 |   6   2   1   1 |       15       26 |          440 |    0.034329  |
 | 2 3 3 1 |   2   1   1   3 |        8        7 |          521 |   -0.037243  |
 +=============================================================================+


          Norm of Printed Amplitude Vector :             0.9830

          Printed all single excitations greater than 0.480100

          Printed all double excitations greater than 0.027931



+======================================================================+
| contributions of excitation levels to right eigenvectors as computed |
| from the (RE|RE) self overlap                                        |
+----------------------------------------------------------------------+
| sym | multi | state |    E / eV  | % singles | % doubles | % triples |
+======================================================================+
|    2|   1   |   1   |   10.82975 |  95.5138  |   4.4862  |   0.0000  |
+======================================================================+





+======================================================================+
| contributions of excitation levels to excited states as computed     |
| from the (LE|RE) overlap                                             |
+----------------------------------------------------------------------+
| sym | multi | state |    E / eV  | % singles | % doubles | % triples |
+======================================================================+
|    2|   1   |   1   |   10.82975 |  94.8852  |   5.2538  |  -0.1390  |
+======================================================================+




 *******************************************************************************

 --------------------------
 Symmetry class Nr.:     2
 Multiplicity      :     3
 --------------------------

 Length of Excitation vectors in this class is:      1241
 No Excitation Energies calculated in this symmetry class


 *******************************************************************************

 --------------------------
 Symmetry class Nr.:     3
 Multiplicity      :     1
 --------------------------

 Length of Excitation vectors in this class is:       629
 No Excitation Energies calculated in this symmetry class


 *******************************************************************************

 --------------------------
 Symmetry class Nr.:     3
 Multiplicity      :     3
 --------------------------

 Length of Excitation vectors in this class is:      1241
 No Excitation Energies calculated in this symmetry class


 *******************************************************************************

 --------------------------
 Symmetry class Nr.:     4
 Multiplicity      :     1
 --------------------------

 Length of Excitation vectors in this class is:       541
 No Excitation Energies calculated in this symmetry class


 *******************************************************************************

 --------------------------
 Symmetry class Nr.:     4
 Multiplicity      :     3
 --------------------------

 Length of Excitation vectors in this class is:      1073
 No Excitation Energies calculated in this symmetry class
     

   *******************************************************************
   *                                                                 *
   *<<<<<<<<   OUTPUT FROM PROPERTY AND SYMMETRY ANALYSIS   >>>>>>>>>*
   *                                                                 *
   *******************************************************************


     Prepare CC3 quadratic response calculation.


     Prepare CC3 cubic response calculation.



                         +-------------------------------+
                         ! REQUESTED PROPERTY OPERATORS: !
                         +-------------------------------+

             Index   Oper. Label  Symmetry  Transp.  PDBS  Atom
             --------------------------------------------------
                1     HAM0            1        1      T      0
                2     XDIPLEN         2        1      F      0
             --------------------------------------------------




                         +-------------------------------+
                         ! REQUESTED EXPECTATION VALUES: !
                         +-------------------------------+

                       Index   Oper. Label  Symmetry
                       -----------------------------
                       -----------------------------




                       +------------------------------------+
                       ! REQUESTED EFFECTIVE FOCK MATRICES: !
                       +------------------------------------+

                       Index   Oper. Label  Symmetry
                       -----------------------------
                       -----------------------------




                        +----------------------------------+
                        ! REQUESTED FIRST ORDER M-VECTORS: !
                        +----------------------------------+

               Index   State Symmetry  Frequency
               --------------------------------------------------
                  1             1    2     3.979860D-01
               --------------------------------------------------


      

    *******************************************************************
    *          SOLVING COUPLED CLUSTER RESPONSE EQUATIONS             *
    *******************************************************************



 
 +======================================================================+
 !                     RHS & ETA VECTORS TO COMPUTE:                    !
 +======================================================================+
 | TYPE | # VEC. |  NEEDED FOR:                                         |
 +----------------------------------------------------------------------+
 +======================================================================+



 +======================================================================+
 !                       LINEAR EQUATIONS TO SOLVE:                     !
 +======================================================================+
 | TYPE | # VEC. |  EQUATION:                                           |
 +----------------------------------------------------------------------+
 |  M1  |    1   |  first-order ground - excited state multipliers      |
 +======================================================================+



 +======================================================================+
 !                F MATRIX TRANSFORMATIONS TO COMPUTE:                  !
 +======================================================================+
 | TYPE | # VEC. |  TRANSFORMED:                                        |
 +----------------------------------------------------------------------+
 |  FR  |    1   |  right eigenvectors (RE)                             |
 +======================================================================+



 RPA: call cceq_str
     M1  start vector nr.  1 of symmetry  2 generated from gradient
 RPA: exit cceq_str



 >>>>> COUPLED CLUSTER RESPONSE SOLVER <<<<<

    Iter  #Vectors  time (min)   residual
    --------------------------------------
      1       1         0.00     0.65E+00
      2       1         0.00     0.79E-01
      3       1         0.00     0.16E-01
      4       1         0.00     0.28E-02
      5       1         0.00     0.45E-03
      6       1         0.00     0.12E-03
      7       1         0.00     0.18E-04
      8       1         0.00     0.23E-05
      9       1         0.00     0.36E-06
     10       1         0.00     0.40E-07
     11       1         0.00     0.63E-08
     12       1         0.00     0.69E-09
    --------------------------------------
    converged in 12 iterations
    threshold:    0.50E-08


         Routine          Time (min)
         ---------------------------
         CC_TRDRV            0.01
         CCRED               0.00
         CCNEX               0.00
         ---------------------------
         Total time          0.01


 >>>> Total CPU  time used in CCEQ_SOLV:   0.41 seconds
 >>>> Total wall time used in CCEQ_SOLV:   0.60 seconds


 >>>>>>>>>>>>>>>>>>>>> <<<<<<<<<<<<<<<<<<<<<


 Solution of CC response equations completed.


 ******************************************************************
 *                                                                *
 *<<<<<<    OUTPUT FROM COUPLED CLUSTER LINEAR RESPONSE    >>>>>>>*
 *                                                                *
 *<<<<<<  CALCULATION OF ONE-PHOTON AABSORPTION STRENGHTS  >>>>>>>*
 *                                                                *
 ******************************************************************



   For the requested  1 transition moments
         -   0 F matrix transformations with R1 vectors
         -   1 ETA and XKSI vector calculations 
         -   1 extra XKSI vector calculations 
   will be performed.



>>> Time used for    1 O1/X1 vector calculation:        0.09 seconds.

>>> Time used for    1 O1/X1 vector calculation:        0.04 seconds.

>>> Total time for   2 quadratic response func.:        0.13 seconds.


           +------------------------------------------------------------+
           !      FINAL CC3 RESULTS FOR ONE-PHOTON ABSORPTION STRENGTHS !
           +------------------------------------------------------------+

 CCOPAPRT: RAU2CGS =    471.44358235695097     


     Transition from ground state to:
     number, multiplicity, symmetry :    1  ^1B1 
     frequency :   0.3979859669 a.u.    10.82975 e.V.     87347.8 cm^-1

     +-----------+-----------------+-----------------+---------------------+
     | operator  |   left moment   |  right moment   | transition strength |
     +-----------+-----------------+-----------------+---------------------+
     | XDIPLEN   |      0.19931936 |      0.39224922 |       0.07818286    |
     +-----------+-----------------+-----------------+---------------------+

 requested model not yet implemented
  

 *******************************************************************************
 *******************************************************************************
 *                                                                             *
 *                                                                             *
 *                   SUMMARY OF COUPLED CLUSTER CALCULATION                    *
 *                                                                             *
 *                                                                             *
 *******************************************************************************
 *******************************************************************************

                                                                                
                                                                                
            Total SCF   energy:                  -100.0194112620                
            Total MP2   energy:                  -100.2231931820                
            Total CC3   energy:                  -100.2301803943                
                                                                                
                                                                                
 +=============================================================================+
 |  sym. | Exci.  |        CC3        Excitation energies            | ||T1||  |
 |(spin, |        +------------------------------------------------------------+
 | spat) |        |     Hartree    |       eV.      |     cm-1       |    %    |
 +=============================================================================+
 | ^1B1  |    1   |     0.3979860  |      10.82975  |     87347.823  |  95.51  |
 +=============================================================================+
                                                                                
                                                                                
     Total energies in Hartree:                                                 
             1 ^1B1       -99.8321944274                                        

  1 a.u. =        27.21138 eV.  
  1 a.u. =    219474.62934 cm-1.
  

 *******************************************************************************
 *******************************************************************************
 *                                                                             *
 *                                                                             *
 *                      END OF COUPLED CLUSTER CALCULATION                     *
 *                                                                             *
 *                                                                             *
 *******************************************************************************
 *******************************************************************************


 >>>> CPU and wall time for CC :       4.414       6.116

 
     Date and time (Linux)  : Sun Sep  8 20:43:01 2013
     Host name              : lpqlx131.ups-tlse.fr                    


                      .-------------------------------------.
                      | End of Coupled Cluster Section (CC) |
                      `-------------------------------------'

 >>>> Total CPU  time used in DALTON:   4.44 seconds
 >>>> Total wall time used in DALTON:   6.14 seconds

 
     Date and time (Linux)  : Sun Sep  8 20:43:01 2013
     Host name              : lpqlx131.ups-tlse.fr                    
