

     ************************************************************************
     *************** Dalton - An Electronic Structure Program ***************
     ************************************************************************

    This is output from DALTON (Release Dalton2013 patch 0)
   ----------------------------------------------------------------------------
    NOTE:
     
    Dalton is an experimental code for the evaluation of molecular
    properties using (MC)SCF, DFT, CI, and CC wave functions.
    The authors accept no responsibility for the performance of
    the code or for the correctness of the results.
     
    The code (in whole or part) is provided under a licence and
    is not to be reproduced for further distribution without
    the written permission of the authors or their representatives.
     
    See the home page "http://daltonprogram.org" for further information.
     
    If results obtained with this code are published,
    the appropriate citations would be both of:
     
       K. Aidas, C. Angeli, K. L. Bak, V. Bakken, R. Bast,
       L. Boman, O. Christiansen, R. Cimiraglia, S. Coriani,
       P. Dahle, E. K. Dalskov, U. Ekstroem, T. Enevoldsen,
       J. J. Eriksen, P. Ettenhuber, B. Fernandez, L. Ferrighi,
       H. Fliegl, L. Frediani, K. Hald, A. Halkier, C. Haettig,
       H. Heiberg, T. Helgaker, A. C. Hennum, H. Hettema,
       E. Hjertenaes, S. Hoest, I.-M. Hoeyvik, M. F. Iozzi,
       B. Jansik, H. J. Aa. Jensen, D. Jonsson, P. Joergensen,
       J. Kauczor, S. Kirpekar, T. Kjaergaard, W. Klopper,
       S. Knecht, R. Kobayashi, H. Koch, J. Kongsted, A. Krapp,
       K. Kristensen, A. Ligabue, O. B. Lutnaes, J. I. Melo,
       K. V. Mikkelsen, R. H. Myhre, C. Neiss, C. B. Nielsen,
       P. Norman, J. Olsen, J. M. H. Olsen, A. Osted,
       M. J. Packer, F. Pawlowski, T. B. Pedersen, P. F. Provasi,
       S. Reine, Z. Rinkevicius, T. A. Ruden, K. Ruud, V. Rybkin,
       P. Salek, C. C. M. Samson, A. Sanchez de Meras, T. Saue,
       S. P. A. Sauer, B. Schimmelpfennig, K. Sneskov,
       A. H. Steindal, K. O. Sylvester-Hvid, P. R. Taylor,
       A. M. Teale, E. I. Tellgren, D. P. Tew, A. J. Thorvaldsen,
       L. Thoegersen, O. Vahtras, M. A. Watson, D. J. D. Wilson,
       M. Ziolkowski and H. Agren.
       The Dalton quantum chemistry program system.
       WIREs Comput. Mol. Sci. 2013. doi: 10.1002/wcms.1172
    
    and
    
       Dalton, a Molecular Electronic Structure Program,
       Release DALTON2013.0 (2013), see http://daltonprogram.org
   ----------------------------------------------------------------------------

    Authors in alphabetical order (major contribution(s) in parenthesis):

  Kestutis Aidas,           Vilnius University,           Lithuania   (QM/MM)
  Celestino Angeli,         University of Ferrara,        Italy       (NEVPT2)
  Keld L. Bak,              UNI-C,                        Denmark     (AOSOPPA, non-adiabatic coupling, magnetic properties)
  Vebjoern Bakken,          University of Oslo,           Norway      (DALTON; geometry optimizer, symmetry detection)
  Radovan Bast,             KTH Stockholm                 Sweden      (DALTON installation and execution frameworks)
  Linus Boman,              NTNU,                         Norway      (Cholesky decomposition and subsystems)
  Ove Christiansen,         Aarhus University,            Denmark     (CC module)
  Renzo Cimiraglia,         University of Ferrara,        Italy       (NEVPT2)
  Sonia Coriani,            University of Trieste,        Italy       (CC module, MCD in RESPONS)
  Paal Dahle,               University of Oslo,           Norway      (Parallelization)
  Erik K. Dalskov,          UNI-C,                        Denmark     (SOPPA)
  Thomas Enevoldsen,        Univ. of Southern Denmark,    Denmark     (SOPPA)
  Janus J. Eriksen,         Aarhus University,            Denmark     (PE-MP2/SOPPA, TDA)
  Berta Fernandez,          U. of Santiago de Compostela, Spain       (doublet spin, ESR in RESPONS)
  Lara Ferrighi,            Aarhus University,            Denmark     (PCM Cubic response)
  Heike Fliegl,             University of Oslo,           Norway      (CCSD(R12))
  Luca Frediani,            UiT The Arctic U. of Norway,  Norway      (PCM)
  Bin Gao,                  UiT The Arctic U. of Norway,  Norway      (Gen1Int library)
  Christof Haettig,         Ruhr-University Bochum,       Germany     (CC module)
  Kasper Hald,              Aarhus University,            Denmark     (CC module)
  Asger Halkier,            Aarhus University,            Denmark     (CC module)
  Hanne Heiberg,            University of Oslo,           Norway      (geometry analysis, selected one-electron integrals)
  Trygve Helgaker,          University of Oslo,           Norway      (DALTON; ABACUS, ERI, DFT modules, London, and much more)
  Alf Christian Hennum,     University of Oslo,           Norway      (Parity violation)
  Hinne Hettema,            University of Auckland,       New Zealand (quadratic response in RESPONS; SIRIUS supersymmetry)
  Eirik Hjertenaes,         NTNU,                         Norway      (Cholesky decomposition)
  Maria Francesca Iozzi,    University of Oslo,           Norway      (RPA)
  Brano Jansik              Technical Univ. of Ostrava    Czech Rep.  (DFT cubic response)
  Hans Joergen Aa. Jensen,  Univ. of Southern Denmark,    Denmark     (DALTON; SIRIUS, RESPONS, ABACUS modules, London, and much more)
  Dan Jonsson,              UiT The Arctic U. of Norway,  Norway      (cubic response in RESPONS module)
  Poul Joergensen,          Aarhus University,            Denmark     (RESPONS, ABACUS, and CC modules)
  Joanna Kauczor,           Linkoeping University,        Sweden      (Complex polarization propagator (CPP) module)
  Sheela Kirpekar,          Univ. of Southern Denmark,    Denmark     (Mass-velocity & Darwin integrals)
  Wim Klopper,              KIT Karlsruhe,                Germany     (R12 code in CC, SIRIUS, and ABACUS modules)
  Stefan Knecht,            ETH Zurich,                   Switzerland (Parallel CI and MCSCF)
  Rika Kobayashi,           Australian National Univ.,    Australia   (DIIS in CC, London in MCSCF)
  Henrik Koch,              NTNU,                         Norway      (CC module, Cholesky decomposition)
  Jacob Kongsted,           Univ. of Southern Denmark,    Denmark     (Polarizable embedding, QM/MM)
  Andrea Ligabue,           University of Modena,         Italy       (CTOCD, AOSOPPA)
  Ola B. Lutnaes,           University of Oslo,           Norway      (DFT Hessian)
  Juan I. Melo,             University of Buenos Aires,   Argentina   (LRESC, Relativistic Effects on NMR Shieldings)
  Kurt V. Mikkelsen,        University of Copenhagen,     Denmark     (MC-SCRF and QM/MM)
  Rolf H. Myhre,            NTNU,                         Norway      (Cholesky, subsystems and ECC2)
  Christian Neiss,          Univ. Erlangen-Nuernberg,     Germany     (CCSD(R12))
  Christian B. Nielsen,     University of Copenhagen,     Denmark     (QM/MM)
  Patrick Norman,           Linkoeping University,        Sweden      (Cubic response and complex response in RESPONS)
  Jeppe Olsen,              Aarhus University,            Denmark     (SIRIUS CI/density modules)
  Jogvan Magnus H. Olsen,   Univ. of Southern Denmark,    Denmark     (Polarizable embedding, PE library, QM/MM)
  Anders Osted,             Copenhagen University,        Denmark     (QM/MM)
  Martin J. Packer,         University of Sheffield,      UK          (SOPPA)
  Filip Pawlowski,          Kazimierz Wielki University   Poland      (CC3)
  Thomas B. Pedersen,       University of Oslo,           Norway      (Cholesky decomposition)
  Patricio F. Provasi,      University of Northeastern,   Argentina   (Analysis of coupling constants in localized orbitals)
  Zilvinas Rinkevicius,     KTH Stockholm,                Sweden      (open-shell DFT, ESR)
  Elias Rudberg,            KTH Stockholm,                Sweden      (DFT grid and basis info)
  Torgeir A. Ruden,         University of Oslo,           Norway      (Numerical derivatives in ABACUS)
  Kenneth Ruud,             UiT The Arctic U. of Norway,  Norway      (DALTON; ABACUS magnetic properties and  much more)
  Pawel Salek,              KTH Stockholm,                Sweden      (DALTON; DFT code)
  Claire C. M. Samson       University of Karlsruhe       Germany     (Boys localization, r12 integrals in ERI)
  Alfredo Sanchez de Meras, University of Valencia,       Spain       (CC module, Cholesky decomposition)
  Trond Saue,               Paul Sabatier University,     France      (direct Fock matrix construction)
  Stephan P. A. Sauer,      University of Copenhagen,     Denmark     (SOPPA(CCSD), SOPPA prop., AOSOPPA, vibrational g-factors)
  Bernd Schimmelpfennig,    Forschungszentrum Karlsruhe,  Germany     (AMFI module)
  Kristian Sneskov,         Aarhus University,            Denmark     (QM/MM, PE-CC)
  Arnfinn H. Steindal,      UiT The Arctic U. of Norway,  Norway      (parallel QM/MM)
  K. O. Sylvester-Hvid,     University of Copenhagen,     Denmark     (MC-SCRF)
  Peter R. Taylor,          VLSCI/Univ. of Melbourne,     Australia   (Symmetry handling ABACUS, integral transformation)
  Andrew M. Teale,          University of Nottingham,     England     (DFT-AC, DFT-D)
  David P. Tew,             University of Bristol,        England     (CCSD(R12))
  Olav Vahtras,             KTH Stockholm,                Sweden      (triplet response, spin-orbit, ESR, TDDFT, open-shell DFT)
  David J. Wilson,          La Trobe University,          Australia   (DFT Hessian and DFT magnetizabilities)
  Hans Agren,               KTH Stockholm,                Sweden      (SIRIUS module, RESPONS, MC-SCRF solvation model)
 --------------------------------------------------------------------------------

     Date and time (Linux)  : Sun Sep  8 20:42:49 2013
     Host name              : lpqlx131.ups-tlse.fr                    

 * Work memory size             :    64000000 =  488.28 megabytes.

 * Directories for basis set searches:
   1) /home/bast/DALTON-2013.0-Source/build/test_cc3_HF_631G_asym_pol
   2) /home/bast/DALTON-2013.0-Source/build/basis


Compilation information
-----------------------

 Who compiled             | bast
 Host                     | lpqlx131.ups-tlse.fr
 System                   | Linux-3.8.5-201.fc18.x86_64
 CMake generator          | Unix Makefiles
 Processor                | x86_64
 64-bit integers          | OFF
 MPI                      | OFF
 Fortran compiler         | /usr/bin/gfortran
 Fortran compiler version | GNU Fortran (GCC) 4.7.2 20121109 (Red Hat 4.7.2-8)
 C compiler               | /usr/bin/gcc
 C compiler version       | gcc (GCC) 4.7.2 20121109 (Red Hat 4.7.2-8)
 C++ compiler             | /usr/bin/g++
 C++ compiler version     | g++ (GCC) 4.7.2 20121109 (Red Hat 4.7.2-8)
 Static linking           | OFF
 Last Git revision        | f34203295a86316e27f9e7b44f9b6769c4a046c0
 Configuration time       | 2013-09-08 20:31:27.952056


   Content of the .dal input file
 ----------------------------------

**DALTON                                          
.RUN WAVE FUNCTIONS                               
**INTEGRAL                                        
.DIPLEN                                           
.THETA                                            
**WAVE FUNCTION                                   
.CC                                               
*SCF INPUT                                        
.THRESH                                           
 1.0D-12                                          
.NODIIS                                           
*ORBITAL INPUT                                    
.NOSUPSYM                                         
.MOSTART                                          
.H1DIAG                                           
*CC INP                                           
.CC3                                              
.PRINT                                            
 1                                                
.THRENR                                           
1.0D-12                                           
.THRLEQ                                           
1.0D-12                                           
.MAX IT                                           
 100                                              
*CCLR                                             
.ASYMSD                                           
.OPERATOR                                         
YDIPLEN YDIPLEN                                   
.FREQUE                                           
 2                                                
0.00 0.50                                         
**END OF DALTON                                   


   Content of the .mol file
 ----------------------------

BASIS                                                                          
6-31G                                                                          
CC3 polarizability                                                             
HF molecule                                                                    
    2    2  X  Y  Z   1.00D-15                                                 
        9.0   1    2    1    1                                                 
F     0.0000000000000000   0.000000000   0.08729478                            
        1.0   1    1    1                                                      
H     0.0000000000000000   0.000000000  -1.64558444                            


       *******************************************************************
       *********** Output from DALTON general input processing ***********
       *******************************************************************

 --------------------------------------------------------------------------------
   Overall default print level:    0
   Print level for DALTON.STAT:    1

    HERMIT 1- and 2-electron integral sections will be executed
    "Old" integral transformation used (limited to max 255 basis functions)
    Wave function sections will be executed (SIRIUS module)
 --------------------------------------------------------------------------------


   ****************************************************************************
   *************** Output of molecule and basis set information ***************
   ****************************************************************************


    The two title cards from your ".mol" input:
    ------------------------------------------------------------------------
 1: CC3 polarizability                                                      
 2: HF molecule                                                             
    ------------------------------------------------------------------------

  Atomic type no.    1
  --------------------
  Nuclear charge:   9.00000
  Number of symmetry independent centers:    1
  Number of basis sets to read;    1
  Basis set file used for this atomic type with Z =   9 :
     "/home/bast/DALTON-2013.0-Source/build/basis/6-31G"

  Info about the basis set file: your basis has no documentation.
  Basis set: 6-31G                                                                           

  Atomic type no.    2
  --------------------
  Nuclear charge:   1.00000
  Number of symmetry independent centers:    1
  Number of basis sets to read;    1
  Basis set file used for this atomic type with Z =   1 :
     "/home/bast/DALTON-2013.0-Source/build/basis/6-31G"

  Info about the basis set file: your basis has no documentation.
  Basis set: 6-31G                                                                           


                         SYMGRP: Point group information
                         -------------------------------

Point group: C2v

   * The point group was generated by:

      Reflection in the yz-plane
      Reflection in the xz-plane

   * Group multiplication table

        |  E   C2z  Oxz  Oyz
   -----+--------------------
     E  |  E   C2z  Oxz  Oyz
    C2z | C2z   E   Oyz  Oxz
    Oxz | Oxz  Oyz   E   C2z
    Oyz | Oyz  Oxz  C2z   E 

   * Character table

        |  E   C2z  Oxz  Oyz
   -----+--------------------
    A1  |   1    1    1    1
    B1  |   1   -1    1   -1
    B2  |   1   -1   -1    1
    A2  |   1    1   -1   -1

   * Direct product table

        | A1   B1   B2   A2 
   -----+--------------------
    A1  | A1   B1   B2   A2 
    B1  | B1   A1   A2   B2 
    B2  | B2   A2   A1   B1 
    A2  | A2   B2   B1   A1 


                                 Isotopic Masses
                                 ---------------

                           F          18.998403
                           H           1.007825

                       Total mass:    20.006228 amu
                       Natural abundance:  99.985 %

 Center-of-mass coordinates (a.u.):    0.000000    0.000000    0.000000


  Atoms and basis sets
  --------------------

  Number of atom types :    2
  Total number of atoms:    2

  Basis set used is "6-31G" from the basis set library.

  label    atoms   charge   prim   cont     basis
  ----------------------------------------------------------------------
  F           1    9.0000    22     9      [10s4p|3s2p]                                       
  H           1    1.0000     4     2      [4s|2s]                                            
  ----------------------------------------------------------------------
  total:      2   10.0000    26    11
  ----------------------------------------------------------------------

  Threshold for neglecting AO integrals:  1.00D-15


  Cartesian Coordinates (a.u.)
  ----------------------------

  Total number of coordinates:    6
  F       :     1  x   0.0000000000    2  y   0.0000000000    3  z   0.0872947800
  H       :     4  x   0.0000000000    5  y   0.0000000000    6  z  -1.6455844400


  Symmetry Coordinates
  --------------------

  Number of coordinates in each symmetry:     2    2    2    0

  Symmetry  A1  ( 1)

    1   F     z    3
    2   H     z    6

  Symmetry  B1  ( 2)

    3   F     x    1
    4   H     x    4

  Symmetry  B2  ( 3)

    5   F     y    2
    6   H     y    5


   Interatomic separations (in Angstrom):
   --------------------------------------

            F           H     
            ------      ------
 F     :    0.000000
 H     :    0.917000    0.000000


  Max    interatomic separation is    0.9170 Angstrom (    1.7329 Bohr)
  between atoms    2 and    1, "H     " and "F     ".

  Min HX interatomic separation is    0.9170 Angstrom (    1.7329 Bohr)


  Bond distances (Angstrom):
  --------------------------

                  atom 1     atom 2       distance
                  ------     ------       --------
  bond distance:  H          F            0.917000




 Principal moments of inertia (u*A**2) and principal axes
 --------------------------------------------------------

   IA       0.000000          0.000000    0.000000    1.000000
   IB       0.804778          0.000000    1.000000    0.000000
   IC       0.804778          1.000000    0.000000    0.000000


 Rotational constants
 --------------------

 The molecule is linear.

               B =       627973.52 MHz     (   20.946942 cm-1)


@  Nuclear repulsion energy :    5.193668373495 Hartree


  Symmetry Orbitals
  -----------------

  Number of orbitals in each symmetry:           7    2    2    0


  Symmetry  A1 ( 1)

    1     F        1s         1
    2     F        1s         2
    3     F        1s         3
    4     F        2pz        6
    5     F        2pz        9
    6     H        1s        10
    7     H        1s        11


  Symmetry  B1 ( 2)

    8     F        2px        4
    9     F        2px        7


  Symmetry  B2 ( 3)

   10     F        2py        5
   11     F        2py        8


  No orbitals in symmetry  A2 ( 4)

  Symmetries of electric field:  B1 (2)  B2 (3)  A1 (1)

  Symmetries of magnetic field:  B2 (3)  B1 (2)  A2 (4)


                     .---------------------------------------.
                     | Starting in Integral Section (HERMIT) |
                     `---------------------------------------'



    *************************************************************************
    ****************** Output from HERMIT input processing ******************
    *************************************************************************


 Default print level:        1

 * Nuclear model: Point charge

 Calculation of one- and two-electron Hamiltonian integrals.

 The following one-electron property integrals are calculated as requested:
          - overlap integrals
          - dipole length integrals
          - traceless quadrupole moment integrals

 Center of mass  (bohr):      0.000000000000      0.000000000000      0.000000013595
 Operator center (bohr):      0.000000000000      0.000000000000      0.000000000000
 Gauge origin    (bohr):      0.000000000000      0.000000000000      0.000000000000
 Dipole origin   (bohr):      0.000000000000      0.000000000000      0.000000000000


     ************************************************************************
     ************************** Output from HERINT **************************
     ************************************************************************


 Threshold for neglecting two-electron integrals:  1.00D-15
 Number of two-electron integrals written:         677 ( 30.6% )
 Megabytes written:                              0.014

 >>>> Total CPU  time used in HERMIT:   0.00 seconds
 >>>> Total wall time used in HERMIT:   0.00 seconds


                        .----------------------------------.
                        | End of Integral Section (HERMIT) |
                        `----------------------------------'



                   .--------------------------------------------.
                   | Starting in Wave Function Section (SIRIUS) |
                   `--------------------------------------------'


 **********************************************************************
 *SIRIUS* a direct, restricted step, second order MCSCF program       *
 **********************************************************************

 
     Date and time (Linux)  : Sun Sep  8 20:42:49 2013
     Host name              : lpqlx131.ups-tlse.fr                    

 Title lines from ".mol" input file:
     CC3 polarizability                                                      
     HF molecule                                                             

 Print level on unit LUPRI =   2 is   0
 Print level on unit LUW4  =   2 is   5

@    (Integral direct) CC calculation.

@    This is a combination run starting with
@              a restricted, closed shell Hartree-Fock calculation


 Initial molecular orbitals are obtained according to
 ".MOSTART H1DIAG" input option

     Wave function specification
     ============================

     For the specification of the Coupled Cluster: see later.

@    For the wave function of type :      >>> CC <<<
@    Number of closed shell electrons          10
@    Number of electrons in active shells       0
@    Total charge of the molecule               0

@    Spin multiplicity and 2 M_S                1         0
     Total number of symmetries                 4
@    Reference state symmetry                   1

     Orbital specifications
     ======================
     Abelian symmetry species          All |    1    2    3    4
                                       --- |  ---  ---  ---  ---
     Total number of orbitals           11 |    7    2    2    0
     Number of basis functions          11 |    7    2    2    0

      ** Automatic occupation of RHF orbitals **

      -- Initial occupation of symmetries is determined from diagonal of H1 matrix.           
      -- Initial occupation of symmetries is :
@    Occupied SCF orbitals               5 |    3    1    1    0

     Maximum number of Fock   iterations      0
     Maximum number of DIIS   iterations      0
     Maximum number of QC-SCF iterations     60
     Threshold for SCF convergence     1.00D-12


 Changes of defaults for CC:
 ---------------------------


 -Iterative triple excitations included 
 -Linear response properties calculated
  


        SIRIUS QC-HF optimization (SIROPT)
 ================================================


   <<< OUTPUT FROM SIRCNO >>>    Keyword = ONLYFD

     (Precalculated two-electron integrals are transformed to P-supermatrix elements.
      Threshold for discarding integrals :  1.00D-15 )


 <<< MACRO ITERATION  1 >>>
 --------------------------

 Total MCSCF energy       :           -93.678666097950668  (MACRO    1)

 - Nuclear repulsion      :             5.193668373494606
 - Inactive energy        :           -98.872334471445271
 - Active energy          :             0.000000000000000

 Norm of total gradient   :             8.327545371430
 -    of CI gradient      :             0.000000000000
 -    of orbital gradient :             8.327545371430
      Virial theorem: -V/T =      1.743130
@      MULPOP F      -0.95; H       0.95; 

 (SIRNEO) iteration (  1,  3)
 Micro iteration termination criterion met, EVAL(ISTATE+1) = -6.83D+00

   <<< OUTPUT FROM SIRCNO >>>    Keyword = FD+NO 



 <<< MACRO ITERATION  2 >>>
 --------------------------

 Total MCSCF energy       :           -98.655321581277249  (MACRO    2)

 - Nuclear repulsion      :             5.193668373494606
 - Inactive energy        :          -103.848989954771852
 - Active energy          :             0.000000000000000

 Norm of total gradient   :             5.403417048074
 -    of CI gradient      :             0.000000000000
 -    of orbital gradient :             5.403417048074
      Virial theorem: -V/T =      1.889788
@      MULPOP F      -0.88; H       0.88; 

 (SIRNEO) iteration (  2,  3)
 Micro iteration termination criterion met, EVAL(ISTATE+1) = -8.90D-01

   <<< OUTPUT FROM SIRCNO >>>    Keyword = FD+NO 



 <<< MACRO ITERATION  3 >>>
 --------------------------

 Total MCSCF energy       :           -99.877932110727230  (MACRO    3)

 - Nuclear repulsion      :             5.193668373494606
 - Inactive energy        :          -105.071600484221833
 - Active energy          :             0.000000000000000

 Norm of total gradient   :             1.094012577486
 -    of CI gradient      :             0.000000000000
 -    of orbital gradient :             1.094012577486
      Virial theorem: -V/T =      2.010657
@      MULPOP F      -0.05; H       0.05; 

 Residual norm when dim(red L) =   4
 NEO root     CSF        orbital          total
    1     0.00000000     0.04681267     0.04681267 converged

 (NEONEX) NEO vector is converged.

   <<< OUTPUT FROM SIRCNO >>>    Keyword = FD+NO 



 <<< MACRO ITERATION  4 >>>
 --------------------------

 Total MCSCF energy       :           -99.982833972759494  (MACRO    4)

 - Nuclear repulsion      :             5.193668373494606
 - Inactive energy        :          -105.176502346254097
 - Active energy          :             0.000000000000000

 Norm of total gradient   :             0.105320694298
 -    of CI gradient      :             0.000000000000
 -    of orbital gradient :             0.105320694298
      Virial theorem: -V/T =      2.000740
@      MULPOP F      -0.48; H       0.48; 

 Residual norm when dim(red L) =   3
 NEO root     CSF        orbital          total
    1     0.00000000     0.00421722     0.00421722 converged

 (NEONEX) NEO vector is converged.

   <<< OUTPUT FROM SIRCNO >>>    Keyword = FD+NO 



 <<< MACRO ITERATION  5 >>>
 --------------------------

 Total MCSCF energy       :           -99.983407832178813  (MACRO    5)

 - Nuclear repulsion      :             5.193668373494606
 - Inactive energy        :          -105.177076205673416
 - Active energy          :             0.000000000000000

 Norm of total gradient   :             0.004129387644
 -    of CI gradient      :             0.000000000000
 -    of orbital gradient :             0.004129387644
      Virial theorem: -V/T =      1.999208
@      MULPOP F      -0.48; H       0.48; 

 Residual norm when dim(red L) =   5
 NEO root     CSF        orbital          total
    1     0.00000000     0.00000496     0.00000496 converged

 (NEONEX) NEO vector is converged.

   <<< OUTPUT FROM SIRCNO >>>    Keyword = FD+NO 



 <<< MACRO ITERATION  6 >>>
 --------------------------

 Total MCSCF energy       :           -99.983408935326651  (MACRO    6)

 - Nuclear repulsion      :             5.193668373494606
 - Inactive energy        :          -105.177077308821254
 - Active energy          :             0.000000000000000

 Norm of total gradient   :             0.000005059686
 -    of CI gradient      :             0.000000000000
 -    of orbital gradient :             0.000005059686
      Virial theorem: -V/T =      1.999208
@      MULPOP F      -0.48; H       0.48; 

 Residual norm when dim(red L) =   7
 NEO root     CSF        orbital          total
    1     0.00000000     0.00000000     0.00000000 converged

 (NEONEX) NEO vector is converged.

   <<< OUTPUT FROM SIRCNO >>>    Keyword = FD+NO 



 <<< MACRO ITERATION  7 >>>
 --------------------------

 Total MCSCF energy       :           -99.983408935327233  (MACRO    7)

 - Nuclear repulsion      :             5.193668373494606
 - Inactive energy        :          -105.177077308821836
 - Active energy          :             0.000000000000000

 Norm of total gradient   :             0.000000000009
 -    of CI gradient      :             0.000000000000
 -    of orbital gradient :             0.000000000009
      Virial theorem: -V/T =      1.999208
@      MULPOP F      -0.48; H       0.48; 

 (SIRSTP) Close to convergence, ratio set to one.
 Energy difference; actual and predicted:   -5.82645D-13   -5.93200D-13

 (SIRSTP) Close to convergence, ratio set to one.
 Energy difference; actual and predicted:    9.82207D-01
 Close to convergence, ratio set to one.

 Residual norm when dim(red L) =   3
 NEO root     CSF        orbital          total
    1     0.00000000     0.00000000     0.00000000 converged

 (NEONEX) NEO vector is converged.

   <<< OUTPUT FROM SIRCNO >>>    Keyword = FD+NO 



 <<< MACRO ITERATION  8 >>>
 --------------------------

 Total MCSCF energy       :           -99.983408935327219  (MACRO    8)

 - Nuclear repulsion      :             5.193668373494606
 - Inactive energy        :          -105.177077308821822
 - Active energy          :             0.000000000000000

 Norm of total gradient   :             0.000000000000
 -    of CI gradient      :             0.000000000000
 -    of orbital gradient :             0.000000000000
      Virial theorem: -V/T =      1.999208
@      MULPOP F      -0.48; H       0.48; 

 (SIRSTP) Close to convergence, ratio set to one.
 Energy difference; actual and predicted:    1.42109D-14   -3.14358D-24

 (SIRSTP) Close to convergence, ratio set to one.
 Energy difference; actual and predicted:   -4.52060D+09
 Close to convergence, ratio set to one.

 *** Optimization control: QC-HF converged ***
     Number of macro iterations used            8
     Number of micro iterations used           23
     Total number of CPU seconds used         0.01


 *** SCF orbital energy analysis ***

 Only the five lowest virtual orbital energies printed in each symmetry.

 Number of electrons :   10
 Orbital occupations :    3    1    1    0

 Sym       Hartree-Fock orbital energies

  1    -26.27571500    -1.58960660    -0.73897545     0.20969364     1.11681422
         1.59320394     2.00611368

  2     -0.63103111     1.48947018

  3     -0.63103111     1.48947018

    E(LUMO) :     0.20969364 au (symmetry 1)
  - E(HOMO) :    -0.63103111 au (symmetry 2)
  ------------------------------------------
    gap     :     0.84072475 au

 >>>> CPU and wall time for SCF :       0.007       0.007


                     .----------------------------------------.
                     | >>> SIRIUS OPTIMIZATION STATISTICS <<< |
                     `----------------------------------------'


 
     Date and time (Linux)  : Sun Sep  8 20:42:49 2013
     Host name              : lpqlx131.ups-tlse.fr                    


  ITER ITMIC     EMCSCF           GRDNRM        RATIO      STPLNG
 ---------------------------------------------------------------------
    1    3    -93.678666097951   8.3275453714  0.000000   0.7022268700
    2    3    -98.655321581277   5.4034170481  0.814512   0.6941495403
    3    3    -99.877932110727   1.0940125775  0.649461   0.2390892023
    4    2    -99.982833972759   0.1053206943  1.014946   0.0140232661
    5    4    -99.983407832179   0.0041293876  1.005328   0.0007971767
    6    6    -99.983408935327   0.0000050597  1.000050   0.0000000000
    7    2    -99.983408935327   0.0000000000  1.000000   0.0000000000
    8    0    -99.983408935327   0.0000000000  1.000000   0.0000000000


  ITER  INDGCM  GCIMAX      GCINRM     INDGOM  GOBMAX      GOBNRM      GRDNRM
 ------------------------------------------------------------------------------
    1      0    0.000000    0.000000      8    4.466548    8.327545    8.327545
    2      0    0.000000    0.000000     13   -2.685118    5.403417    5.403417
    3      0    0.000000    0.000000      9    0.798803    1.094013    1.094013
    4      0    0.000000    0.000000     14    0.048202    0.105321    0.105321
    5      0    0.000000    0.000000      3   -0.002098    0.004129    0.004129
    6      0    0.000000    0.000000      3    0.000003    0.000005    0.000005
    7      0    0.000000    0.000000      1    0.000000    0.000000    0.000000
    8      0    0.000000    0.000000      4    0.000000    0.000000    0.000000


  ITER ITMIC NCLIN NOLIN   TIMMAC    TIMITR    TIMMIC    TIMLIN    TIMMIC/ITMIC
 ------------------------------------------------------------------------------

    1     3     0     3      0.00      0.00      0.00      0.00      0.00
    2     3     0     3      0.00      0.00      0.00      0.00      0.00
    3     3     0     3      0.00      0.00      0.00      0.00      0.00
    4     2     0     2      0.00      0.00      0.00      0.00      0.00
    5     4     0     4      0.00      0.00      0.00      0.00      0.00
    6     6     0     6      0.00      0.00      0.00      0.00      0.00
    7     2     0     2      0.00      0.00      0.00      0.00      0.00
    8     0     0     0      0.00      0.00      0.00      0.00


 ITER         EMY                 EACTIV              EMCSCF

    1    -98.872334471445      0.000000000000    -93.678666097951
    2   -103.848989954772      0.000000000000    -98.655321581277
    3   -105.071600484222      0.000000000000    -99.877932110727
    4   -105.176502346254      0.000000000000    -99.982833972759
    5   -105.177076205673      0.000000000000    -99.983407832179
    6   -105.177077308821      0.000000000000    -99.983408935327
    7   -105.177077308822      0.000000000000    -99.983408935327
    8   -105.177077308822      0.000000000000    -99.983408935327


 ITER         DEPRED              DEACT               RATIO

    1      0.000000000000      0.000000000000      0.000000000000
    2     -6.109987193722     -4.976655483327      0.814511606250
    3     -1.882500306959     -1.222610529450      0.649460998721
    4     -0.103357097194     -0.104901862032      1.014945899989
    5     -0.000570817827     -0.000573859419      1.005328481556
    6     -0.000001103092     -0.000001103148      1.000050402497
    7     -0.000000000001     -0.000000000001      1.000000000000
    8     -0.000000000000      0.000000000000      1.000000000000


 ITER    BETA           GAMMA             STPLNG              RTRUST

    1      1.54178847  1.00000000      0.702226869984      0.700000000000
    2      0.83560172  1.00000000      0.694149540252      0.700000000000
    3      0.20000000  1.00000000      0.239089202291      0.700000000000
    4      0.20000000  1.00000000      0.014023266079      0.700000000000
    5      0.20000000  1.00000000      0.000797176748      0.700000000000
    6      0.20000000  1.00000000      0.000000000000      0.700000000000
    7      0.20000000  1.00000000      0.000000000000      0.700000000000
    8      0.00000000  0.00000000      0.000000000000      0.700000000000


 Reduced L root no.  1
 ITER         EVAL              EVEC(1)           EVEC(2)           EVEC(3)
 ----------------------------------------------------------------------------
    1  -13.372684137624    0.678499217314   -0.706685427149   -0.184090133809
    2   -1.967048030244    0.865018969202   -0.376853698473   -0.289279462324
    3   -0.008249704448    0.998858683948   -0.037660850969   -0.029270119505
    4   -0.000045665067    0.999996066983   -0.002681078570   -0.000823307651
    5   -0.000000088247    0.999999987290   -0.000157855416   -0.000021345263
    6   -0.000000000000    1.000000000000   -0.000000080672   -0.000000013372
    7   -0.000000000000    1.000000000000   -0.000000000000   -0.000000000000
    8    0.000000000000    0.000000000000    0.000000000000    0.000000000000


                       .-----------------------------------.
                       | >>> Final results from SIRIUS <<< |
                       `-----------------------------------'


@    Spin multiplicity:           1
@    Spatial symmetry:            1
@    Total charge of molecule:    0

@    Final HF energy:             -99.983408935327                 
@    Nuclear repulsion:             5.193668373495
@    Electronic energy:          -105.177077308822

@    Final gradient norm:           0.000000000000

 
     Date and time (Linux)  : Sun Sep  8 20:42:49 2013
     Host name              : lpqlx131.ups-tlse.fr                    

 (Only coefficients >0.0100 are printed.)

 Molecular orbitals for symmetry species  1
 ------------------------------------------

    Orbital         1        2        3        4        5
   1 F   :1s     0.9955  -0.2305  -0.0617  -0.0630   0.0355
   2 F   :1s     0.0214   0.4972   0.1370   0.0799  -0.1266
   3 F   :1s    -0.0058   0.5295   0.2441   0.7310  -0.0010
   4 F   :2pz   -0.0015  -0.0843   0.5483  -0.2669   0.4120
   5 F   :2pz    0.0014  -0.0471   0.3497  -0.4490   0.2792
   6 H   :1s     0.0003   0.1324  -0.2930  -0.0957   1.3943
   7 H   :1s     0.0018  -0.0140  -0.1078  -1.3594  -0.8297

 Molecular orbitals for symmetry species  2
 ------------------------------------------

    Orbital         1        2
   1 F   :2px    0.6605  -0.9467
   2 F   :2px    0.4902   1.0451

 Molecular orbitals for symmetry species  3
 ------------------------------------------

    Orbital         1        2
   1 F   :2py    0.6605  -0.9467
   2 F   :2py    0.4902   1.0451



 >>>> Total CPU  time used in SIRIUS :      0.01 seconds
 >>>> Total wall time used in SIRIUS :      0.01 seconds

 
     Date and time (Linux)  : Sun Sep  8 20:42:49 2013
     Host name              : lpqlx131.ups-tlse.fr                    


                     .---------------------------------------.
                     | End of Wave Function Section (SIRIUS) |
                     `---------------------------------------'



                    .------------------------------------------.
                    | Starting in Coupled Cluster Section (CC) |
                    `------------------------------------------'

  

 *******************************************************************************
 *******************************************************************************
 *                                                                             *
 *                                                                             *
 *                    START OF COUPLED CLUSTER CALCULATION                     *
 *                                                                             *
 *                                                                             *
 *******************************************************************************
 *******************************************************************************



 CCR12 ANSATZ =   0

 CCR12 APPROX =   0

   

 *******************************************************************
 *                                                                 *
 *<<<<<<<<<<                                             >>>>>>>>>>*
 *<<<<<<<<<< OUTPUT FROM COUPLED CLUSTER ENERGY PROGRAM  >>>>>>>>>>*
 *<<<<<<<<<<                                             >>>>>>>>>>*
 *                                                                 *
 *******************************************************************


             The Direct Coupled Cluster Energy Program
             -----------------------------------------


          Number of t1 amplitudes                 :        14
          Number of t2 amplitudes                 :       164
          Total number of amplitudes in ccsd      :       178

 Iter.  1: Coupled cluster MP2   energy :    -100.1121031641595778
 Iter.  1: Coupled cluster CC3   energy :    -100.1123514982621145
 Iter.  2: Coupled cluster CC3   energy :    -100.1150579136371732
 Iter.  3: Coupled cluster CC3   energy :    -100.1153354972539091
 Iter.  4: Coupled cluster CC3   energy :    -100.1153462455241936
 Iter.  5: Coupled cluster CC3   energy :    -100.1153453606227117
 Iter.  6: Coupled cluster CC3   energy :    -100.1153430011048329
 Iter.  7: Coupled cluster CC3   energy :    -100.1153427485189553
 Iter.  8: Coupled cluster CC3   energy :    -100.1153427698462508
 Iter.  9: Coupled cluster CC3   energy :    -100.1153427631502808
 Iter. 10: Coupled cluster CC3   energy :    -100.1153427597562029
 Iter. 11: Coupled cluster CC3   energy :    -100.1153427592869036
 Iter. 12: Coupled cluster CC3   energy :    -100.1153427592456637
 Iter. 13: Coupled cluster CC3   energy :    -100.1153427592364551
 Iter. 14: Coupled cluster CC3   energy :    -100.1153427592339398
 Iter. 15: Coupled cluster CC3   energy :    -100.1153427592340250

 CC3   energy converged to within   0.10D-11 is         -100.115342759234
 Final 2-norm of the CC vector function:  8.03316122D-12





             +-------------------------------------------------------+
             ! Final results from the Coupled Cluster energy program !
             +-------------------------------------------------------+



            Total SCF   energy:                   -99.9834089353

            Total MP2   energy:                  -100.1121031642

            Total CC3   energy:                  -100.1153427592




                   +--------------------------------------------+
                   ! Calculating singlet intermediates for CCLR !
                   +--------------------------------------------+



            E-intermediates calculated 
            Fock-intermediate calculated 
            Gamma-intermediate calculated 
            BF-intermediate calculated 
            C-intermediate calculated 
            D-intermediate calculated 


   

 *******************************************************************
 *                                                                 *
 *<<<<<<<<<<<<< OUTPUT FROM COUPLED CLUSTER RESPONSE  >>>>>>>>>>>>>*
 *                                                                 *
 *******************************************************************



                         +-------------------------------+
                         ! Coupled Cluster model is: CC3 !
                         +-------------------------------+

 RPA: call cceq_str
     Start vector generated from gradient
 RPA: exit cceq_str



 >>>>> COUPLED CLUSTER RESPONSE SOLVER <<<<<

    Iter  #Vectors  time (min)   residual
    --------------------------------------
      1       1         0.00     0.48E+00
      2       1         0.00     0.89E-01
      3       1         0.00     0.17E-01
      4       1         0.00     0.33E-02
      5       1         0.00     0.72E-03
      6       1         0.00     0.15E-03
      7       1         0.00     0.33E-04
      8       1         0.00     0.61E-05
      9       1         0.00     0.66E-06
     10       1         0.00     0.94E-07
     11       1         0.00     0.14E-07
     12       1         0.00     0.27E-08
     13       1         0.00     0.39E-09
     14       1         0.00     0.54E-10
     15       1         0.00     0.92E-11
     16       1         0.00     0.14E-11
     17       1         0.00     0.16E-12
    --------------------------------------
    converged in 17 iterations
    threshold:    0.10E-11


         Routine          Time (min)
         ---------------------------
         CC_TRDRV            0.00
         CCRED               0.00
         CCNEX               0.00
         ---------------------------
         Total time          0.00


 >>>> Total CPU  time used in CCEQ_SOLV:   0.12 seconds
 >>>> Total wall time used in CCEQ_SOLV:   0.38 seconds


 >>>>>>>>>>>>>>>>>>>>> <<<<<<<<<<<<<<<<<<<<<

  
     

   *******************************************************************
   *                                                                 *
   *<<<<<<<<   OUTPUT FROM PROPERTY AND SYMMETRY ANALYSIS   >>>>>>>>>*
   *                                                                 *
   *******************************************************************


     Prepare CC3 quadratic response calculation.


     Prepare CC3 cubic response calculation.



                         +-------------------------------+
                         ! REQUESTED PROPERTY OPERATORS: !
                         +-------------------------------+

             Index   Oper. Label  Symmetry  Transp.  PDBS  Atom
             --------------------------------------------------
                1     HAM0            1        1      T      0
                2     YDIPLEN         3        1      F      0
             --------------------------------------------------




                         +-------------------------------+
                         ! REQUESTED EXPECTATION VALUES: !
                         +-------------------------------+

                       Index   Oper. Label  Symmetry
                       -----------------------------
                       -----------------------------




                       +------------------------------------+
                       ! REQUESTED EFFECTIVE FOCK MATRICES: !
                       +------------------------------------+

                       Index   Oper. Label  Symmetry
                       -----------------------------
                       -----------------------------




                       +-----------------------------------+
                       ! REQUESTED FIRST ORDER XI VECTORS: !
                       +-----------------------------------+

             Index   Oper. Label  relaxed  Sym.     Frequency
             --------------------------------------------------
                1      YDIPLEN        F     3     -5.000000D-01
                2      YDIPLEN        F     3      0.000000D+00
                3      YDIPLEN        F     3      5.000000D-01
             --------------------------------------------------




                        +----------------------------------+
                        ! REQUESTED FIRST ORDER T VECTORS: !
                        +----------------------------------+

             Index   Oper. Label  relaxed  Sym.     Frequency
             --------------------------------------------------
                1      YDIPLEN        F     3     -5.000000D-01
                2      YDIPLEN        F     3      0.000000D+00
                3      YDIPLEN        F     3      5.000000D-01
             --------------------------------------------------




                       +------------------------------------+
                       ! REQUESTED FIRST ORDER ETA VECTORS: !
                       +------------------------------------+

             Index   Oper. Label  relaxed  Sym.     Frequency
             --------------------------------------------------
                1      YDIPLEN        F     3     -5.000000D-01
                2      YDIPLEN        F     3      0.000000D+00
                3      YDIPLEN        F     3      5.000000D-01
             --------------------------------------------------




                      +-------------------------------------+
                      ! REQUESTED FIRST ORDER ZETA VECTORS: !
                      +-------------------------------------+

             Index   Oper. Label  relaxed  Sym.     Frequency
             --------------------------------------------------
                1      YDIPLEN        F     3     -5.000000D-01
                2      YDIPLEN        F     3      0.000000D+00
                3      YDIPLEN        F     3      5.000000D-01
             --------------------------------------------------


      

    *******************************************************************
    *          SOLVING COUPLED CLUSTER RESPONSE EQUATIONS             *
    *******************************************************************



 
 +======================================================================+
 !                     RHS & ETA VECTORS TO COMPUTE:                    !
 +======================================================================+
 | TYPE | # VEC. |  NEEDED FOR:                                         |
 +----------------------------------------------------------------------+
 |  O1  |    3   |  first-order amplitude equations                     |
 |  X1  |    3   |  first-order multipliers equations                   |
 +======================================================================+



 +======================================================================+
 !                       LINEAR EQUATIONS TO SOLVE:                     !
 +======================================================================+
 | TYPE | # VEC. |  EQUATION:                                           |
 +----------------------------------------------------------------------+
 |  R1  |    3   |  first-order amplitude response                      |
 |  L1  |    3   |  first-order multiplier response                     |
 +======================================================================+



 +======================================================================+
 !                F MATRIX TRANSFORMATIONS TO COMPUTE:                  !
 +======================================================================+
 | TYPE | # VEC. |  TRANSFORMED:                                        |
 +----------------------------------------------------------------------+
 |  F1  |    3   |  first-order amplitude response (R1) vector          |
 +======================================================================+




 -------------------------------------------------------------------
 |          OUTPUT FROM AMPLITUDE RHS VECTOR SECTION               |
 -------------------------------------------------------------------



   For the requested  3 1th.-order amplitude rhs vectors "O1 ".
         -   0 D matrix transformations 
         -   0 C matrix transformations 
         -   0 B matrix transformations 
         -   0 C{O} matrix transformations 
         -   0 B{O} matrix transformations 
         -   0 A{O} matrix transformations 
         -   3Xi{O} vector calculations    
   will be performed.


 RPA: call cceq_str
     R1  start vector nr.  1 of symmetry  3 generated from gradient
 RPA: exit cceq_str



 >>>>> COUPLED CLUSTER RESPONSE SOLVER <<<<<

    Iter  #Vectors  time (min)   residual
    --------------------------------------
      1       1         0.00     0.33E+00
      2       1         0.00     0.46E-01
      3       1         0.00     0.80E-02
      4       1         0.00     0.13E-02
      5       1         0.00     0.24E-03
      6       1         0.00     0.26E-04
      7       1         0.00     0.26E-05
      8       1         0.00     0.34E-06
      9       1         0.00     0.40E-07
     10       1         0.00     0.32E-08
     11       1         0.00     0.38E-09
     12       1         0.00     0.42E-10
     13       1         0.00     0.36E-11
     14       1         0.00     0.23E-12
    --------------------------------------
    converged in 14 iterations
    threshold:    0.10E-11


         Routine          Time (min)
         ---------------------------
         CC_TRDRV            0.00
         CCRED               0.00
         CCNEX               0.00
         ---------------------------
         Total time          0.00


 >>>> Total CPU  time used in CCEQ_SOLV:   0.09 seconds
 >>>> Total wall time used in CCEQ_SOLV:   0.23 seconds


 >>>>>>>>>>>>>>>>>>>>> <<<<<<<<<<<<<<<<<<<<<

 RPA: call cceq_str
     R1  start vector nr.  2 of symmetry  3 generated from gradient
 RPA: exit cceq_str



 >>>>> COUPLED CLUSTER RESPONSE SOLVER <<<<<

    Iter  #Vectors  time (min)   residual
    --------------------------------------
      1       1         0.00     0.35E+00
      2       1         0.00     0.11E+00
      3       1         0.00     0.29E-01
      4       1         0.00     0.66E-02
      5       1         0.00     0.96E-03
      6       1         0.00     0.11E-03
      7       1         0.00     0.19E-04
      8       1         0.00     0.37E-05
      9       1         0.00     0.49E-06
     10       1         0.00     0.83E-07
     11       1         0.00     0.75E-08
     12       1         0.00     0.95E-09
     13       1         0.00     0.18E-09
     14       1         0.00     0.28E-10
     15       1         0.00     0.35E-11
     16       1         0.00     0.36E-12
    --------------------------------------
    converged in 16 iterations
    threshold:    0.10E-11


         Routine          Time (min)
         ---------------------------
         CC_TRDRV            0.00
         CCRED               0.00
         CCNEX               0.00
         ---------------------------
         Total time          0.00


 >>>> Total CPU  time used in CCEQ_SOLV:   0.10 seconds
 >>>> Total wall time used in CCEQ_SOLV:   0.27 seconds


 >>>>>>>>>>>>>>>>>>>>> <<<<<<<<<<<<<<<<<<<<<

 RPA: call cceq_str
     R1  start vector nr.  3 of symmetry  3 generated from gradient
 RPA: exit cceq_str



 >>>>> COUPLED CLUSTER RESPONSE SOLVER <<<<<

    Iter  #Vectors  time (min)   residual
    --------------------------------------
      1       1         0.00     0.44E+00
      2       1         0.00     0.47E+00
      3       1         0.00     0.14E+00
      4       1         0.00     0.76E-01
      5       1         0.00     0.21E-01
      6       1         0.00     0.31E-02
      7       1         0.00     0.77E-03
      8       1         0.00     0.18E-03
      9       1         0.00     0.40E-04
     10       1         0.00     0.11E-04
     11       1         0.00     0.32E-05
     12       1         0.00     0.79E-06
     13       1         0.00     0.69E-07
     14       1         0.00     0.15E-07
     15       1         0.00     0.38E-08
     16       1         0.00     0.62E-09
     17       1         0.00     0.18E-09
     18       1         0.00     0.40E-10
     19       1         0.00     0.57E-11
     20       1         0.00     0.11E-11
     21       1         0.00     0.21E-12
    --------------------------------------
    converged in 21 iterations
    threshold:    0.10E-11


         Routine          Time (min)
         ---------------------------
         CC_TRDRV            0.00
         CCRED               0.00
         CCNEX               0.00
         ---------------------------
         Total time          0.00


 >>>> Total CPU  time used in CCEQ_SOLV:   0.13 seconds
 >>>> Total wall time used in CCEQ_SOLV:   0.38 seconds


 >>>>>>>>>>>>>>>>>>>>> <<<<<<<<<<<<<<<<<<<<<

 RPA: call cceq_str
     L1  start vector nr.  1 of symmetry  3 generated from gradient
 RPA: exit cceq_str



 >>>>> COUPLED CLUSTER RESPONSE SOLVER <<<<<

    Iter  #Vectors  time (min)   residual
    --------------------------------------
      1       1         0.00     0.64E+00
      2       1         0.00     0.38E+00
      3       1         0.00     0.17E+00
      4       1         0.00     0.92E-01
      5       1         0.00     0.23E-01
      6       1         0.00     0.46E-02
      7       1         0.00     0.11E-02
      8       1         0.00     0.30E-03
      9       1         0.00     0.50E-04
     10       1         0.00     0.12E-04
     11       1         0.00     0.42E-05
     12       1         0.00     0.11E-05
     13       1         0.00     0.11E-06
     14       1         0.00     0.20E-07
     15       1         0.00     0.54E-08
     16       1         0.00     0.83E-09
     17       1         0.00     0.23E-09
     18       1         0.00     0.49E-10
     19       1         0.00     0.77E-11
     20       1         0.00     0.17E-11
     21       1         0.00     0.27E-12
    --------------------------------------
    converged in 21 iterations
    threshold:    0.10E-11


         Routine          Time (min)
         ---------------------------
         CC_TRDRV            0.00
         CCRED               0.00
         CCNEX               0.00
         ---------------------------
         Total time          0.00


 >>>> Total CPU  time used in CCEQ_SOLV:   0.14 seconds
 >>>> Total wall time used in CCEQ_SOLV:   0.47 seconds


 >>>>>>>>>>>>>>>>>>>>> <<<<<<<<<<<<<<<<<<<<<

 RPA: call cceq_str
     L1  start vector nr.  2 of symmetry  3 generated from gradient
 RPA: exit cceq_str



 >>>>> COUPLED CLUSTER RESPONSE SOLVER <<<<<

    Iter  #Vectors  time (min)   residual
    --------------------------------------
      1       1         0.00     0.54E+00
      2       1         0.00     0.11E+00
      3       1         0.00     0.34E-01
      4       1         0.00     0.91E-02
      5       1         0.00     0.13E-02
      6       1         0.00     0.17E-03
      7       1         0.00     0.23E-04
      8       1         0.00     0.44E-05
      9       1         0.00     0.67E-06
     10       1         0.00     0.12E-06
     11       1         0.00     0.12E-07
     12       1         0.00     0.13E-08
     13       1         0.00     0.25E-09
     14       1         0.00     0.38E-10
     15       1         0.00     0.51E-11
     16       1         0.00     0.52E-12
    --------------------------------------
    converged in 16 iterations
    threshold:    0.10E-11


         Routine          Time (min)
         ---------------------------
         CC_TRDRV            0.00
         CCRED               0.00
         CCNEX               0.00
         ---------------------------
         Total time          0.00


 >>>> Total CPU  time used in CCEQ_SOLV:   0.10 seconds
 >>>> Total wall time used in CCEQ_SOLV:   0.35 seconds


 >>>>>>>>>>>>>>>>>>>>> <<<<<<<<<<<<<<<<<<<<<

 RPA: call cceq_str
     L1  start vector nr.  3 of symmetry  3 generated from gradient
 RPA: exit cceq_str



 >>>>> COUPLED CLUSTER RESPONSE SOLVER <<<<<

    Iter  #Vectors  time (min)   residual
    --------------------------------------
      1       1         0.00     0.50E+00
      2       1         0.00     0.55E-01
      3       1         0.00     0.12E-01
      4       1         0.00     0.21E-02
      5       1         0.00     0.32E-03
      6       1         0.00     0.32E-04
      7       1         0.00     0.33E-05
      8       1         0.00     0.32E-06
      9       1         0.00     0.63E-07
     10       1         0.00     0.50E-08
     11       1         0.00     0.55E-09
     12       1         0.00     0.48E-10
     13       1         0.00     0.46E-11
     14       1         0.00     0.34E-12
    --------------------------------------
    converged in 14 iterations
    threshold:    0.10E-11


         Routine          Time (min)
         ---------------------------
         CC_TRDRV            0.00
         CCRED               0.00
         CCNEX               0.00
         ---------------------------
         Total time          0.00


 >>>> Total CPU  time used in CCEQ_SOLV:   0.09 seconds
 >>>> Total wall time used in CCEQ_SOLV:   0.30 seconds


 >>>>>>>>>>>>>>>>>>>>> <<<<<<<<<<<<<<<<<<<<<


 Solution of CC response equations completed.


 *******************************************************************
 *                                                                 *
 *<<<<<<<<  OUTPUT FROM COUPLED CLUSTER LINEAR RESPONSE   >>>>>>>>>*
 *                                                                 *
 *<<<<<<<<     CALCULATION OF SECOND ORDER PROPERTIES     >>>>>>>>>*
 *                                                                 *
 *******************************************************************

 


   For the requested  2 second-order properties
         -   0 F matrix transformations with R1 vectors
         -   0 J matrix transformations with L1 vectors
         -   1 ETA and XKSI vector calculations 
         -   0 X intermediate calculations 
         -   0 2. order reortho./relax. contributions
   will be performed.



>>> Time used for    1 O1/X1 vector calculation:        0.05 seconds.

>>> Total time for   2 linear response function:        0.05 seconds.


             +--------------------------------------------------------+
             !      FINAL CC3 RESULTS FOR THE SECOND-ORDER PROPERTIES !
             +--------------------------------------------------------+


  A operator                  B operator                     property 
------------------------------------------------------------------------

 YDIPLEN  (unrel.) -0.0000   YDIPLEN  (unrel.)  0.0000     0.68743753    
                   -0.5000                      0.5000     0.19660267    
------------------------------------------------------------------------



 requested model not yet implemented
  

 *******************************************************************************
 *******************************************************************************
 *                                                                             *
 *                                                                             *
 *                   SUMMARY OF COUPLED CLUSTER CALCULATION                    *
 *                                                                             *
 *                                                                             *
 *******************************************************************************
 *******************************************************************************

                                                                                
                                                                                
            Total SCF   energy:                   -99.9834089353                
            Total MP2   energy:                  -100.1121031642                
            Total CC3   energy:                  -100.1153427592                
  

 *******************************************************************************
 *******************************************************************************
 *                                                                             *
 *                                                                             *
 *                      END OF COUPLED CLUSTER CALCULATION                     *
 *                                                                             *
 *                                                                             *
 *******************************************************************************
 *******************************************************************************


 >>>> CPU and wall time for CC :       0.951       2.849

 
     Date and time (Linux)  : Sun Sep  8 20:42:52 2013
     Host name              : lpqlx131.ups-tlse.fr                    


                      .-------------------------------------.
                      | End of Coupled Cluster Section (CC) |
                      `-------------------------------------'

 >>>> Total CPU  time used in DALTON:   0.97 seconds
 >>>> Total wall time used in DALTON:   2.87 seconds

 
     Date and time (Linux)  : Sun Sep  8 20:42:52 2013
     Host name              : lpqlx131.ups-tlse.fr                    
