

     ************************************************************************
     *************** Dalton - An Electronic Structure Program ***************
     ************************************************************************

    This is output from DALTON (Release Dalton2013 patch 0)
   ----------------------------------------------------------------------------
    NOTE:
     
    Dalton is an experimental code for the evaluation of molecular
    properties using (MC)SCF, DFT, CI, and CC wave functions.
    The authors accept no responsibility for the performance of
    the code or for the correctness of the results.
     
    The code (in whole or part) is provided under a licence and
    is not to be reproduced for further distribution without
    the written permission of the authors or their representatives.
     
    See the home page "http://daltonprogram.org" for further information.
     
    If results obtained with this code are published,
    the appropriate citations would be both of:
     
       K. Aidas, C. Angeli, K. L. Bak, V. Bakken, R. Bast,
       L. Boman, O. Christiansen, R. Cimiraglia, S. Coriani,
       P. Dahle, E. K. Dalskov, U. Ekstroem, T. Enevoldsen,
       J. J. Eriksen, P. Ettenhuber, B. Fernandez, L. Ferrighi,
       H. Fliegl, L. Frediani, K. Hald, A. Halkier, C. Haettig,
       H. Heiberg, T. Helgaker, A. C. Hennum, H. Hettema,
       E. Hjertenaes, S. Hoest, I.-M. Hoeyvik, M. F. Iozzi,
       B. Jansik, H. J. Aa. Jensen, D. Jonsson, P. Joergensen,
       J. Kauczor, S. Kirpekar, T. Kjaergaard, W. Klopper,
       S. Knecht, R. Kobayashi, H. Koch, J. Kongsted, A. Krapp,
       K. Kristensen, A. Ligabue, O. B. Lutnaes, J. I. Melo,
       K. V. Mikkelsen, R. H. Myhre, C. Neiss, C. B. Nielsen,
       P. Norman, J. Olsen, J. M. H. Olsen, A. Osted,
       M. J. Packer, F. Pawlowski, T. B. Pedersen, P. F. Provasi,
       S. Reine, Z. Rinkevicius, T. A. Ruden, K. Ruud, V. Rybkin,
       P. Salek, C. C. M. Samson, A. Sanchez de Meras, T. Saue,
       S. P. A. Sauer, B. Schimmelpfennig, K. Sneskov,
       A. H. Steindal, K. O. Sylvester-Hvid, P. R. Taylor,
       A. M. Teale, E. I. Tellgren, D. P. Tew, A. J. Thorvaldsen,
       L. Thoegersen, O. Vahtras, M. A. Watson, D. J. D. Wilson,
       M. Ziolkowski and H. Agren.
       The Dalton quantum chemistry program system.
       WIREs Comput. Mol. Sci. 2013. doi: 10.1002/wcms.1172
    
    and
    
       Dalton, a Molecular Electronic Structure Program,
       Release DALTON2013.0 (2013), see http://daltonprogram.org
   ----------------------------------------------------------------------------

    Authors in alphabetical order (major contribution(s) in parenthesis):

  Kestutis Aidas,           Vilnius University,           Lithuania   (QM/MM)
  Celestino Angeli,         University of Ferrara,        Italy       (NEVPT2)
  Keld L. Bak,              UNI-C,                        Denmark     (AOSOPPA, non-adiabatic coupling, magnetic properties)
  Vebjoern Bakken,          University of Oslo,           Norway      (DALTON; geometry optimizer, symmetry detection)
  Radovan Bast,             KTH Stockholm                 Sweden      (DALTON installation and execution frameworks)
  Linus Boman,              NTNU,                         Norway      (Cholesky decomposition and subsystems)
  Ove Christiansen,         Aarhus University,            Denmark     (CC module)
  Renzo Cimiraglia,         University of Ferrara,        Italy       (NEVPT2)
  Sonia Coriani,            University of Trieste,        Italy       (CC module, MCD in RESPONS)
  Paal Dahle,               University of Oslo,           Norway      (Parallelization)
  Erik K. Dalskov,          UNI-C,                        Denmark     (SOPPA)
  Thomas Enevoldsen,        Univ. of Southern Denmark,    Denmark     (SOPPA)
  Janus J. Eriksen,         Aarhus University,            Denmark     (PE-MP2/SOPPA, TDA)
  Berta Fernandez,          U. of Santiago de Compostela, Spain       (doublet spin, ESR in RESPONS)
  Lara Ferrighi,            Aarhus University,            Denmark     (PCM Cubic response)
  Heike Fliegl,             University of Oslo,           Norway      (CCSD(R12))
  Luca Frediani,            UiT The Arctic U. of Norway,  Norway      (PCM)
  Bin Gao,                  UiT The Arctic U. of Norway,  Norway      (Gen1Int library)
  Christof Haettig,         Ruhr-University Bochum,       Germany     (CC module)
  Kasper Hald,              Aarhus University,            Denmark     (CC module)
  Asger Halkier,            Aarhus University,            Denmark     (CC module)
  Hanne Heiberg,            University of Oslo,           Norway      (geometry analysis, selected one-electron integrals)
  Trygve Helgaker,          University of Oslo,           Norway      (DALTON; ABACUS, ERI, DFT modules, London, and much more)
  Alf Christian Hennum,     University of Oslo,           Norway      (Parity violation)
  Hinne Hettema,            University of Auckland,       New Zealand (quadratic response in RESPONS; SIRIUS supersymmetry)
  Eirik Hjertenaes,         NTNU,                         Norway      (Cholesky decomposition)
  Maria Francesca Iozzi,    University of Oslo,           Norway      (RPA)
  Brano Jansik              Technical Univ. of Ostrava    Czech Rep.  (DFT cubic response)
  Hans Joergen Aa. Jensen,  Univ. of Southern Denmark,    Denmark     (DALTON; SIRIUS, RESPONS, ABACUS modules, London, and much more)
  Dan Jonsson,              UiT The Arctic U. of Norway,  Norway      (cubic response in RESPONS module)
  Poul Joergensen,          Aarhus University,            Denmark     (RESPONS, ABACUS, and CC modules)
  Joanna Kauczor,           Linkoeping University,        Sweden      (Complex polarization propagator (CPP) module)
  Sheela Kirpekar,          Univ. of Southern Denmark,    Denmark     (Mass-velocity & Darwin integrals)
  Wim Klopper,              KIT Karlsruhe,                Germany     (R12 code in CC, SIRIUS, and ABACUS modules)
  Stefan Knecht,            ETH Zurich,                   Switzerland (Parallel CI and MCSCF)
  Rika Kobayashi,           Australian National Univ.,    Australia   (DIIS in CC, London in MCSCF)
  Henrik Koch,              NTNU,                         Norway      (CC module, Cholesky decomposition)
  Jacob Kongsted,           Univ. of Southern Denmark,    Denmark     (Polarizable embedding, QM/MM)
  Andrea Ligabue,           University of Modena,         Italy       (CTOCD, AOSOPPA)
  Ola B. Lutnaes,           University of Oslo,           Norway      (DFT Hessian)
  Juan I. Melo,             University of Buenos Aires,   Argentina   (LRESC, Relativistic Effects on NMR Shieldings)
  Kurt V. Mikkelsen,        University of Copenhagen,     Denmark     (MC-SCRF and QM/MM)
  Rolf H. Myhre,            NTNU,                         Norway      (Cholesky, subsystems and ECC2)
  Christian Neiss,          Univ. Erlangen-Nuernberg,     Germany     (CCSD(R12))
  Christian B. Nielsen,     University of Copenhagen,     Denmark     (QM/MM)
  Patrick Norman,           Linkoeping University,        Sweden      (Cubic response and complex response in RESPONS)
  Jeppe Olsen,              Aarhus University,            Denmark     (SIRIUS CI/density modules)
  Jogvan Magnus H. Olsen,   Univ. of Southern Denmark,    Denmark     (Polarizable embedding, PE library, QM/MM)
  Anders Osted,             Copenhagen University,        Denmark     (QM/MM)
  Martin J. Packer,         University of Sheffield,      UK          (SOPPA)
  Filip Pawlowski,          Kazimierz Wielki University   Poland      (CC3)
  Thomas B. Pedersen,       University of Oslo,           Norway      (Cholesky decomposition)
  Patricio F. Provasi,      University of Northeastern,   Argentina   (Analysis of coupling constants in localized orbitals)
  Zilvinas Rinkevicius,     KTH Stockholm,                Sweden      (open-shell DFT, ESR)
  Elias Rudberg,            KTH Stockholm,                Sweden      (DFT grid and basis info)
  Torgeir A. Ruden,         University of Oslo,           Norway      (Numerical derivatives in ABACUS)
  Kenneth Ruud,             UiT The Arctic U. of Norway,  Norway      (DALTON; ABACUS magnetic properties and  much more)
  Pawel Salek,              KTH Stockholm,                Sweden      (DALTON; DFT code)
  Claire C. M. Samson       University of Karlsruhe       Germany     (Boys localization, r12 integrals in ERI)
  Alfredo Sanchez de Meras, University of Valencia,       Spain       (CC module, Cholesky decomposition)
  Trond Saue,               Paul Sabatier University,     France      (direct Fock matrix construction)
  Stephan P. A. Sauer,      University of Copenhagen,     Denmark     (SOPPA(CCSD), SOPPA prop., AOSOPPA, vibrational g-factors)
  Bernd Schimmelpfennig,    Forschungszentrum Karlsruhe,  Germany     (AMFI module)
  Kristian Sneskov,         Aarhus University,            Denmark     (QM/MM, PE-CC)
  Arnfinn H. Steindal,      UiT The Arctic U. of Norway,  Norway      (parallel QM/MM)
  K. O. Sylvester-Hvid,     University of Copenhagen,     Denmark     (MC-SCRF)
  Peter R. Taylor,          VLSCI/Univ. of Melbourne,     Australia   (Symmetry handling ABACUS, integral transformation)
  Andrew M. Teale,          University of Nottingham,     England     (DFT-AC, DFT-D)
  David P. Tew,             University of Bristol,        England     (CCSD(R12))
  Olav Vahtras,             KTH Stockholm,                Sweden      (triplet response, spin-orbit, ESR, TDDFT, open-shell DFT)
  David J. Wilson,          La Trobe University,          Australia   (DFT Hessian and DFT magnetizabilities)
  Hans Agren,               KTH Stockholm,                Sweden      (SIRIUS module, RESPONS, MC-SCRF solvation model)
 --------------------------------------------------------------------------------

     Date and time (Linux)  : Sun Sep  8 20:42:20 2013
     Host name              : lpqlx131.ups-tlse.fr                    

 * Work memory size             :    64000000 =  488.28 megabytes.

 * Directories for basis set searches:
   1) /home/bast/DALTON-2013.0-Source/build/test_cc_energy_field
   2) /home/bast/DALTON-2013.0-Source/build/basis


Compilation information
-----------------------

 Who compiled             | bast
 Host                     | lpqlx131.ups-tlse.fr
 System                   | Linux-3.8.5-201.fc18.x86_64
 CMake generator          | Unix Makefiles
 Processor                | x86_64
 64-bit integers          | OFF
 MPI                      | OFF
 Fortran compiler         | /usr/bin/gfortran
 Fortran compiler version | GNU Fortran (GCC) 4.7.2 20121109 (Red Hat 4.7.2-8)
 C compiler               | /usr/bin/gcc
 C compiler version       | gcc (GCC) 4.7.2 20121109 (Red Hat 4.7.2-8)
 C++ compiler             | /usr/bin/g++
 C++ compiler version     | g++ (GCC) 4.7.2 20121109 (Red Hat 4.7.2-8)
 Static linking           | OFF
 Last Git revision        | f34203295a86316e27f9e7b44f9b6769c4a046c0
 Configuration time       | 2013-09-08 20:31:27.952056


   Content of the .dal input file
 ----------------------------------

**DALTON INPUT                                    
.RUN WAVE FUNCTIONS                               
**INTEGRAL                                        
.THETA                                            
**WAVE FUNCTION                                   
.CC                                               
*HAMILTONIAN                                      
.FIELD                                            
 2.0D-05                                          
ZZTHETA                                           
*SCF INP                                          
.THRESH                                           
 5.0D-10                                          
.DOUBLY OCCUPIED                                  
 3 1 1 0                                          
*CC INP                                           
.PACK                                             
1.0D-14                                           
.CCSD                                             
.CC(T)                                            
.PRINT                                            
 6                                                
.THRENR                                           
5.0D-10                                           
.FROIMP                                           
1 0 0 0                                           
0 0 0 0                                           
**END OF DALTON INPUT                             


   Content of the .mol file
 ----------------------------

BASIS                                                                          
aug-cc-pVDZ                                                                    
Quadrupole convergence calculations                                            
for HF in CM coor. system                                                      
    2    2  X  Y  Z   1.00D-15                                                 
        1.0   1                                                                
H     0.0000000000000000  0.000000000000000   1.645584440000000       *        
        9.0   1                                                                
F     0.0000000000000000  0.000000000000000   -.08729478000000        *        


       *******************************************************************
       *********** Output from DALTON general input processing ***********
       *******************************************************************

 --------------------------------------------------------------------------------
   Overall default print level:    0
   Print level for DALTON.STAT:    1

    HERMIT 1- and 2-electron integral sections will be executed
    "Old" integral transformation used (limited to max 255 basis functions)
    Wave function sections will be executed (SIRIUS module)
 --------------------------------------------------------------------------------


   ****************************************************************************
   *************** Output of molecule and basis set information ***************
   ****************************************************************************


    The two title cards from your ".mol" input:
    ------------------------------------------------------------------------
 1: Quadrupole convergence calculations                                     
 2: for HF in CM coor. system                                               
    ------------------------------------------------------------------------

  Atomic type no.    1
  --------------------
  Nuclear charge:   1.00000
  Number of symmetry independent centers:    1
  Number of basis sets to read;    2
  Basis set file used for this atomic type with Z =   1 :
     "/home/bast/DALTON-2013.0-Source/build/basis/aug-cc-pVDZ"

  Atomic type no.    2
  --------------------
  Nuclear charge:   9.00000
  Number of symmetry independent centers:    1
  Number of basis sets to read;    2
  Basis set file used for this atomic type with Z =   9 :
     "/home/bast/DALTON-2013.0-Source/build/basis/aug-cc-pVDZ"


                         SYMGRP: Point group information
                         -------------------------------

Point group: C2v

   * The point group was generated by:

      Reflection in the yz-plane
      Reflection in the xz-plane

   * Group multiplication table

        |  E   C2z  Oxz  Oyz
   -----+--------------------
     E  |  E   C2z  Oxz  Oyz
    C2z | C2z   E   Oyz  Oxz
    Oxz | Oxz  Oyz   E   C2z
    Oyz | Oyz  Oxz  C2z   E 

   * Character table

        |  E   C2z  Oxz  Oyz
   -----+--------------------
    A1  |   1    1    1    1
    B1  |   1   -1    1   -1
    B2  |   1   -1   -1    1
    A2  |   1    1   -1   -1

   * Direct product table

        | A1   B1   B2   A2 
   -----+--------------------
    A1  | A1   B1   B2   A2 
    B1  | B1   A1   A2   B2 
    B2  | B2   A2   A1   B1 
    A2  | A2   B2   B1   A1 


                                 Isotopic Masses
                                 ---------------

                           H           1.007825
                           F          18.998403

                       Total mass:    20.006228 amu
                       Natural abundance:  99.985 %

 Center-of-mass coordinates (a.u.):    0.000000    0.000000   -0.000000


  Atoms and basis sets
  --------------------

  Number of atom types :    2
  Total number of atoms:    2

  Basis set used is "aug-cc-pVDZ" from the basis set library.

  label    atoms   charge   prim   cont     basis
  ----------------------------------------------------------------------
  H           1    1.0000    11     9      [5s2p|3s2p]                                        
  F           1    9.0000    35    23      [10s5p2d|4s3p2d]                                   
  ----------------------------------------------------------------------
  total:      2   10.0000    46    32
  ----------------------------------------------------------------------
  Spherical harmonic basis used.

  Threshold for neglecting AO integrals:  1.00D-15


  Cartesian Coordinates (a.u.)
  ----------------------------

  Total number of coordinates:    6
  H       :     1  x   0.0000000000    2  y   0.0000000000    3  z   1.6455844400
  F       :     4  x   0.0000000000    5  y   0.0000000000    6  z  -0.0872947800


  Symmetry Coordinates
  --------------------

  Number of coordinates in each symmetry:     2    2    2    0

  Symmetry  A1  ( 1)

    1   H     z    3
    2   F     z    6

  Symmetry  B1  ( 2)

    3   H     x    1
    4   F     x    4

  Symmetry  B2  ( 3)

    5   H     y    2
    6   F     y    5


   Interatomic separations (in Angstrom):
   --------------------------------------

            H           F     
            ------      ------
 H     :    0.000000
 F     :    0.917000    0.000000


  Max    interatomic separation is    0.9170 Angstrom (    1.7329 Bohr)
  between atoms    2 and    1, "F     " and "H     ".

  Min HX interatomic separation is    0.9170 Angstrom (    1.7329 Bohr)


  Bond distances (Angstrom):
  --------------------------

                  atom 1     atom 2       distance
                  ------     ------       --------
  bond distance:  F          H            0.917000




 Principal moments of inertia (u*A**2) and principal axes
 --------------------------------------------------------

   IA       0.000000          0.000000    0.000000    1.000000
   IB       0.804778          0.000000    1.000000    0.000000
   IC       0.804778          1.000000    0.000000    0.000000


 Rotational constants
 --------------------

 The molecule is linear.

               B =       627973.52 MHz     (   20.946942 cm-1)


@  Nuclear repulsion energy :    5.193668373495 Hartree


  Symmetry Orbitals
  -----------------

  Number of orbitals in each symmetry:          16    7    7    2


  Symmetry  A1 ( 1)

    1     H        1s         1
    2     H        1s         2
    3     H        1s         3
    4     H        2pz        6
    5     H        2pz        9
    6     F        1s        10
    7     F        1s        11
    8     F        1s        12
    9     F        1s        13
   10     F        2pz       16
   11     F        2pz       19
   12     F        2pz       22
   13     F        3d0       25
   14     F        3d2+      27
   15     F        3d0       30
   16     F        3d2+      32


  Symmetry  B1 ( 2)

   17     H        2px        4
   18     H        2px        7
   19     F        2px       14
   20     F        2px       17
   21     F        2px       20
   22     F        3d1+      26
   23     F        3d1+      31


  Symmetry  B2 ( 3)

   24     H        2py        5
   25     H        2py        8
   26     F        2py       15
   27     F        2py       18
   28     F        2py       21
   29     F        3d1-      24
   30     F        3d1-      29


  Symmetry  A2 ( 4)

   31     F        3d2-      23
   32     F        3d2-      28

  Symmetries of electric field:  B1 (2)  B2 (3)  A1 (1)

  Symmetries of magnetic field:  B2 (3)  B1 (2)  A2 (4)


                     .---------------------------------------.
                     | Starting in Integral Section (HERMIT) |
                     `---------------------------------------'



    *************************************************************************
    ****************** Output from HERMIT input processing ******************
    *************************************************************************


 Default print level:        1

 * Nuclear model: Point charge

 Calculation of one- and two-electron Hamiltonian integrals.

 The following one-electron property integrals are calculated as requested:
          - overlap integrals
          - traceless quadrupole moment integrals

 Center of mass  (bohr):      0.000000000000      0.000000000000     -0.000000013595
 Operator center (bohr):      0.000000000000      0.000000000000      0.000000000000
 Gauge origin    (bohr):      0.000000000000      0.000000000000      0.000000000000
 Dipole origin   (bohr):      0.000000000000      0.000000000000      0.000000000000


     ************************************************************************
     ************************** Output from HERINT **************************
     ************************************************************************


 Threshold for neglecting two-electron integrals:  1.00D-15
 Number of two-electron integrals written:       30407 ( 21.8% )
 Megabytes written:                              0.350

 >>>> Total CPU  time used in HERMIT:   0.03 seconds
 >>>> Total wall time used in HERMIT:   0.03 seconds


                        .----------------------------------.
                        | End of Integral Section (HERMIT) |
                        `----------------------------------'



                   .--------------------------------------------.
                   | Starting in Wave Function Section (SIRIUS) |
                   `--------------------------------------------'


 *** Output from Huckel module :

     Using EWMO model:          T
     Using EHT  model:          F
     Number of Huckel orbitals each symmetry:    4    1    1    0

 EWMO - Energy Weighted Maximum Overlap - is a Huckel type method,
        which normally is better than Extended Huckel Theory.
 Reference: Linderberg and Ohrn, Propagators in Quantum Chemistry (Wiley, 1973)

 Huckel EWMO eigenvalues for symmetry :  1
          -26.384339      -1.727406      -0.829968      -0.243487

 Huckel EWMO eigenvalues for symmetry :  2
           -0.730000

 Huckel EWMO eigenvalues for symmetry :  3
           -0.730000

 **********************************************************************
 *SIRIUS* a direct, restricted step, second order MCSCF program       *
 **********************************************************************

 
     Date and time (Linux)  : Sun Sep  8 20:42:20 2013
     Host name              : lpqlx131.ups-tlse.fr                    

 Title lines from ".mol" input file:
     Quadrupole convergence calculations                                     
     for HF in CM coor. system                                               

 Print level on unit LUPRI =   2 is   0
 Print level on unit LUW4  =   2 is   5

@    (Integral direct) CC calculation.

@    This is a combination run starting with
@              a restricted, closed shell Hartree-Fock calculation


@  The molecule is placed in a static field.
@  Field strength (a.u.)          Field operator
@  ---------------------------------------------
@      2.00000000E-05                  ZZTHETA 
@  ---------------------------------------------

 Initial molecular orbitals are obtained according to
 ".MOSTART EWMO  " input option

     Wave function specification
     ============================

     For the specification of the Coupled Cluster: see later.

@    For the wave function of type :      >>> CC <<<
@    Number of closed shell electrons          10
@    Number of electrons in active shells       0
@    Total charge of the molecule               0

@    Spin multiplicity and 2 M_S                1         0
     Total number of symmetries                 4
@    Reference state symmetry                   1

     Orbital specifications
     ======================
     Abelian symmetry species          All |    1    2    3    4
                                       --- |  ---  ---  ---  ---
@    Occupied SCF orbitals               5 |    3    1    1    0
     Secondary orbitals                 27 |   13    6    6    2
     Total number of orbitals           32 |   16    7    7    2
     Number of basis functions          32 |   16    7    7    2

     Optimization information
     ========================
@    Number of configurations                 1
@    Number of orbital rotations             51
     ------------------------------------------
@    Total number of variables               52

     Maximum number of Fock   iterations      0
     Maximum number of DIIS   iterations     60
     Maximum number of QC-SCF iterations     60
     Threshold for SCF convergence     5.00D-10


 Changes of defaults for CC:
 ---------------------------


 -Implicit frozen core calculation
 -Calculation with finite fields:
    Field strength:   0.000020Field Label:  ZZTHETA 
Center of charge:    0.00000000    0.00000000    0.08599314
Charge correction to interaction with electric field:   -0.00000000

  


 >>>>> DIIS optimization of Hartree-Fock <<<<<

 C1-DIIS algorithm; max error vectors =   10

 Iter      Total energy        Error norm    Delta(E)  DIIS dim.
 -----------------------------------------------------------------------------
     (Precalculated two-electron integrals are transformed to P-supermatrix elements.
      Threshold for discarding integrals :  1.00D-15 )
@  1    -99.9262072551        1.43997D+00   -9.99D+01    1
      Virial theorem: -V/T =      1.994782
@      MULPOP H       0.36; F      -0.36; 
 -----------------------------------------------------------------------------
@  2    -100.027983120        3.43521D-01   -1.02D-01    2
      Virial theorem: -V/T =      2.004734
@      MULPOP H       0.28; F      -0.28; 
 -----------------------------------------------------------------------------
@  3    -100.032634002        1.25963D-01   -4.65D-03    3
      Virial theorem: -V/T =      1.999005
@      MULPOP H       0.32; F      -0.32; 
 -----------------------------------------------------------------------------
@  4    -100.033357120        3.46844D-02   -7.23D-04    4
      Virial theorem: -V/T =      2.001394
@      MULPOP H       0.32; F      -0.32; 
 -----------------------------------------------------------------------------
@  5    -100.033439387        6.03566D-03   -8.23D-05    5
      Virial theorem: -V/T =      2.000916
@      MULPOP H       0.32; F      -0.32; 
 -----------------------------------------------------------------------------
@  6    -100.033445084        1.06825D-03   -5.70D-06    6
      Virial theorem: -V/T =      2.000930
@      MULPOP H       0.32; F      -0.32; 
 -----------------------------------------------------------------------------
@  7    -100.033445236        1.31222D-04   -1.52D-07    7
      Virial theorem: -V/T =      2.000938
@      MULPOP H       0.32; F      -0.32; 
 -----------------------------------------------------------------------------
@  8    -100.033445238        1.71481D-05   -2.12D-09    8
      Virial theorem: -V/T =      2.000938
@      MULPOP H       0.32; F      -0.32; 
 -----------------------------------------------------------------------------
@  9    -100.033445238        1.92566D-06   -2.23D-11    9
      Virial theorem: -V/T =      2.000938
@      MULPOP H       0.32; F      -0.32; 
 -----------------------------------------------------------------------------
@ 10    -100.033445238        1.33401D-07   -2.42D-13   10
      Virial theorem: -V/T =      2.000938
@      MULPOP H       0.32; F      -0.32; 
 -----------------------------------------------------------------------------
@ 11    -100.033445238        1.61067D-08    1.42D-14   10
      Virial theorem: -V/T =      2.000938
@      MULPOP H       0.32; F      -0.32; 
 -----------------------------------------------------------------------------
@ 12    -100.033445238        1.21891D-09    5.68D-14   10
      Virial theorem: -V/T =      2.000938
@      MULPOP H       0.32; F      -0.32; 
 -----------------------------------------------------------------------------
@ 13    -100.033445238        1.75438D-10   -1.14D-13   10

@ *** DIIS converged in  13 iterations !
@     Converged SCF energy, gradient:   -100.033445237701    1.75D-10
    - total time used in SIRFCK :              0.00 seconds


 *** SCF orbital energy analysis ***

 Only the five lowest virtual orbital energies printed in each symmetry.

 Number of electrons :   10
 Orbital occupations :    3    1    1    0

 Sym       Hartree-Fock orbital energies

  1    -26.31092599    -1.60755426    -0.77129630     0.03590280     0.19463499
         0.25667995     0.36108951     0.66177607

  2     -0.65076264     0.24395223     0.40302579     1.43194942     1.67075063
         2.16191992

  3     -0.65076264     0.24395223     0.40302579     1.43194942     1.67075063
         2.16191992

  4      1.34625219     4.85230887

    E(LUMO) :     0.03590280 au (symmetry 1)
  - E(HOMO) :    -0.65076264 au (symmetry 3)
  ------------------------------------------
    gap     :     0.68666544 au

 >>> Writing SIRIFC interface file <<<

 >>>> CPU and wall time for SCF :       0.010       0.010


                       .-----------------------------------.
                       | >>> Final results from SIRIUS <<< |
                       `-----------------------------------'


@    Spin multiplicity:           1
@    Spatial symmetry:            1
@    Total charge of molecule:    0

 The molecule is placed in a static field.
 Field strength (a.u.)          Field operator
 ---------------------          --------------
    2.00000000E-05                  ZZTHETA 


@    Final HF energy:            -100.033445237701                 
@    Nuclear repulsion:             5.193668373495
@    Electronic energy:          -105.227113611196

@    Final gradient norm:           0.000000000175

 
     Date and time (Linux)  : Sun Sep  8 20:42:20 2013
     Host name              : lpqlx131.ups-tlse.fr                    

 (Only coefficients >0.0100 are printed.)

 Molecular orbitals for symmetry species  1
 ------------------------------------------

    Orbital         1        2        3        4        5
   1 H   :1s    -0.0019  -0.3428   0.6961  -0.0703  -0.0712
   2 H   :1s    -0.0047   0.2720  -0.3548  -0.6762   3.2084
   3 H   :1s    -0.0002   0.0017   0.0003  -1.3376   1.0736
   4 H   :2pz    0.0000   0.0501  -0.0688  -0.0094  -0.0527
   5 H   :2pz    0.0023  -0.0267   0.0237   0.1727  -1.2905
   6 F   :1s    -1.0006   0.0009   0.0006   0.0038   0.0218
   7 F   :1s    -0.0026  -0.9494  -0.2241   0.1107   0.1625
   8 F   :1s     0.0046   0.0708  -0.1362   0.0357  -0.2465
   9 F   :1s     0.0041  -0.0970  -0.0013   1.1391  -4.0946
  10 F   :2pz   -0.0016  -0.0902   0.8128   0.0985   0.3145
  11 F   :2pz    0.0024   0.0547  -0.1063   0.0694  -0.0993
  12 F   :2pz    0.0012  -0.0291   0.0468   0.2699  -1.8447
  13 F   :3d0    0.0000  -0.0087   0.0189   0.0006   0.0044
  15 F   :3d0    0.0004   0.0192  -0.0179   0.0071  -0.0354

 Molecular orbitals for symmetry species  2
 ------------------------------------------

    Orbital         1        2        3
   1 H   :2px    0.0250   0.0145   0.0029
   2 H   :2px    0.0134  -0.2203  -1.6943
   3 F   :2px    0.9603  -0.2543   0.1165
   4 F   :2px    0.0064  -0.2144   0.2156
   5 F   :2px    0.0543   1.2790   1.0593
   6 F   :3d1+   0.0091  -0.0081  -0.0220
   7 F   :3d1+   0.0158   0.0174   0.0485

 Molecular orbitals for symmetry species  3
 ------------------------------------------

    Orbital         1        2        3
   1 H   :2py    0.0250   0.0145   0.0029
   2 H   :2py    0.0134  -0.2203  -1.6943
   3 F   :2py    0.9603  -0.2543   0.1165
   4 F   :2py    0.0064  -0.2144   0.2156
   5 F   :2py    0.0543   1.2790   1.0593
   6 F   :3d1-   0.0091  -0.0081  -0.0220
   7 F   :3d1-   0.0158   0.0174   0.0485

 Molecular orbitals for symmetry species  4
 ------------------------------------------

    Orbital         1        2
   1 F   :3d2-  -0.0267   1.1698
   2 F   :3d2-   1.0136  -0.5845



 >>>> Total CPU  time used in SIRIUS :      0.01 seconds
 >>>> Total wall time used in SIRIUS :      0.01 seconds

 
     Date and time (Linux)  : Sun Sep  8 20:42:20 2013
     Host name              : lpqlx131.ups-tlse.fr                    


                     .---------------------------------------.
                     | End of Wave Function Section (SIRIUS) |
                     `---------------------------------------'



                    .------------------------------------------.
                    | Starting in Coupled Cluster Section (CC) |
                    `------------------------------------------'

  

 *******************************************************************************
 *******************************************************************************
 *                                                                             *
 *                                                                             *
 *                    START OF COUPLED CLUSTER CALCULATION                     *
 *                                                                             *
 *                                                                             *
 *******************************************************************************
 *******************************************************************************


 LWORK =        64000000



          Time needed to pack integrals:       0.00 seconds
          Threshold used for packing:      0.10E-13
          Reduction obtained by packing:      34.10 %


 CCR12 ANSATZ =   0

 CCR12 APPROX =   0

   

 *******************************************************************
 *                                                                 *
 *<<<<<<<<<<                                             >>>>>>>>>>*
 *<<<<<<<<<< OUTPUT FROM COUPLED CLUSTER ENERGY PROGRAM  >>>>>>>>>>*
 *<<<<<<<<<<                                             >>>>>>>>>>*
 *                                                                 *
 *******************************************************************


             The Direct Coupled Cluster Energy Program
             -----------------------------------------


          Number of t1 amplitudes                 :        38
          Number of t2 amplitudes                 :      1633
          Total number of amplitudes in ccsd      :      1671



                        +---------------------------------+
                        ! Largest amplitudes in MP2 guess !
                        +---------------------------------+



          CC_PRAM:Overall Contribution of the Different Components
          --------------------------------------------------------



          Single Excitation Contribution :               0.0000 %

          Double Excitation Contribution :             100.0000 %

          ||T1||/||T2||                  :               0.0000

          Norm of Total Amplitude Vector :               0.1461


 +=============================================================================+
 | symmetry|  orbital index  |   Excitation Numbers             |   Amplitude  |
 |  Index  |   a   b   i   j |      NAI      NBJ |     NAIBJ    |              |
 +=============================================================================+
 +-----------------------------------------------------------------------------+
 | 1 1 1 1 |   6   6   2   2 |       19       19 |          190 |   -0.021784  |
 | 1 1 1 1 |   8   8   2   2 |       21       21 |          231 |   -0.017374  |
 | 2 2 2 2 |   4   1   1   1 |       30       27 |          462 |   -0.017631  |
 | 2 2 2 2 |   4   4   1   1 |       30       30 |          465 |   -0.034358  |
 | 3 2 3 2 |   4   4   1   1 |       36       30 |          660 |   -0.026672  |
 | 3 3 3 3 |   4   1   1   1 |       36       33 |          663 |   -0.017631  |
 | 3 3 3 3 |   4   4   1   1 |       36       36 |          666 |   -0.034358  |
 +=============================================================================+


          Norm of Printed Amplitude Vector :             0.0669

          Printed all single excitations greater than 0.010000

          Printed all double excitations greater than 0.016667
 Iter.  1: Coupled cluster MP2   energy :    -100.2557162769456625
     Conventional correlation energy:    -0.2222710392443616

       Iteration no.:  1
       -----------------

       Time used in   RHS - TOTAL  :       0.02 seconds
       Norm^2 of t1am   after ccvec:        0.0000000000D+00
       Norm^2 of t2am   after ccvec:        0.2133769502D-01
       Norm^2 of omega1 after ccvec:        0.1418540075D-02
       Norm^2 of omega2 after ccvec:        0.5095279990D-02
 Iter.  1: Coupled cluster CCSD  energy :    -100.2545590154076933
     Conventional correlation energy:    -0.2211137777063925

       Iteration no.:  2
       -----------------

       Time used in   RHS - TOTAL  :       0.01 seconds
       Norm^2 of t1am   after ccvec:        0.9802293265D-03
       Norm^2 of t2am   after ccvec:        0.2201907389D-01
       Norm^2 of omega1 after ccvec:        0.5251242609D-04
       Norm^2 of omega2 after ccvec:        0.7200794851D-03
 Iter.  2: Coupled cluster CCSD  energy :    -100.2584205728282853
     Conventional correlation energy:    -0.2249753351269845

       Iteration no.:  3
       -----------------

       Time used in   RHS - TOTAL  :       0.01 seconds
       Norm^2 of t1am   after ccvec:        0.8902100518D-03
       Norm^2 of t2am   after ccvec:        0.2359630326D-01
       Norm^2 of omega1 after ccvec:        0.1668017316D-04
       Norm^2 of omega2 after ccvec:        0.6216985262D-04
 Iter.  3: Coupled cluster CCSD  energy :    -100.2595409932517043
     Conventional correlation energy:    -0.2260957555504035

       Iteration no.:  4
       -----------------

       Time used in   RHS - TOTAL  :       0.01 seconds
       Norm^2 of t1am   after ccvec:        0.1193718874D-02
       Norm^2 of t2am   after ccvec:        0.2428394069D-01
       Norm^2 of omega1 after ccvec:        0.2299260592D-06
       Norm^2 of omega2 after ccvec:        0.2193659729D-05
 Iter.  4: Coupled cluster CCSD  energy :    -100.2594413770880521
     Conventional correlation energy:    -0.2259961393867513

       Iteration no.:  5
       -----------------

       Time used in   RHS - TOTAL  :       0.01 seconds
       Norm^2 of t1am   after ccvec:        0.1232096070D-02
       Norm^2 of t2am   after ccvec:        0.2431111836D-01
       Norm^2 of omega1 after ccvec:        0.2122799986D-07
       Norm^2 of omega2 after ccvec:        0.1567742712D-06
 Iter.  5: Coupled cluster CCSD  energy :    -100.2594230419377794
     Conventional correlation energy:    -0.2259778042364786

       Iteration no.:  6
       -----------------

       Time used in   RHS - TOTAL  :       0.01 seconds
       Norm^2 of t1am   after ccvec:        0.1237098616D-02
       Norm^2 of t2am   after ccvec:        0.2430578082D-01
       Norm^2 of omega1 after ccvec:        0.1728251212D-08
       Norm^2 of omega2 after ccvec:        0.6006329829D-08
 Iter.  6: Coupled cluster CCSD  energy :    -100.2594260654764327
     Conventional correlation energy:    -0.2259808277751318

       Iteration no.:  7
       -----------------

       Time used in   RHS - TOTAL  :       0.01 seconds
       Norm^2 of t1am   after ccvec:        0.1239484510D-02
       Norm^2 of t2am   after ccvec:        0.2430658947D-01
       Norm^2 of omega1 after ccvec:        0.1242852832D-09
       Norm^2 of omega2 after ccvec:        0.7469065650D-09
 Iter.  7: Coupled cluster CCSD  energy :    -100.2594253567960294
     Conventional correlation energy:    -0.2259801190947286

       Iteration no.:  8
       -----------------

       Time used in   RHS - TOTAL  :       0.01 seconds
       Norm^2 of t1am   after ccvec:        0.1239825953D-02
       Norm^2 of t2am   after ccvec:        0.2430579086D-01
       Norm^2 of omega1 after ccvec:        0.8151617612D-11
       Norm^2 of omega2 after ccvec:        0.4058800622D-10
 Iter.  8: Coupled cluster CCSD  energy :    -100.2594249839147125
     Conventional correlation energy:    -0.2259797462134117

       Iteration no.:  9
       -----------------

       Time used in   RHS - TOTAL  :       0.01 seconds
       Norm^2 of t1am   after ccvec:        0.1239859134D-02
       Norm^2 of t2am   after ccvec:        0.2430552674D-01
       Norm^2 of omega1 after ccvec:        0.5084455361D-12
       Norm^2 of omega2 after ccvec:        0.3629740813D-11
 Iter.  9: Coupled cluster CCSD  energy :    -100.2594249844072181
     Conventional correlation energy:    -0.2259797467059173

 CCSD  energy converged to within   0.50D-09 is         -100.259424984407
 Final 2-norm of the CC vector function:  2.03425327D-06


                    +------------------------------------------+
                    ! Largest amplitudes in converged solution !
                    +------------------------------------------+



          CC_PRAM:Overall Contribution of the Different Components
          --------------------------------------------------------



          Single Excitation Contribution :               4.8536 %

          Double Excitation Contribution :              95.1464 %

          ||T1||/||T2||                  :               0.2259

          Tau1 diagnostic                :               0.0124

          Norm of Total Amplitude Vector :               0.1598


 +=============================================================================+
 | symmetry|  orbital index  |   Excitation Numbers             |   Amplitude  |
 |  Index  |   a   b   i   j |      NAI      NBJ |     NAIBJ    |              |
 +=============================================================================+
 | 2   2   |   1       1     |       27          |              |    0.019455  |
 | 3   3   |   1       1     |       33          |              |    0.019455  |
 +-----------------------------------------------------------------------------+
 | 1 1 1 1 |   2   2   2   2 |       15       15 |          120 |   -0.017989  |
 | 1 1 1 1 |   5   2   2   2 |       18       15 |          168 |    0.016778  |
 | 1 1 1 1 |   5   5   2   2 |       18       18 |          171 |   -0.018170  |
 | 1 1 1 1 |   6   6   2   2 |       19       19 |          190 |   -0.024575  |
 | 1 1 1 1 |   8   8   2   2 |       21       21 |          231 |   -0.017455  |
 | 2 2 2 2 |   1   1   1   1 |       27       27 |          378 |   -0.016401  |
 | 2 2 2 2 |   4   1   1   1 |       30       27 |          462 |   -0.019397  |
 | 2 2 2 2 |   4   4   1   1 |       30       30 |          465 |   -0.035993  |
 | 3 2 3 2 |   4   4   1   1 |       36       30 |          660 |   -0.025318  |
 | 3 3 3 3 |   1   1   1   1 |       33       33 |          561 |   -0.016401  |
 | 3 3 3 3 |   4   1   1   1 |       36       33 |          663 |   -0.019397  |
 | 3 3 3 3 |   4   4   1   1 |       36       36 |          666 |   -0.035993  |
 +=============================================================================+


          Norm of Printed Amplitude Vector :             0.0844

          Printed all single excitations greater than 0.018359

          Printed all double excitations greater than 0.016257





             +-------------------------------------------------------+
             ! Final results from the Coupled Cluster energy program !
             +-------------------------------------------------------+



            Total SCF   energy:                  -100.0334452377

            Total MP2   energy:                  -100.2557162769

            Total CCSD  energy:                  -100.2594249844

 *******************************************************************

 Ground state energy is target 

 Ecorr =                   -100.25942498440721806219

 *******************************************************************


 CCR12 ANSATZ =   0

 CCR12 APPROX =   0

   

 *******************************************************************
 *                                                                 *
 *<<<<<<<<<<                                             >>>>>>>>>>*
 *<<<<<<<<<< OUTPUT FROM COUPLED CLUSTER ENERGY PROGRAM  >>>>>>>>>>*
 *<<<<<<<<<<                                             >>>>>>>>>>*
 *                                                                 *
 *******************************************************************


             The Direct Coupled Cluster Energy Program
             -----------------------------------------


          Number of t1 amplitudes                 :        38
          Number of t2 amplitudes                 :      1633
          Total number of amplitudes in ccsd      :      1671

 Iter.  1: Coupled cluster RSTAR energy :    -100.2594249844072181
     Conventional correlation energy:    -0.2259797467059173

       Iteration no.:  1
       -----------------

       Time used in   RHS - TOTAL  :       0.02 seconds
       Norm^2 of t1am   after ccvec:        0.1239872642D-02
       Norm^2 of t2am   after ccvec:        0.2430552133D-01
       Norm^2 of omega1 after ccvec:        0.1051552635D-12
       Norm^2 of omega2 after ccvec:        0.4722677119D-12
 Iter.  1: Coupled cluster CCSD  energy :    -100.2594249866170912
     Conventional correlation energy:    -0.2259797489157904

       Iteration no.:  2
       -----------------

       Time used in   RHS - TOTAL  :       0.02 seconds
       Norm^2 of t1am   after ccvec:        0.1239877131D-02
       Norm^2 of t2am   after ccvec:        0.2430551720D-01
       Norm^2 of omega1 after ccvec:        0.2656215143D-13
       Norm^2 of omega2 after ccvec:        0.8184832171D-13
 Iter.  2: Coupled cluster CCSD  energy :    -100.2594249882016015
     Conventional correlation energy:    -0.2259797505003007

       Iteration no.:  3
       -----------------

       Time used in   RHS - TOTAL  :       0.02 seconds
       Norm^2 of t1am   after ccvec:        0.1239880111D-02
       Norm^2 of t2am   after ccvec:        0.2430551445D-01
       Norm^2 of omega1 after ccvec:        0.3946724596D-14
       Norm^2 of omega2 after ccvec:        0.1606383043D-13
 Iter.  3: Coupled cluster CCSD  energy :    -100.2594249889615980
     Conventional correlation energy:    -0.2259797512602972

       Iteration no.:  4
       -----------------

       Time used in   RHS - TOTAL  :       0.01 seconds
       Norm^2 of t1am   after ccvec:        0.1239881875D-02
       Norm^2 of t2am   after ccvec:        0.2430551265D-01
       Norm^2 of omega1 after ccvec:        0.6662786070D-16
       Norm^2 of omega2 after ccvec:        0.5945295311D-15
 Iter.  4: Coupled cluster CCSD  energy :    -100.2594249886858790
     Conventional correlation energy:    -0.2259797509845782

 CCSD  energy converged to within   0.50D-09 is         -100.259424988686
 Final 2-norm of the CC vector function:  2.57129810D-08


                    +------------------------------------------+
                    ! Largest amplitudes in converged solution !
                    +------------------------------------------+



          CC_PRAM:Overall Contribution of the Different Components
          --------------------------------------------------------



          Single Excitation Contribution :               4.8536 %

          Double Excitation Contribution :              95.1464 %

          ||T1||/||T2||                  :               0.2259

          Tau1 diagnostic                :               0.0124

          Norm of Total Amplitude Vector :               0.1598


 +=============================================================================+
 | symmetry|  orbital index  |   Excitation Numbers             |   Amplitude  |
 |  Index  |   a   b   i   j |      NAI      NBJ |     NAIBJ    |              |
 +=============================================================================+
 | 2   2   |   1       1     |       27          |              |    0.019455  |
 | 3   3   |   1       1     |       33          |              |    0.019455  |
 +-----------------------------------------------------------------------------+
 | 1 1 1 1 |   2   2   2   2 |       15       15 |          120 |   -0.017989  |
 | 1 1 1 1 |   5   2   2   2 |       18       15 |          168 |    0.016778  |
 | 1 1 1 1 |   5   5   2   2 |       18       18 |          171 |   -0.018170  |
 | 1 1 1 1 |   6   6   2   2 |       19       19 |          190 |   -0.024575  |
 | 1 1 1 1 |   8   8   2   2 |       21       21 |          231 |   -0.017455  |
 | 2 2 2 2 |   1   1   1   1 |       27       27 |          378 |   -0.016401  |
 | 2 2 2 2 |   4   1   1   1 |       30       27 |          462 |   -0.019397  |
 | 2 2 2 2 |   4   4   1   1 |       30       30 |          465 |   -0.035993  |
 | 3 2 3 2 |   4   4   1   1 |       36       30 |          660 |   -0.025318  |
 | 3 3 3 3 |   1   1   1   1 |       33       33 |          561 |   -0.016401  |
 | 3 3 3 3 |   4   1   1   1 |       36       33 |          663 |   -0.019397  |
 | 3 3 3 3 |   4   4   1   1 |       36       36 |          666 |   -0.035993  |
 +=============================================================================+


          Norm of Printed Amplitude Vector :             0.0844

          Printed all single excitations greater than 0.018359

          Printed all double excitations greater than 0.016257


                           +---------------------------+
                           ! Time estimate for Triples !
                           +---------------------------+


                     Time for the first d :       0.00
                     Total time estimate  :       0.05
                     Total memory usage(w):      10715
       Time used in   RHS - TOTAL  :       0.06 seconds





             +-------------------------------------------------------+
             ! Final results from the Coupled Cluster energy program !
             +-------------------------------------------------------+



            Total SCF   energy:                  -100.0334452377

            Total RSTAR energy:                  -100.2594249844

            Total CCSD  energy:                  -100.2594249887


                     Perturbative triples corrections
                     --------------------------------

            The E4 doubles and triples:            -0.0047249654
            The E5 singles and triples:             0.0005856481

            Total energy CCSD(T):                -100.2635643060

 *******************************************************************

 Ground state energy is target 

 Ecorr =                   -100.26356430599614100174

 *******************************************************************
  

 *******************************************************************************
 *******************************************************************************
 *                                                                             *
 *                                                                             *
 *                   SUMMARY OF COUPLED CLUSTER CALCULATION                    *
 *                                                                             *
 *                                                                             *
 *******************************************************************************
 *******************************************************************************

                                                                                
                                                                                
            Total SCF   energy:                  -100.0334452377                
            Total MP2   energy:                  -100.2557162769                
            Total CCSD  energy:                  -100.2594249844                
                                                                                
                                                                                
            Total SCF   energy:                  -100.0334452377                
            Total RSTAR energy:                  -100.2594249844                
            Total CCSD  energy:                  -100.2594249887                
                                                                                
                                                                                
                     Perturbative triples corrections                           
                     --------------------------------                           
                                                                                
            The E4 doubles and triples:            -0.0047249654                
            The E5 singles and triples:             0.0005856481                
                                                                                
            Total energy CCSD(T):                -100.2635643060                


          Threshold used for packing of integrals:0.10E-13
          Time used for packing and unpacking:        0.05 seconds
  

 *******************************************************************************
 *******************************************************************************
 *                                                                             *
 *                                                                             *
 *                      END OF COUPLED CLUSTER CALCULATION                     *
 *                                                                             *
 *                                                                             *
 *******************************************************************************
 *******************************************************************************


 >>>> CPU and wall time for CC :       0.279       0.286

 
     Date and time (Linux)  : Sun Sep  8 20:42:20 2013
     Host name              : lpqlx131.ups-tlse.fr                    


                      .-------------------------------------.
                      | End of Coupled Cluster Section (CC) |
                      `-------------------------------------'

 >>>> Total CPU  time used in DALTON:   0.33 seconds
 >>>> Total wall time used in DALTON:   0.34 seconds

 
     Date and time (Linux)  : Sun Sep  8 20:42:20 2013
     Host name              : lpqlx131.ups-tlse.fr                    
