

     ************************************************************************
     *************** Dalton - An Electronic Structure Program ***************
     ************************************************************************

    This is output from DALTON (Release Dalton2013 patch 0)
   ----------------------------------------------------------------------------
    NOTE:
     
    Dalton is an experimental code for the evaluation of molecular
    properties using (MC)SCF, DFT, CI, and CC wave functions.
    The authors accept no responsibility for the performance of
    the code or for the correctness of the results.
     
    The code (in whole or part) is provided under a licence and
    is not to be reproduced for further distribution without
    the written permission of the authors or their representatives.
     
    See the home page "http://daltonprogram.org" for further information.
     
    If results obtained with this code are published,
    the appropriate citations would be both of:
     
       K. Aidas, C. Angeli, K. L. Bak, V. Bakken, R. Bast,
       L. Boman, O. Christiansen, R. Cimiraglia, S. Coriani,
       P. Dahle, E. K. Dalskov, U. Ekstroem, T. Enevoldsen,
       J. J. Eriksen, P. Ettenhuber, B. Fernandez, L. Ferrighi,
       H. Fliegl, L. Frediani, K. Hald, A. Halkier, C. Haettig,
       H. Heiberg, T. Helgaker, A. C. Hennum, H. Hettema,
       E. Hjertenaes, S. Hoest, I.-M. Hoeyvik, M. F. Iozzi,
       B. Jansik, H. J. Aa. Jensen, D. Jonsson, P. Joergensen,
       J. Kauczor, S. Kirpekar, T. Kjaergaard, W. Klopper,
       S. Knecht, R. Kobayashi, H. Koch, J. Kongsted, A. Krapp,
       K. Kristensen, A. Ligabue, O. B. Lutnaes, J. I. Melo,
       K. V. Mikkelsen, R. H. Myhre, C. Neiss, C. B. Nielsen,
       P. Norman, J. Olsen, J. M. H. Olsen, A. Osted,
       M. J. Packer, F. Pawlowski, T. B. Pedersen, P. F. Provasi,
       S. Reine, Z. Rinkevicius, T. A. Ruden, K. Ruud, V. Rybkin,
       P. Salek, C. C. M. Samson, A. Sanchez de Meras, T. Saue,
       S. P. A. Sauer, B. Schimmelpfennig, K. Sneskov,
       A. H. Steindal, K. O. Sylvester-Hvid, P. R. Taylor,
       A. M. Teale, E. I. Tellgren, D. P. Tew, A. J. Thorvaldsen,
       L. Thoegersen, O. Vahtras, M. A. Watson, D. J. D. Wilson,
       M. Ziolkowski and H. Agren.
       The Dalton quantum chemistry program system.
       WIREs Comput. Mol. Sci. 2013. doi: 10.1002/wcms.1172
    
    and
    
       Dalton, a Molecular Electronic Structure Program,
       Release DALTON2013.0 (2013), see http://daltonprogram.org
   ----------------------------------------------------------------------------

    Authors in alphabetical order (major contribution(s) in parenthesis):

  Kestutis Aidas,           Vilnius University,           Lithuania   (QM/MM)
  Celestino Angeli,         University of Ferrara,        Italy       (NEVPT2)
  Keld L. Bak,              UNI-C,                        Denmark     (AOSOPPA, non-adiabatic coupling, magnetic properties)
  Vebjoern Bakken,          University of Oslo,           Norway      (DALTON; geometry optimizer, symmetry detection)
  Radovan Bast,             KTH Stockholm                 Sweden      (DALTON installation and execution frameworks)
  Linus Boman,              NTNU,                         Norway      (Cholesky decomposition and subsystems)
  Ove Christiansen,         Aarhus University,            Denmark     (CC module)
  Renzo Cimiraglia,         University of Ferrara,        Italy       (NEVPT2)
  Sonia Coriani,            University of Trieste,        Italy       (CC module, MCD in RESPONS)
  Paal Dahle,               University of Oslo,           Norway      (Parallelization)
  Erik K. Dalskov,          UNI-C,                        Denmark     (SOPPA)
  Thomas Enevoldsen,        Univ. of Southern Denmark,    Denmark     (SOPPA)
  Janus J. Eriksen,         Aarhus University,            Denmark     (PE-MP2/SOPPA, TDA)
  Berta Fernandez,          U. of Santiago de Compostela, Spain       (doublet spin, ESR in RESPONS)
  Lara Ferrighi,            Aarhus University,            Denmark     (PCM Cubic response)
  Heike Fliegl,             University of Oslo,           Norway      (CCSD(R12))
  Luca Frediani,            UiT The Arctic U. of Norway,  Norway      (PCM)
  Bin Gao,                  UiT The Arctic U. of Norway,  Norway      (Gen1Int library)
  Christof Haettig,         Ruhr-University Bochum,       Germany     (CC module)
  Kasper Hald,              Aarhus University,            Denmark     (CC module)
  Asger Halkier,            Aarhus University,            Denmark     (CC module)
  Hanne Heiberg,            University of Oslo,           Norway      (geometry analysis, selected one-electron integrals)
  Trygve Helgaker,          University of Oslo,           Norway      (DALTON; ABACUS, ERI, DFT modules, London, and much more)
  Alf Christian Hennum,     University of Oslo,           Norway      (Parity violation)
  Hinne Hettema,            University of Auckland,       New Zealand (quadratic response in RESPONS; SIRIUS supersymmetry)
  Eirik Hjertenaes,         NTNU,                         Norway      (Cholesky decomposition)
  Maria Francesca Iozzi,    University of Oslo,           Norway      (RPA)
  Brano Jansik              Technical Univ. of Ostrava    Czech Rep.  (DFT cubic response)
  Hans Joergen Aa. Jensen,  Univ. of Southern Denmark,    Denmark     (DALTON; SIRIUS, RESPONS, ABACUS modules, London, and much more)
  Dan Jonsson,              UiT The Arctic U. of Norway,  Norway      (cubic response in RESPONS module)
  Poul Joergensen,          Aarhus University,            Denmark     (RESPONS, ABACUS, and CC modules)
  Joanna Kauczor,           Linkoeping University,        Sweden      (Complex polarization propagator (CPP) module)
  Sheela Kirpekar,          Univ. of Southern Denmark,    Denmark     (Mass-velocity & Darwin integrals)
  Wim Klopper,              KIT Karlsruhe,                Germany     (R12 code in CC, SIRIUS, and ABACUS modules)
  Stefan Knecht,            ETH Zurich,                   Switzerland (Parallel CI and MCSCF)
  Rika Kobayashi,           Australian National Univ.,    Australia   (DIIS in CC, London in MCSCF)
  Henrik Koch,              NTNU,                         Norway      (CC module, Cholesky decomposition)
  Jacob Kongsted,           Univ. of Southern Denmark,    Denmark     (Polarizable embedding, QM/MM)
  Andrea Ligabue,           University of Modena,         Italy       (CTOCD, AOSOPPA)
  Ola B. Lutnaes,           University of Oslo,           Norway      (DFT Hessian)
  Juan I. Melo,             University of Buenos Aires,   Argentina   (LRESC, Relativistic Effects on NMR Shieldings)
  Kurt V. Mikkelsen,        University of Copenhagen,     Denmark     (MC-SCRF and QM/MM)
  Rolf H. Myhre,            NTNU,                         Norway      (Cholesky, subsystems and ECC2)
  Christian Neiss,          Univ. Erlangen-Nuernberg,     Germany     (CCSD(R12))
  Christian B. Nielsen,     University of Copenhagen,     Denmark     (QM/MM)
  Patrick Norman,           Linkoeping University,        Sweden      (Cubic response and complex response in RESPONS)
  Jeppe Olsen,              Aarhus University,            Denmark     (SIRIUS CI/density modules)
  Jogvan Magnus H. Olsen,   Univ. of Southern Denmark,    Denmark     (Polarizable embedding, PE library, QM/MM)
  Anders Osted,             Copenhagen University,        Denmark     (QM/MM)
  Martin J. Packer,         University of Sheffield,      UK          (SOPPA)
  Filip Pawlowski,          Kazimierz Wielki University   Poland      (CC3)
  Thomas B. Pedersen,       University of Oslo,           Norway      (Cholesky decomposition)
  Patricio F. Provasi,      University of Northeastern,   Argentina   (Analysis of coupling constants in localized orbitals)
  Zilvinas Rinkevicius,     KTH Stockholm,                Sweden      (open-shell DFT, ESR)
  Elias Rudberg,            KTH Stockholm,                Sweden      (DFT grid and basis info)
  Torgeir A. Ruden,         University of Oslo,           Norway      (Numerical derivatives in ABACUS)
  Kenneth Ruud,             UiT The Arctic U. of Norway,  Norway      (DALTON; ABACUS magnetic properties and  much more)
  Pawel Salek,              KTH Stockholm,                Sweden      (DALTON; DFT code)
  Claire C. M. Samson       University of Karlsruhe       Germany     (Boys localization, r12 integrals in ERI)
  Alfredo Sanchez de Meras, University of Valencia,       Spain       (CC module, Cholesky decomposition)
  Trond Saue,               Paul Sabatier University,     France      (direct Fock matrix construction)
  Stephan P. A. Sauer,      University of Copenhagen,     Denmark     (SOPPA(CCSD), SOPPA prop., AOSOPPA, vibrational g-factors)
  Bernd Schimmelpfennig,    Forschungszentrum Karlsruhe,  Germany     (AMFI module)
  Kristian Sneskov,         Aarhus University,            Denmark     (QM/MM, PE-CC)
  Arnfinn H. Steindal,      UiT The Arctic U. of Norway,  Norway      (parallel QM/MM)
  K. O. Sylvester-Hvid,     University of Copenhagen,     Denmark     (MC-SCRF)
  Peter R. Taylor,          VLSCI/Univ. of Melbourne,     Australia   (Symmetry handling ABACUS, integral transformation)
  Andrew M. Teale,          University of Nottingham,     England     (DFT-AC, DFT-D)
  David P. Tew,             University of Bristol,        England     (CCSD(R12))
  Olav Vahtras,             KTH Stockholm,                Sweden      (triplet response, spin-orbit, ESR, TDDFT, open-shell DFT)
  David J. Wilson,          La Trobe University,          Australia   (DFT Hessian and DFT magnetizabilities)
  Hans Agren,               KTH Stockholm,                Sweden      (SIRIUS module, RESPONS, MC-SCRF solvation model)
 --------------------------------------------------------------------------------

     Date and time (Linux)  : Sun Sep  8 20:42:18 2013
     Host name              : lpqlx131.ups-tlse.fr                    

 * Work memory size             :    64000000 =  488.28 megabytes.

 * Directories for basis set searches:
   1) /home/bast/DALTON-2013.0-Source/build/test_cc_exgr_prop
   2) /home/bast/DALTON-2013.0-Source/build/basis


Compilation information
-----------------------

 Who compiled             | bast
 Host                     | lpqlx131.ups-tlse.fr
 System                   | Linux-3.8.5-201.fc18.x86_64
 CMake generator          | Unix Makefiles
 Processor                | x86_64
 64-bit integers          | OFF
 MPI                      | OFF
 Fortran compiler         | /usr/bin/gfortran
 Fortran compiler version | GNU Fortran (GCC) 4.7.2 20121109 (Red Hat 4.7.2-8)
 C compiler               | /usr/bin/gcc
 C compiler version       | gcc (GCC) 4.7.2 20121109 (Red Hat 4.7.2-8)
 C++ compiler             | /usr/bin/g++
 C++ compiler version     | g++ (GCC) 4.7.2 20121109 (Red Hat 4.7.2-8)
 Static linking           | OFF
 Last Git revision        | f34203295a86316e27f9e7b44f9b6769c4a046c0
 Configuration time       | 2013-09-08 20:31:27.952056


   Content of the .dal input file
 ----------------------------------

**DALTON INPUT                                    
.RUN WAVE FUNCTIONS                               
**INTEGRALS                                       
.DIPLEN                                           
.SECMOM                                           
**WAVE FUNCTIONS                                  
.CC                                               
*SCF INPUT                                        
.THRESH                                           
7.0D-9                                            
*CC INP                                           
.NSYM                                             
 1                                                
.CCS                                              
.CC2                                              
.CCSD                                             
.THRENR                                           
 1.0D-11                                          
.THRLEQ                                           
 1.0D-07                                          
.NSIMLE                                           
 5                                                
.PRINT                                            
 6                                                
*CCEXCI                                           
.NCCEXCI                                          
 1                                                
.THREXC                                           
 1.0D-05                                          
*CCFOP                                            
.NONREL                                           
.DIPMOM                                           
.SECMOM                                           
*CCEXGR                                           
.DIPOLE                                           
.SECMOM                                           
*CCLRSD                                           
.DIPOLE                                           
**END OF DALTON INPUT                             


   Content of the .mol file
 ----------------------------

BASIS                                                                          
STO-3G                                                                         
Properties of excited state                                                    
H2O in minimal basis                                                           
    2    0  X  Y      1.00D-15                                                 
        8.0   1    2    2    1                                                 
O     0.0000000000000000  0.0000000000000000 -0.1359422200000000       *       
        1.0   2    1    1                                                      
H     0.0000000000000000  1.447614500000000   1.07875057000000         *       
H     0.0000000000000000  -1.44761450000000   1.07875057000000         *       


       *******************************************************************
       *********** Output from DALTON general input processing ***********
       *******************************************************************

 --------------------------------------------------------------------------------
   Overall default print level:    0
   Print level for DALTON.STAT:    1

    HERMIT 1- and 2-electron integral sections will be executed
    "Old" integral transformation used (limited to max 255 basis functions)
    Wave function sections will be executed (SIRIUS module)
 --------------------------------------------------------------------------------


   ****************************************************************************
   *************** Output of molecule and basis set information ***************
   ****************************************************************************


    The two title cards from your ".mol" input:
    ------------------------------------------------------------------------
 1: Properties of excited state                                             
 2: H2O in minimal basis                                                    
    ------------------------------------------------------------------------

  Atomic type no.    1
  --------------------
  Nuclear charge:   8.00000
  Number of symmetry independent centers:    1
  Number of basis sets to read;    2
  Basis set file used for this atomic type with Z =   8 :
     "/home/bast/DALTON-2013.0-Source/build/basis/STO-3G"

  Atomic type no.    2
  --------------------
  Nuclear charge:   1.00000
  Number of symmetry independent centers:    2
  Number of basis sets to read;    2
  Basis set file used for this atomic type with Z =   1 :
     "/home/bast/DALTON-2013.0-Source/build/basis/STO-3G"


                         SYMGRP: Point group information
                         -------------------------------

Point group: C1 


                                 Isotopic Masses
                                 ---------------

                           O          15.994915
                           H           1.007825
                           H           1.007825

                       Total mass:    18.010565 amu
                       Natural abundance:  99.730 %

 Center-of-mass coordinates (a.u.):    0.000000    0.000000   -0.000000


  Atoms and basis sets
  --------------------

  Number of atom types :    2
  Total number of atoms:    3

  Basis set used is "STO-3G" from the basis set library.

  label    atoms   charge   prim   cont     basis
  ----------------------------------------------------------------------
  O           1    8.0000    15     5      [6s3p|2s1p]                                        
  H           2    1.0000     3     1      [3s|1s]                                            
  ----------------------------------------------------------------------
  total:      3   10.0000    21     7
  ----------------------------------------------------------------------

  Threshold for neglecting AO integrals:  1.00D-15


  Cartesian Coordinates (a.u.)
  ----------------------------

  Total number of coordinates:    9
  O       :     1  x   0.0000000000    2  y   0.0000000000    3  z  -0.1359422200
  H       :     4  x   0.0000000000    5  y   1.4476145000    6  z   1.0787505700
  H       :     7  x   0.0000000000    8  y  -1.4476145000    9  z   1.0787505700


   Interatomic separations (in Angstrom):
   --------------------------------------

            O           H           H     
            ------      ------      ------
 O     :    0.000000
 H     :    1.000000    0.000000
 H     :    1.000000    1.532089    0.000000


  Max    interatomic separation is    1.5321 Angstrom (    2.8952 Bohr)
  between atoms    3 and    2, "H     " and "H     ".

  Min HX interatomic separation is    1.0000 Angstrom (    1.8897 Bohr)


  Bond distances (Angstrom):
  --------------------------

                  atom 1     atom 2       distance
                  ------     ------       --------
  bond distance:  H          O            1.000000
  bond distance:  H          O            1.000000


  Bond angles (degrees):
  ----------------------

                  atom 1     atom 2     atom 3         angle
                  ------     ------     ------         -----
  bond angle:     H          O          H            100.000




 Principal moments of inertia (u*A**2) and principal axes
 --------------------------------------------------------

   IA       0.739614          0.000000    1.000000    0.000000
   IB       1.182832          0.000000    0.000000    1.000000
   IC       1.922446          1.000000    0.000000    0.000000


 Rotational constants
 --------------------

 The molecule is planar.

               A                   B                   C

         683301.3858         427261.6951         262883.3187 MHz
           22.792481           14.251916            8.768844 cm-1


@  Nuclear repulsion energy :    8.812229431637 Hartree


                     .---------------------------------------.
                     | Starting in Integral Section (HERMIT) |
                     `---------------------------------------'



    *************************************************************************
    ****************** Output from HERMIT input processing ******************
    *************************************************************************


 Default print level:        1

 * Nuclear model: Point charge

 Calculation of one- and two-electron Hamiltonian integrals.

 The following one-electron property integrals are calculated as requested:
          - overlap integrals
          - dipole length integrals
          - second moment integrals

 Center of mass  (bohr):      0.000000000000      0.000000000000     -0.000000037056
 Operator center (bohr):      0.000000000000      0.000000000000      0.000000000000
 Gauge origin    (bohr):      0.000000000000      0.000000000000      0.000000000000
 Dipole origin   (bohr):      0.000000000000      0.000000000000      0.000000000000


     ************************************************************************
     ************************** Output from HERINT **************************
     ************************************************************************


 Threshold for neglecting two-electron integrals:  1.00D-15
 Number of two-electron integrals written:         228 ( 56.2% )
 Megabytes written:                              0.007

 >>>> Total CPU  time used in HERMIT:   0.01 seconds
 >>>> Total wall time used in HERMIT:   0.00 seconds


                        .----------------------------------.
                        | End of Integral Section (HERMIT) |
                        `----------------------------------'



                   .--------------------------------------------.
                   | Starting in Wave Function Section (SIRIUS) |
                   `--------------------------------------------'

 NCCEXCI for singlet:           1

 *** Output from Huckel module :

     Using EWMO model:          T
     Using EHT  model:          F
     Number of Huckel orbitals each symmetry:    7

 EWMO - Energy Weighted Maximum Overlap - is a Huckel type method,
        which normally is better than Extended Huckel Theory.
 Reference: Linderberg and Ohrn, Propagators in Quantum Chemistry (Wiley, 1973)

 Huckel EWMO eigenvalues for symmetry :  1
          -20.684333      -1.586965      -0.767437      -0.697494      -0.616200
           -0.245058      -0.182413

 **********************************************************************
 *SIRIUS* a direct, restricted step, second order MCSCF program       *
 **********************************************************************

 
     Date and time (Linux)  : Sun Sep  8 20:42:18 2013
     Host name              : lpqlx131.ups-tlse.fr                    

 Title lines from ".mol" input file:
     Properties of excited state                                             
     H2O in minimal basis                                                    

 Print level on unit LUPRI =   2 is   0
 Print level on unit LUW4  =   2 is   5

@    (Integral direct) CC calculation.

@    This is a combination run starting with
@              a restricted, closed shell Hartree-Fock calculation


 Initial molecular orbitals are obtained according to
 ".MOSTART EWMO  " input option

     Wave function specification
     ============================

     For the specification of the Coupled Cluster: see later.

@    For the wave function of type :      >>> CC <<<
@    Number of closed shell electrons          10
@    Number of electrons in active shells       0
@    Total charge of the molecule               0

@    Spin multiplicity and 2 M_S                1         0
     Total number of symmetries                 1
@    Reference state symmetry                   1

     Orbital specifications
     ======================
     Abelian symmetry species          All |    1
                                       --- |  ---
@    Occupied SCF orbitals               5 |    5
     Secondary orbitals                  2 |    2
     Total number of orbitals            7 |    7
     Number of basis functions           7 |    7

     Optimization information
     ========================
@    Number of configurations                 1
@    Number of orbital rotations             10
     ------------------------------------------
@    Total number of variables               11

     Maximum number of Fock   iterations      0
     Maximum number of DIIS   iterations     60
     Maximum number of QC-SCF iterations     60
     Threshold for SCF convergence     7.00D-09


 Changes of defaults for CC:
 ---------------------------

 -Excitation energies calculated
 -One-photon absorption strengths will be calculated
 -Oscillator strengths calculated
 -Excited state properties calculated
 -Dipole moment calculated
 -Electronic second moment of charge calculated
  


 >>>>> DIIS optimization of Hartree-Fock <<<<<

 C1-DIIS algorithm; max error vectors =   10

 Iter      Total energy        Error norm    Delta(E)  DIIS dim.
 -----------------------------------------------------------------------------
     (Precalculated two-electron integrals are transformed to P-supermatrix elements.
      Threshold for discarding integrals :  1.00D-15 )
@  1    -74.9072227630        7.77451D-01   -7.49D+01    1
      Virial theorem: -V/T =      2.004295
@      MULPOP O      -0.46; H       0.23; H       0.23; 
 -----------------------------------------------------------------------------
@  2    -74.9626427304        1.80042D-01   -5.54D-02    2
      Virial theorem: -V/T =      2.007741
@      MULPOP O      -0.30; H       0.15; H       0.15; 
 -----------------------------------------------------------------------------
@  3    -74.9655974776        2.36787D-02   -2.95D-03    3
      Virial theorem: -V/T =      2.006348
@      MULPOP O      -0.32; H       0.16; H       0.16; 
 -----------------------------------------------------------------------------
@  4    -74.9656564799        1.68648D-03   -5.90D-05    4
      Virial theorem: -V/T =      2.006301
@      MULPOP O      -0.32; H       0.16; H       0.16; 
 -----------------------------------------------------------------------------
@  5    -74.9656569076        6.46801D-04   -4.28D-07    5
      Virial theorem: -V/T =      2.006291
@      MULPOP O      -0.32; H       0.16; H       0.16; 
 -----------------------------------------------------------------------------
@  6    -74.9656569916        8.65031D-06   -8.40D-08    6
      Virial theorem: -V/T =      2.006295
@      MULPOP O      -0.32; H       0.16; H       0.16; 
 -----------------------------------------------------------------------------
@  7    -74.9656569916        2.31097D-08   -1.22D-11    7
      Virial theorem: -V/T =      2.006295
@      MULPOP O      -0.32; H       0.16; H       0.16; 
 -----------------------------------------------------------------------------
@  8    -74.9656569916        3.53567D-09    0.00D+00    8

@ *** DIIS converged in   8 iterations !
@     Converged SCF energy, gradient:    -74.965656991615    3.54D-09
    - total time used in SIRFCK :              0.00 seconds


 *** SCF orbital energy analysis ***

 Only the five lowest virtual orbital energies printed in each symmetry.

 Number of electrons :   10
 Orbital occupations :    5

 Sym       Hartree-Fock orbital energies

  1    -20.25303289    -1.25259360    -0.58857667    -0.45847718    -0.39216304
         0.57186561     0.68077571

    E(LUMO) :     0.57186561 au (symmetry 1)
  - E(HOMO) :    -0.39216304 au (symmetry 1)
  ------------------------------------------
    gap     :     0.96402865 au

 >>> Writing SIRIFC interface file <<<

 >>>> CPU and wall time for SCF :       0.003       0.002


                       .-----------------------------------.
                       | >>> Final results from SIRIUS <<< |
                       `-----------------------------------'


@    Spin multiplicity:           1
@    Spatial symmetry:            1
@    Total charge of molecule:    0

@    Final HF energy:             -74.965656991615                 
@    Nuclear repulsion:             8.812229431637
@    Electronic energy:           -83.777886423252

@    Final gradient norm:           0.000000003536

 
     Date and time (Linux)  : Sun Sep  8 20:42:18 2013
     Host name              : lpqlx131.ups-tlse.fr                    

 (Only coefficients >0.0100 are printed.)

 Molecular orbitals for symmetry species  1
 ------------------------------------------

    Orbital         1        2        3        4        5        6        7
   1 O   :1s    -0.9942   0.2342  -0.0000   0.1033  -0.0000   0.1243   0.0000
   2 O   :1s    -0.0256  -0.8485   0.0000  -0.5339   0.0000  -0.8032  -0.0000
   3 O   :2px    0.0000   0.0000  -0.0000   0.0000   1.0000  -0.0000   0.0000
   4 O   :2py    0.0000   0.0000  -0.6127  -0.0000  -0.0000  -0.0000   0.9543
   5 O   :2pz   -0.0041  -0.1192  -0.0000   0.7537  -0.0000  -0.7628  -0.0000
   6 H   :1s     0.0055  -0.1547  -0.4497   0.2991  -0.0000   0.7621  -0.8060
   7 H   :1s     0.0055  -0.1547   0.4497   0.2991  -0.0000   0.7621   0.8060



 >>>> Total CPU  time used in SIRIUS :      0.01 seconds
 >>>> Total wall time used in SIRIUS :      0.00 seconds

 
     Date and time (Linux)  : Sun Sep  8 20:42:18 2013
     Host name              : lpqlx131.ups-tlse.fr                    


                     .---------------------------------------.
                     | End of Wave Function Section (SIRIUS) |
                     `---------------------------------------'



                    .------------------------------------------.
                    | Starting in Coupled Cluster Section (CC) |
                    `------------------------------------------'

  

 *******************************************************************************
 *******************************************************************************
 *                                                                             *
 *                                                                             *
 *                    START OF COUPLED CLUSTER CALCULATION                     *
 *                                                                             *
 *                                                                             *
 *******************************************************************************
 *******************************************************************************


 LWORK =        64000000



 CCR12 ANSATZ =   0

 CCR12 APPROX =   0

   

 *******************************************************************
 *                                                                 *
 *<<<<<<<<<<                                             >>>>>>>>>>*
 *<<<<<<<<<< OUTPUT FROM COUPLED CLUSTER ENERGY PROGRAM  >>>>>>>>>>*
 *<<<<<<<<<<                                             >>>>>>>>>>*
 *                                                                 *
 *******************************************************************


             The Direct Coupled Cluster Energy Program
             -----------------------------------------


          Number of t1 amplitudes                 :        10
          Number of t2 amplitudes                 :        55
          Total number of amplitudes in ccsd      :        65



          CCS CALC. - NO WAVEFUNCTION OPTIMIZATION
   

 *******************************************************************
 *                                                                 *
 *<<<<<<<<<<<<< OUTPUT FROM COUPLED CLUSTER RESPONSE  >>>>>>>>>>>>>*
 *                                                                 *
 *<<<<<<<<<<    CALCULATION OF FIRST ORDER PROPERTIES    >>>>>>>>>>*
 *                                                                 *
 *******************************************************************



                         +-------------------------------+
                         ! Coupled Cluster model is: CCS !
                         +-------------------------------+

  


             +--------------------------------------------------------+
             ! Unrelaxed  CCS    First-order one-electron properties: !
             +--------------------------------------------------------+



                            +-------------------------+
                            !  Electric Dipole Moment !
                            +-------------------------+



                      Nuclear contribution to dipole moments
                      --------------------------------------

                 au               Debye          C m (/(10**-30)

      x      0.00000000         0.00000000         0.00000000
      y      0.00000000         0.00000000         0.00000000
      z      1.06996338         2.71957547         9.07152731




                     Electronic contribution to dipole moment
                     ----------------------------------------

                 au               Debye          C m (/(10**-30)

      x      0.00000000         0.00000000         0.00000000
      y     -0.00000000        -0.00000000        -0.00000000
      z     -0.40335116        -1.02521633        -3.41975356


 Electronic dipole moment (au):  0.7523277072E-18 -0.2886579864E-14 -0.4033511613    




                          Total Molecular Dipole Moment
                          -----------------------------

                 au               Debye          C m (/(10**-30)

      x      0.00000000         0.00000000         0.00000000
      y     -0.00000000        -0.00000000        -0.00000000
      z      0.66661222         1.69435915         5.65177375




                      +-------------------------------------+
                      !  Electronic second moment of charge !
                      +-------------------------------------+

                    X              Y              Z

               Column   1     Column   2     Column   3
       1       4.56086700    -0.00000000    -0.00000000
       2      -0.00000000     7.52381947     0.00000000
       3      -0.00000000     0.00000000     6.29770834
    ==== End of matrix output ====

 Alfa**2 Invariant:                         37.545827
 Beta**2 Invariant:                          6.649527

 Isotropic Property:                         6.127465 a.u.
 Property anisotropy invariant:              2.578668 a.u.
   

 *******************************************************************
 *                                                                 *
 *<<<<<<<<<< OUTPUT FROM COUPLED CLUSTER LINEAR RESPONSE >>>>>>>>>>*
 *                                                                 *
 *<<<<<<<<<<     CALCULATION OF EXCITATION ENERGIES      >>>>>>>>>>*
 *                                                                 *
 *******************************************************************



                            +--------------------------+
                            !  CCS Excitation Energies !
                            +--------------------------+


 --------------------------
 Symmetry class Nr.:     1
 Multiplicity      :     1
 --------------------------

 Length of Excitation vectors in this class is:        10
 Converging for  1 roots.
  >> output from FNDMN3 <<
  LOWEST VALUE AND PLACE   0.96402864711537983                9
  HIGHST VALUE AND PLACE    20.933808597325118                2
IELMNT XMIN IMIN NDEG        1    9.64029D-01       9   1
IELMNT XMIN IMIN NDEG        2    1.03034D+00       7   1
IELMNT XMIN IMIN NDEG        3    1.07294D+00      10   1
IELMNT XMIN IMIN NDEG        4    1.13925D+00       8   1
IELMNT XMIN IMIN NDEG        5    1.16044D+00       5   1
  NUMBER OF ELEMENTS OBTAINED IN FNDMN3            4
  FROM FNDMN3 : 
    PLACES OF LOWEST ELEMENTS 
     1 :      9      7     10      8
  MIN AND MAX IN SELECTED SUPSPACE   0.96402864711537983        1.1392528848924135     
 Start vector guessed from diagonal
 ... selected element no.  9
 CCEQ_SOL: IPRLE   =               6
 CCEQ_SOL: TRIPLET =     F
 CCEQ_SOL: LINQCC  =     F
 CCEQ_SOL: NREDH   =               1
 CCEQ_SOL: MAXRED  =             200
 CCEQ_SOL: MAXLE   =              40
 CCEQ_SOL: ISIDE   =               1
 CCEQ_SOL: ISTRVE  =               1
 CCEQ_SOL: NVEC    =               1
 CCEQ_SOL: NUPVEC  =               1
 CCEQ_SOL: NCCVAR  =              10



 >>>>> COUPLED CLUSTER RESPONSE SOLVER <<<<<

    Iter  #Vectors  time (min)   residual
    --------------------------------------
  >>> Call CC_TRDRV with TRIPLET and ECURR set to: F   0.4940656458412465     


                               +--------------------+
                               !  START OF CC_TRDRV !
                               +--------------------+

  Workspace input:     63919393
  Triplet flag   :  F

 CC_TRDRV: The total number of trial vectors is:    1
 CC_TRDRV: Transforming vector nr.:   1


 Time used in     CC_RHTR in total   :       0.00 seconds
 Time used in   CC part              :       0.00 seconds
 Time used in   Int. calc. & read    :       0.00 seconds
 Time used in   IO of vectors/I.M.   :       0.00 seconds
  
  CCRED  
  ISIDE             1
  LREDS   F
  NREDH             1
  ISTRVE            1
  NUPVEC            1
  NVEC              1
  LWRK       63919393

 REDUCED EIGENVALUES real part:

               Column   1
       1       0.44864954
    ==== End of matrix output ====
  
 ROOT:  1 RESIDUAL TOT: 6.70256D-16
 ROOT:  1 HAS CONVERGED. RESIDUAL TOT: 6.70256D-16
      1       1         0.00     0.67E-15

 Lowest eigenvalues in this iteration: 

               Column   1
       1       0.44864954
    ==== End of matrix output ====
 Dimension of the reduced space:     1
 >>> TIME USED IN THIS MICRO ITERATION        0.00

    --------------------------------------
    converged in  1 iterations
    threshold:    0.10E-04


         Routine          Time (min)
         ---------------------------
         CC_TRDRV            0.00
         CCRED               0.00
         CCNEX               0.00
         ---------------------------
         Total time          0.00


 >>>> Total CPU  time used in CCEQ_SOLV:   0.00 seconds
 >>>> Total wall time used in CCEQ_SOLV:   0.00 seconds


 >>>>>>>>>>>>>>>>>>>>> <<<<<<<<<<<<<<<<<<<<<



  Final eigenvalues :
 =====================
 (convergence threshold:  1.00D-05)

    1   0.4486495369


 SYMMETRY CLASS NR.    1
 MULTIPLICITY          1


 CCS        right excitation energies:
 ====================================
 (conversion factor used: 1 au = 27.2113957 eV)

 Excitation no.       Hartree               eV 
 --------------       -------               --
         1            0.4486495369       12.2083749240


 Total excited state energies for states of symmetry/spin    1    1
 Excitation no.       Energy (Hartree) 
 ------------------------------------- 
@@    1    1           -74.517007454723682


 Analysis of the Coupled Cluster Excitation Vector Number :  1
 -------------------------------------------------------------

          Excitation Energy :                            12.2084 eV

          Norm of Total Amplitude Vector :               1.0000


 +=============================================================================+
 | symmetry|  orbital index  |   Excitation Numbers             |   Amplitude  |
 |  Index  |   a   b   i   j |      NAI      NBJ |     NAIBJ    |              |
 +=============================================================================+
 | 1   1   |   1       5     |        9          |              |    1.000000  |
 +=============================================================================+


          Norm of Printed Amplitude Vector :             1.0000

          Printed all single excitations greater than 0.083333

 --------------------------
 Symmetry class Nr.:     1
 Multiplicity      :     3
 --------------------------

 Length of Excitation vectors in this class is:        10
 No Excitation Energies calculated in this symmetry class
   

 *******************************************************************
 *                                                                 *
 *<<<<<<<<<< OUTPUT FROM COUPLED CLUSTER LINEAR RESPONSE >>>>>>>>>>*
 *                                                                 *
 *<<<<<<<<<<     CALCULATION OF EXCITATION ENERGIES      >>>>>>>>>>*
 *                                                                 *
 *******************************************************************



                            +--------------------------+
                            !  CCS Excitation Energies !
                            +--------------------------+


 --------------------------
 Symmetry class Nr.:     1
 Multiplicity      :     1
 --------------------------

 Length of Excitation vectors in this class is:        10
 Converging for  1 roots.
  >> output from FNDMN3 <<
  LOWEST VALUE AND PLACE   0.96402864711537983                9
  HIGHST VALUE AND PLACE    20.933808597325118                2
IELMNT XMIN IMIN NDEG        1    9.64029D-01       9   1
IELMNT XMIN IMIN NDEG        2    1.03034D+00       7   1
IELMNT XMIN IMIN NDEG        3    1.07294D+00      10   1
IELMNT XMIN IMIN NDEG        4    1.13925D+00       8   1
IELMNT XMIN IMIN NDEG        5    1.16044D+00       5   1
  NUMBER OF ELEMENTS OBTAINED IN FNDMN3            4
  FROM FNDMN3 : 
    PLACES OF LOWEST ELEMENTS 
     1 :      9      7     10      8
  MIN AND MAX IN SELECTED SUPSPACE   0.96402864711537983        1.1392528848924135     
Try to use right eigenvector as start for a left eigenvector.
 Vector nr.  1 of symmetry  1 found on file - RESTART SUCCESS
 Start vector is a  CCS       RE vector
 CCEQ_SOL: IPRLE   =               6
 CCEQ_SOL: TRIPLET =     F
 CCEQ_SOL: LINQCC  =     F
 CCEQ_SOL: NREDH   =               1
 CCEQ_SOL: MAXRED  =             200
 CCEQ_SOL: MAXLE   =              40
 CCEQ_SOL: ISIDE   =              -1
 CCEQ_SOL: ISTRVE  =               1
 CCEQ_SOL: NVEC    =               1
 CCEQ_SOL: NUPVEC  =               1
 CCEQ_SOL: NCCVAR  =              10



 >>>>> COUPLED CLUSTER RESPONSE SOLVER <<<<<

    Iter  #Vectors  time (min)   residual
    --------------------------------------
  >>> Call CC_TRDRV with TRIPLET and ECURR set to: F   0.4940656458412465     


                               +--------------------+
                               !  START OF CC_TRDRV !
                               +--------------------+

  Workspace input:     63919393
  Triplet flag   :  F

 CC_TRDRV: The total number of trial vectors is:    1
 CC_TRDRV: Transforming vector nr.:   1


 Time used in     CC_RHTR in total   :       0.00 seconds
 Time used in   CC part              :       0.00 seconds
 Time used in   Int. calc. & read    :       0.00 seconds
 Time used in   IO of vectors/I.M.   :       0.00 seconds
  
  CCRED  
  ISIDE            -1
  LREDS   F
  NREDH             1
  ISTRVE            1
  NUPVEC            1
  NVEC              1
  LWRK       63919393

 REDUCED EIGENVALUES real part:

               Column   1
       1       0.44864954
    ==== End of matrix output ====
  
 ROOT:  1 RESIDUAL TOT: 6.70256D-16
 ROOT:  1 HAS CONVERGED. RESIDUAL TOT: 6.70256D-16
      1       1         0.00     0.67E-15

 Lowest eigenvalues in this iteration: 

               Column   1
       1       0.44864954
    ==== End of matrix output ====
 Dimension of the reduced space:     1
 >>> TIME USED IN THIS MICRO ITERATION        0.00

    --------------------------------------
    converged in  1 iterations
    threshold:    0.10E-04


         Routine          Time (min)
         ---------------------------
         CC_TRDRV            0.00
         CCRED               0.00
         CCNEX               0.00
         ---------------------------
         Total time          0.00


 >>>> Total CPU  time used in CCEQ_SOLV:   0.00 seconds
 >>>> Total wall time used in CCEQ_SOLV:   0.00 seconds


 >>>>>>>>>>>>>>>>>>>>> <<<<<<<<<<<<<<<<<<<<<



  Final eigenvalues :
 =====================
 (convergence threshold:  1.00D-05)

    1   0.4486495369


 SYMMETRY CLASS NR.    1
 MULTIPLICITY          1


 CCS        left excitation energies:
 ====================================
 (conversion factor used: 1 au = 27.2113957 eV)

 Excitation no.       Hartree               eV 
 --------------       -------               --
         1            0.4486495369       12.2083749240


 Total excited state energies for states of symmetry/spin    1    1
 Excitation no.       Energy (Hartree) 
 ------------------------------------- 
@@    1    1           -74.517007454723682


 Analysis of the Coupled Cluster Excitation Vector Number :  1
 -------------------------------------------------------------

          Excitation Energy :                            12.2084 eV

          Norm of Total Amplitude Vector :               1.0000


 +=============================================================================+
 | symmetry|  orbital index  |   Excitation Numbers             |   Amplitude  |
 |  Index  |   a   b   i   j |      NAI      NBJ |     NAIBJ    |              |
 +=============================================================================+
 | 1   1   |   1       5     |        9          |              |    1.000000  |
 +=============================================================================+


          Norm of Printed Amplitude Vector :             1.0000

          Printed all single excitations greater than 0.083333



+======================================================================+
| contributions of excitation levels to right eigenvectors as computed |
| from the (RE|RE) self overlap                                        |
+----------------------------------------------------------------------+
| sym | multi | state |    E / eV  | % singles | % doubles | % triples |
+======================================================================+
|    1|   1   |   1   |   12.20837 | 100.0000  |   0.0000  |   0.0000  |
+======================================================================+





+======================================================================+
| contributions of excitation levels to excited states as computed     |
| from the (LE|RE) overlap                                             |
+----------------------------------------------------------------------+
| sym | multi | state |    E / eV  | % singles | % doubles | % triples |
+======================================================================+
|    1|   1   |   1   |   12.20837 | 100.0000  |   0.0000  |   0.0000  |
+======================================================================+



 --------------------------
 Symmetry class Nr.:     1
 Multiplicity      :     3
 --------------------------

 Length of Excitation vectors in this class is:        10
 No Excitation Energies calculated in this symmetry class

 *******************************************************************

 Ground state energy is target 

 Ecorr =                    -74.96565699161509144233

 *******************************************************************
     

   *******************************************************************
   *                                                                 *
   *<<<<<<<<   OUTPUT FROM PROPERTY AND SYMMETRY ANALYSIS   >>>>>>>>>*
   *                                                                 *
   *******************************************************************



                         +-------------------------------+
                         ! REQUESTED PROPERTY OPERATORS: !
                         +-------------------------------+

             Index   Oper. Label  Symmetry  Transp.  PDBS  Atom
             --------------------------------------------------
                1     HAM0            1        1      T      0
                2     XDIPLEN         1        1      F      0
                3     XXSECMOM        1        1      F      0
                4     XYSECMOM        1        1      F      0
                5     XZSECMOM        1        1      F      0
                6     YDIPLEN         1        1      F      0
                7     YYSECMOM        1        1      F      0
                8     YZSECMOM        1        1      F      0
                9     ZDIPLEN         1        1      F      0
               10     ZZSECMOM        1        1      F      0
             --------------------------------------------------




                         +-------------------------------+
                         ! REQUESTED EXPECTATION VALUES: !
                         +-------------------------------+

                       Index   Oper. Label  Symmetry
                       -----------------------------
                       -----------------------------




                       +------------------------------------+
                       ! REQUESTED EFFECTIVE FOCK MATRICES: !
                       +------------------------------------+

                       Index   Oper. Label  Symmetry
                       -----------------------------
                       -----------------------------




                        +----------------------------------+
                        ! REQUESTED FIRST ORDER M-VECTORS: !
                        +----------------------------------+

               Index   State Symmetry  Frequency
               --------------------------------------------------
                  1             1    1     4.486495D-01
               --------------------------------------------------



 LIST OF REQUIRED ZEROTH-ORDER E0 MULTIP.:
    1          1    1     4.486495D-01
      

    *******************************************************************
    *          SOLVING COUPLED CLUSTER RESPONSE EQUATIONS             *
    *******************************************************************



 
 +======================================================================+
 !                     RHS & ETA VECTORS TO COMPUTE:                    !
 +======================================================================+
 | TYPE | # VEC. |  NEEDED FOR:                                         |
 +----------------------------------------------------------------------+
 |  BE  |    1   |  zeroth-order excited-state Lagrange multiplier      |
 +======================================================================+



 +======================================================================+
 !                       LINEAR EQUATIONS TO SOLVE:                     !
 +======================================================================+
 | TYPE | # VEC. |  EQUATION:                                           |
 +----------------------------------------------------------------------+
 |  M1  |    1   |  first-order ground - excited state multipliers      |
 |  E0  |    1   |  zeroth-order excited-state Lagrange multiplier      |
 +======================================================================+



 +======================================================================+
 !                F MATRIX TRANSFORMATIONS TO COMPUTE:                  !
 +======================================================================+
 | TYPE | # VEC. |  TRANSFORMED:                                        |
 +----------------------------------------------------------------------+
 |  FR  |    1   |  right eigenvectors (RE)                             |
 +======================================================================+





 List R1  is empty.


 List F1  is empty.


 List L1  is empty.


 List PL1 is empty.


 +==================================================+
 |        F MATRIX TRANSFORMATION SECTION           |
 |          (result is written to file)             |
 +--------------------------------------------------+
 | time for zero order intermediat.:      0.00 secs.|
 | time for  1 sets of left interm.:      0.00 secs.|
 | time for  1 sets of right inter.:      0.00 secs.|
 | time for  1 sets of 2. ord. int.:      0.00 secs.|
 | intermediates calculated in   1 batches          |
 +--------------------------------------------------+
 | L vector | R vector |    result    |             |
 | L0   No. |  RE  No. |   FR   No.   |  time/secs  |
 +--------------------------------------------------+
 |     0    |     1    |      1       |       0.00  |
 +--------------------------------------------------+
 | total time for   1 F transforms.:      0.00 secs.|
 +==================================================+




 Testing FR  list with  1 elements on it:
 List Nr.  State     Symmetry     Eigenvalue      T1-norm        T2-norm
     1        1       1         0.4486495369   0.0055604366   0.0000000000




 Solving   1 response equations:
 M1 :
 RPA: call cceq_str

 Finding gradient for M1
 Frequency   0.448650 and state   1 and symmetry   1
     M1  start vector nr.  1 of symmetry  1 generated from gradient
 RPA: exit cceq_str
 CCEQ_SOL: IPRLE   =               6
 CCEQ_SOL: TRIPLET =     F
 CCEQ_SOL: LINQCC  =     T
 CCEQ_SOL: NREDH   =               1
 CCEQ_SOL: MAXRED  =             200
 CCEQ_SOL: MAXLE   =              40
 CCEQ_SOL: ISIDE   =              -1
 CCEQ_SOL: ISTRVE  =               1
 CCEQ_SOL: NVEC    =               1
 CCEQ_SOL: NUPVEC  =               1
 CCEQ_SOL: NCCVAR  =              10



 >>>>> COUPLED CLUSTER RESPONSE SOLVER <<<<<

    Iter  #Vectors  time (min)   residual
    --------------------------------------
  >>> Call CC_TRDRV with TRIPLET and ECURR set to: F   0.9246061491018023     


                               +--------------------+
                               !  START OF CC_TRDRV !
                               +--------------------+

  Workspace input:     63919399
  Triplet flag   :  F

 CC_TRDRV: The total number of trial vectors is:    1
 CC_TRDRV: Transforming vector nr.:   1


 Time used in     CC_RHTR in total   :       0.00 seconds
 Time used in   CC part              :       0.00 seconds
 Time used in   Int. calc. & read    :       0.00 seconds
 Time used in   IO of vectors/I.M.   :       0.00 seconds
  
  CCRED  
  ISIDE            -1
  LREDS   F
  NREDH             1
  ISTRVE            1
  NUPVEC            1
  NVEC              1
  LWRK       63919399

 Finding gradient for M1
 Frequency   0.448650 and state   1 and symmetry   1

 Finding gradient for M1
 Frequency   0.448650 and state   1 and symmetry   1
  
 ROOT:  1 RESIDUAL TOT: 1.15566D-15
 ROOT:  1 HAS CONVERGED. RESIDUAL TOT: 1.15566D-15
      1       1         0.00     0.12E-14
 Dimension of the reduced space:     1
 >>> TIME USED IN THIS MICRO ITERATION        0.00

    --------------------------------------
    converged in  1 iterations
    threshold:    0.10E-06


         Routine          Time (min)
         ---------------------------
         CC_TRDRV            0.00
         CCRED               0.00
         CCNEX               0.00
         ---------------------------
         Total time          0.00


 >>>> Total CPU  time used in CCEQ_SOLV:   0.00 seconds
 >>>> Total wall time used in CCEQ_SOLV:   0.00 seconds


 >>>>>>>>>>>>>>>>>>>>> <<<<<<<<<<<<<<<<<<<<<



 Analysis of CC Response/Cauchy vector:
 --------------------------------------

          Norm of Total Amplitude Vector :               0.0831


 +=============================================================================+
 | symmetry|  orbital index  |   Excitation Numbers             |   Amplitude  |
 |  Index  |   a   b   i   j |      NAI      NBJ |     NAIBJ    |              |
 +=============================================================================+
 | 1   1   |   1       5     |        9          |              |   -0.083103  |
 +=============================================================================+


          Norm of Printed Amplitude Vector :             0.0831

          Printed all single excitations greater than 0.016667
            Norm of singles part:        0.8310310068E-01


 Testing M1  list with  1 elements on it:
 List Nr.  State     Symmetry     Eigenvalue      T1-norm        T2-norm
     1        1       1         0.4486495369   0.0069061253   0.0000000000





 +==================================================+
 |        F MATRIX TRANSFORMATION SECTION           |
 |          (result is written to file)             |
 +--------------------------------------------------+
 | time for zero order intermediat.:      0.00 secs.|
 | time for  1 sets of left interm.:      0.00 secs.|
 | time for  1 sets of right inter.:      0.00 secs.|
 | time for  1 sets of 2. ord. int.:      0.00 secs.|
 | intermediates calculated in   1 batches          |
 +--------------------------------------------------+
 | L vector | R vector |    result    |             |
 | LE   No. |  RE  No. |   BE   No.   |  time/secs  |
 +--------------------------------------------------+
 |     1    |     1    |      1       |       0.00  |
 +--------------------------------------------------+
 | total time for   1 F transforms.:      0.00 secs.|
 +==================================================+




 Testing BE  list with  1 elements on it:
 List Nr.  State     Symmetry     Eigenvalue      T1-norm        T2-norm
     1        1       1         0.4486495369   0.0670383958   0.0000000000




 Solving   1 response equations:
 E0 :
 RPA: call cceq_str

 Finding gradient for E0
 Frequency   0.000000 and state   1 and symmetry   1
     E0  start vector nr.  1 of symmetry  1 generated from gradient
 RPA: exit cceq_str
 CCEQ_SOL: IPRLE   =               6
 CCEQ_SOL: TRIPLET =     F
 CCEQ_SOL: LINQCC  =     T
 CCEQ_SOL: NREDH   =               1
 CCEQ_SOL: MAXRED  =             200
 CCEQ_SOL: MAXLE   =              40
 CCEQ_SOL: ISIDE   =              -1
 CCEQ_SOL: ISTRVE  =               1
 CCEQ_SOL: NVEC    =               1
 CCEQ_SOL: NUPVEC  =               1
 CCEQ_SOL: NCCVAR  =              10



 >>>>> COUPLED CLUSTER RESPONSE SOLVER <<<<<

    Iter  #Vectors  time (min)   residual
    --------------------------------------
  >>> Call CC_TRDRV with TRIPLET and ECURR set to: F   0.9246061491018023     


                               +--------------------+
                               !  START OF CC_TRDRV !
                               +--------------------+

  Workspace input:     63919399
  Triplet flag   :  F

 CC_TRDRV: The total number of trial vectors is:    1
 CC_TRDRV: Transforming vector nr.:   1


 Time used in     CC_RHTR in total   :       0.00 seconds
 Time used in   CC part              :       0.00 seconds
 Time used in   Int. calc. & read    :       0.00 seconds
 Time used in   IO of vectors/I.M.   :       0.00 seconds
  
  CCRED  
  ISIDE            -1
  LREDS   F
  NREDH             1
  ISTRVE            1
  NUPVEC            1
  NVEC              1
  LWRK       63919399

 Finding gradient for E0
 Frequency   0.000000 and state   1 and symmetry   1

 Finding gradient for E0
 Frequency   0.000000 and state   1 and symmetry   1
  
 ROOT:  1 RESIDUAL TOT: 5.40576D-02
      1       1         0.00     0.54E-01
 Dimension of the reduced space:     2
 >>> TIME USED IN THIS MICRO ITERATION        0.00

  >>> Call CC_TRDRV with TRIPLET and ECURR set to: F   0.9246061491018023     


                               +--------------------+
                               !  START OF CC_TRDRV !
                               +--------------------+

  Workspace input:     63919399
  Triplet flag   :  F

 CC_TRDRV: The total number of trial vectors is:    1
 CC_TRDRV: Transforming vector nr.:   2


 Time used in     CC_RHTR in total   :       0.00 seconds
 Time used in   CC part              :       0.00 seconds
 Time used in   Int. calc. & read    :       0.00 seconds
 Time used in   IO of vectors/I.M.   :       0.00 seconds
  
  CCRED  
  ISIDE            -1
  LREDS   F
  NREDH             2
  ISTRVE            1
  NUPVEC            1
  NVEC              1
  LWRK       63919399

 Finding gradient for E0
 Frequency   0.000000 and state   1 and symmetry   1

 Finding gradient for E0
 Frequency   0.000000 and state   1 and symmetry   1
  
 ROOT:  1 RESIDUAL TOT: 1.29414D-02
      2       1         0.00     0.13E-01
 Dimension of the reduced space:     3
 >>> TIME USED IN THIS MICRO ITERATION        0.00

  >>> Call CC_TRDRV with TRIPLET and ECURR set to: F   0.9246061491018023     


                               +--------------------+
                               !  START OF CC_TRDRV !
                               +--------------------+

  Workspace input:     63919399
  Triplet flag   :  F

 CC_TRDRV: The total number of trial vectors is:    1
 CC_TRDRV: Transforming vector nr.:   3


 Time used in     CC_RHTR in total   :       0.00 seconds
 Time used in   CC part              :       0.00 seconds
 Time used in   Int. calc. & read    :       0.00 seconds
 Time used in   IO of vectors/I.M.   :       0.00 seconds
  
  CCRED  
  ISIDE            -1
  LREDS   F
  NREDH             3
  ISTRVE            1
  NUPVEC            1
  NVEC              1
  LWRK       63919399

 Finding gradient for E0
 Frequency   0.000000 and state   1 and symmetry   1

 Finding gradient for E0
 Frequency   0.000000 and state   1 and symmetry   1
  
 ROOT:  1 RESIDUAL TOT: 3.33378D-03
      3       1         0.00     0.33E-02
 Dimension of the reduced space:     4
 >>> TIME USED IN THIS MICRO ITERATION        0.00

  >>> Call CC_TRDRV with TRIPLET and ECURR set to: F   0.9246061491018023     


                               +--------------------+
                               !  START OF CC_TRDRV !
                               +--------------------+

  Workspace input:     63919399
  Triplet flag   :  F

 CC_TRDRV: The total number of trial vectors is:    1
 CC_TRDRV: Transforming vector nr.:   4


 Time used in     CC_RHTR in total   :       0.00 seconds
 Time used in   CC part              :       0.00 seconds
 Time used in   Int. calc. & read    :       0.00 seconds
 Time used in   IO of vectors/I.M.   :       0.00 seconds
  
  CCRED  
  ISIDE            -1
  LREDS   F
  NREDH             4
  ISTRVE            1
  NUPVEC            1
  NVEC              1
  LWRK       63919399

 Finding gradient for E0
 Frequency   0.000000 and state   1 and symmetry   1

 Finding gradient for E0
 Frequency   0.000000 and state   1 and symmetry   1
  
 ROOT:  1 RESIDUAL TOT: 1.05941D-16
 ROOT:  1 HAS CONVERGED. RESIDUAL TOT: 1.05941D-16
      4       1         0.00     0.11E-15
 Dimension of the reduced space:     4
 >>> TIME USED IN THIS MICRO ITERATION        0.00

    --------------------------------------
    converged in  4 iterations
    threshold:    0.10E-06


         Routine          Time (min)
         ---------------------------
         CC_TRDRV            0.00
         CCRED               0.00
         CCNEX               0.00
         ---------------------------
         Total time          0.00


 >>>> Total CPU  time used in CCEQ_SOLV:   0.00 seconds
 >>>> Total wall time used in CCEQ_SOLV:   0.00 seconds


 >>>>>>>>>>>>>>>>>>>>> <<<<<<<<<<<<<<<<<<<<<



 Analysis of CC Response/Cauchy vector:
 --------------------------------------

          Norm of Total Amplitude Vector :               0.2346


 +=============================================================================+
 | symmetry|  orbital index  |   Excitation Numbers             |   Amplitude  |
 |  Index  |   a   b   i   j |      NAI      NBJ |     NAIBJ    |              |
 +=============================================================================+
 | 1   1   |   2       3     |        6          |              |   -0.210157  |
 +=============================================================================+


          Norm of Printed Amplitude Vector :             0.2102

          Printed all single excitations greater than 0.083333
            Norm of singles part:        0.2345716435E+00


 Testing E0  list with  1 elements on it:
 List Nr.  State     Symmetry     Eigenvalue      T1-norm        T2-norm
     1        1       1         0.4486495369   0.0550238559   0.0000000000





 List BR  is empty.


 List N2  is empty.


 List RC  is empty.


 List LC  is empty.


 List O2  is empty.


 List R2  is empty.


 List CR2 is empty.


 List CO2 is empty.


 List L2  is empty.


 List CL2 is empty.


 List ER1 is empty.


 List EL1 is empty.

 Solution of CC response equations completed.

   

 *******************************************************************
 *                                                                 *
 *<<<<<<<<<<<<< OUTPUT FROM COUPLED CLUSTER RESPONSE  >>>>>>>>>>>>>*
 *                                                                 *
 *<<<<<  CALCULATION OF EXCITED STATE FIRST ORDER PROPERTIES >>>>>>*
 *                                                                 *
 *******************************************************************



                         +-------------------------------+
                         ! Coupled Cluster model is: CCS !
                         +-------------------------------+



 +==================================================+
 |        F MATRIX TRANSFORMATION SECTION           |
 |  (results are written to a direct access file)   |
 +--------------------------------------------------+
 | time for zero order intermediat.:      0.00 secs.|
 | time for  1 sets of left interm.:      0.00 secs.|
 | time for  1 sets of right inter.:      0.00 secs.|
 | time for  1 sets of 2. ord. int.:      0.00 secs.|
 | intermediates calculated in   1 batches          |
 +--------------------------------------------------+
 | L vector | R vector |    result    |             |
 | LE   No. |  RE  No. |   CC_  No.   |  time/secs  |
 +--------------------------------------------------+
 |     1    |     1    |      1       |       0.00  |
 +--------------------------------------------------+
 | total time for   1 F transforms.:      0.00 secs.|
 +==================================================+



 Solving  1 response equations for states;
 Energy:  0.448650 and nr.:   1 of symmetry:   1

 Finding gradient for E0
 Frequency   0.000000 and state   1 and symmetry   1
     E0 start vector nr.  1 of symmetry  1 generated from gradient
 exgr, irst:           1
 CCEQ_SOL: IPRLE   =               6
 CCEQ_SOL: TRIPLET =     F
 CCEQ_SOL: LINQCC  =     T
 CCEQ_SOL: NREDH   =               1
 CCEQ_SOL: MAXRED  =             200
 CCEQ_SOL: MAXLE   =              40
 CCEQ_SOL: ISIDE   =              -1
 CCEQ_SOL: ISTRVE  =               1
 CCEQ_SOL: NVEC    =               1
 CCEQ_SOL: NUPVEC  =               1
 CCEQ_SOL: NCCVAR  =              10



 >>>>> COUPLED CLUSTER RESPONSE SOLVER <<<<<

    Iter  #Vectors  time (min)   residual
    --------------------------------------
  >>> Call CC_TRDRV with TRIPLET and ECURR set to: F   0.0000000000000000     


                               +--------------------+
                               !  START OF CC_TRDRV !
                               +--------------------+

  Workspace input:     63919399
  Triplet flag   :  F

 CC_TRDRV: The total number of trial vectors is:    1
 CC_TRDRV: Transforming vector nr.:   1


 Time used in     CC_RHTR in total   :       0.00 seconds
 Time used in   CC part              :       0.00 seconds
 Time used in   Int. calc. & read    :       0.00 seconds
 Time used in   IO of vectors/I.M.   :       0.00 seconds
  
  CCRED  
  ISIDE            -1
  LREDS   F
  NREDH             1
  ISTRVE            1
  NUPVEC            1
  NVEC              1
  LWRK       63919399

 Finding gradient for E0
 Frequency   0.000000 and state   1 and symmetry   1

 Finding gradient for E0
 Frequency   0.000000 and state   1 and symmetry   1
  
 ROOT:  1 RESIDUAL TOT: 5.40576D-02
      1       1         0.00     0.54E-01
 Dimension of the reduced space:     2
 >>> TIME USED IN THIS MICRO ITERATION        0.00

  >>> Call CC_TRDRV with TRIPLET and ECURR set to: F   0.0000000000000000     


                               +--------------------+
                               !  START OF CC_TRDRV !
                               +--------------------+

  Workspace input:     63919399
  Triplet flag   :  F

 CC_TRDRV: The total number of trial vectors is:    1
 CC_TRDRV: Transforming vector nr.:   2


 Time used in     CC_RHTR in total   :       0.00 seconds
 Time used in   CC part              :       0.00 seconds
 Time used in   Int. calc. & read    :       0.00 seconds
 Time used in   IO of vectors/I.M.   :       0.00 seconds
  
  CCRED  
  ISIDE            -1
  LREDS   F
  NREDH             2
  ISTRVE            1
  NUPVEC            1
  NVEC              1
  LWRK       63919399

 Finding gradient for E0
 Frequency   0.000000 and state   1 and symmetry   1

 Finding gradient for E0
 Frequency   0.000000 and state   1 and symmetry   1
  
 ROOT:  1 RESIDUAL TOT: 1.29414D-02
      2       1         0.00     0.13E-01
 Dimension of the reduced space:     3
 >>> TIME USED IN THIS MICRO ITERATION        0.00

  >>> Call CC_TRDRV with TRIPLET and ECURR set to: F   0.0000000000000000     


                               +--------------------+
                               !  START OF CC_TRDRV !
                               +--------------------+

  Workspace input:     63919399
  Triplet flag   :  F

 CC_TRDRV: The total number of trial vectors is:    1
 CC_TRDRV: Transforming vector nr.:   3


 Time used in     CC_RHTR in total   :       0.00 seconds
 Time used in   CC part              :       0.00 seconds
 Time used in   Int. calc. & read    :       0.00 seconds
 Time used in   IO of vectors/I.M.   :       0.00 seconds
  
  CCRED  
  ISIDE            -1
  LREDS   F
  NREDH             3
  ISTRVE            1
  NUPVEC            1
  NVEC              1
  LWRK       63919399

 Finding gradient for E0
 Frequency   0.000000 and state   1 and symmetry   1

 Finding gradient for E0
 Frequency   0.000000 and state   1 and symmetry   1
  
 ROOT:  1 RESIDUAL TOT: 3.33378D-03
      3       1         0.00     0.33E-02
 Dimension of the reduced space:     4
 >>> TIME USED IN THIS MICRO ITERATION        0.00

  >>> Call CC_TRDRV with TRIPLET and ECURR set to: F   0.0000000000000000     


                               +--------------------+
                               !  START OF CC_TRDRV !
                               +--------------------+

  Workspace input:     63919399
  Triplet flag   :  F

 CC_TRDRV: The total number of trial vectors is:    1
 CC_TRDRV: Transforming vector nr.:   4


 Time used in     CC_RHTR in total   :       0.00 seconds
 Time used in   CC part              :       0.00 seconds
 Time used in   Int. calc. & read    :       0.00 seconds
 Time used in   IO of vectors/I.M.   :       0.00 seconds
  
  CCRED  
  ISIDE            -1
  LREDS   F
  NREDH             4
  ISTRVE            1
  NUPVEC            1
  NVEC              1
  LWRK       63919399

 Finding gradient for E0
 Frequency   0.000000 and state   1 and symmetry   1

 Finding gradient for E0
 Frequency   0.000000 and state   1 and symmetry   1
  
 ROOT:  1 RESIDUAL TOT: 1.05941D-16
 ROOT:  1 HAS CONVERGED. RESIDUAL TOT: 1.05941D-16
      4       1         0.00     0.11E-15
 Dimension of the reduced space:     4
 >>> TIME USED IN THIS MICRO ITERATION        0.00

    --------------------------------------
    converged in  4 iterations
    threshold:    0.10E-06


         Routine          Time (min)
         ---------------------------
         CC_TRDRV            0.00
         CCRED               0.00
         CCNEX               0.00
         ---------------------------
         Total time          0.00


 >>>> Total CPU  time used in CCEQ_SOLV:   0.00 seconds
 >>>> Total wall time used in CCEQ_SOLV:   0.00 seconds


 >>>>>>>>>>>>>>>>>>>>> <<<<<<<<<<<<<<<<<<<<<



 Analysis of the X-st 0-th order Lagrangian multipliers: 
 --------------------------------------------------------

          Norm of Total Amplitude Vector :               0.2346


 +=============================================================================+
 | symmetry|  orbital index  |   Excitation Numbers             |   Amplitude  |
 |  Index  |   a   b   i   j |      NAI      NBJ |     NAIBJ    |              |
 +=============================================================================+
 | 1   1   |   2       3     |        6          |              |   -0.210157  |
 +=============================================================================+


          Norm of Printed Amplitude Vector :             0.2102

          Printed all single excitations greater than 0.083333


 Analysis of the X-st 0-th order Lagrangian multipliers: 
 --------------------------------------------------------

          Norm of Total Amplitude Vector :               0.0000


 +=============================================================================+
 | symmetry|  orbital index  |   Excitation Numbers             |   Amplitude  |
 |  Index  |   a   b   i   j |      NAI      NBJ |     NAIBJ    |              |
 +=============================================================================+
 +=============================================================================+


          Norm of Printed Amplitude Vector :             0.0000

          Printed all single excitations greater than 0.010000


 Analysis of the X-st 0-th order Lagrangian multipliers: 
 --------------------------------------------------------

          Norm of Total Amplitude Vector :               0.0000


 +=============================================================================+
 | symmetry|  orbital index  |   Excitation Numbers             |   Amplitude  |
 |  Index  |   a   b   i   j |      NAI      NBJ |     NAIBJ    |              |
 +=============================================================================+
 +=============================================================================+


          Norm of Printed Amplitude Vector :             0.0000

          Printed all single excitations greater than 0.010000


 Analysis of the X-st 0-th order Lagrangian multipliers: 
 --------------------------------------------------------

          Norm of Total Amplitude Vector :               0.0000


 +=============================================================================+
 | symmetry|  orbital index  |   Excitation Numbers             |   Amplitude  |
 |  Index  |   a   b   i   j |      NAI      NBJ |     NAIBJ    |              |
 +=============================================================================+
 +=============================================================================+


          Norm of Printed Amplitude Vector :             0.0000

          Printed all single excitations greater than 0.010000


 Analysis of the X-st 0-th order Lagrangian multipliers: 
 --------------------------------------------------------

          Norm of Total Amplitude Vector :               0.0000


 +=============================================================================+
 | symmetry|  orbital index  |   Excitation Numbers             |   Amplitude  |
 |  Index  |   a   b   i   j |      NAI      NBJ |     NAIBJ    |              |
 +=============================================================================+
 +=============================================================================+


          Norm of Printed Amplitude Vector :             0.0000

          Printed all single excitations greater than 0.010000
 Total, actual nr.,loop index           1           1           1
 Sym, reduced nr.           1           1
 Norm of AO density-1   18.615931971368155     
 Norm of AO density2   6.9317784828624820     


             +--------------------------------------------------------+
             ! Unrelaxed excited state  CCS   First-order properties: !
             +--------------------------------------------------------+


 Excited state properties for 
 Excited state nr.:               1
 Excited state sym:               1
 Excitation energy (au.,eV):    0.448650   12.208375


                            +-------------------------+
                            !  Electric Dipole Moment !
                            +-------------------------+



                          Total Molecular Dipole Moment
                          -----------------------------

                 au               Debye          C m (/(10**-30)

      x      0.00000000         0.00000000         0.00000000
      y     -0.00000000        -0.00000000        -0.00000000
      z     -0.14163649        -0.36000401        -1.20084413




                      +-------------------------------------+
                      !  Electronic second moment of charge !
                      +-------------------------------------+

                    X              Y              Z

               Column   1     Column   2     Column   3
       1       4.17877127     0.00000000     0.00000000
       2       0.00000000     9.15857742     0.00000000
       3       0.00000000     0.00000000     7.44972336
    ==== End of matrix output ====

 Alfa**2 Invariant:                         48.011374
 Beta**2 Invariant:                         19.208890

 Isotropic Property:                         6.929024 a.u.
 Property anisotropy invariant:              4.382795 a.u.

 *******************************************************************
 *                                                                 *
 *<<<<<<<<  OUTPUT FROM COUPLED CLUSTER LINEAR RESPONSE   >>>>>>>>>*
 *                                                                 *
 *<<<<<<<<      CALCULATION OF SECOND ORDER RESIDUES      >>>>>>>>>*
 *                                                                 *
 *******************************************************************



                  +---------------------------------------------+
                  ! CC_SOPR: Calculation of CCS        Residues !
                  +---------------------------------------------+

 <XDIPLEN |f> EtaA*RE cont. =    -0.140720  (f:  1 of sym. 1)
 <XDIPLEN |f> Mf*ksiA cont. =     0.005847  (f:  1 of sym. 1)
 <f|XDIPLEN > LE*ksiA cont. =    -0.070360  (f:  1 of sym. 1)
 <YDIPLEN |f> EtaA*RE cont. =    -0.000000  (f:  1 of sym. 1)
 <YDIPLEN |f> Mf*ksiA cont. =     0.000000  (f:  1 of sym. 1)
 <f|YDIPLEN > LE*ksiA cont. =    -0.000000  (f:  1 of sym. 1)
 <ZDIPLEN |f> EtaA*RE cont. =    -0.000000  (f:  1 of sym. 1)
 <ZDIPLEN |f> Mf*ksiA cont. =     0.000000  (f:  1 of sym. 1)
 <f|ZDIPLEN > LE*ksiA cont. =    -0.000000  (f:  1 of sym. 1)


 CCS   Right transition moments in atomic units:
 -----------------------------------------------

  1       0.448650  <XDIPLEN |f> =      -0.13487291
  1       0.448650  <YDIPLEN |f> =      -0.00000000
  1       0.448650  <ZDIPLEN |f> =      -0.00000000


 CCS   Left  transition moments in atomic units:
 -----------------------------------------------

  1       0.448650  <f|XDIPLEN > =      -0.07036002
  1       0.448650  <f|YDIPLEN > =      -0.00000000
  1       0.448650  <f|ZDIPLEN > =      -0.00000000


 CCS   linear response residue property in atomic units:
 -------------------------------------------------------

 RES{<<XDIPLEN ,XDIPLEN >>( 0.448650)} =     0.00948966 (   0.09741489)
 RES{<<XDIPLEN ,YDIPLEN >>( 0.448650)} =     0.00000000 (   0.00000001)
 RES{<<XDIPLEN ,ZDIPLEN >>( 0.448650)} =     0.00000000 (   0.00000001)
 RES{<<YDIPLEN ,XDIPLEN >>( 0.448650)} =     0.00000000 (   0.00000001)
 RES{<<YDIPLEN ,YDIPLEN >>( 0.448650)} =     0.00000000 (   0.00000000)
 RES{<<YDIPLEN ,ZDIPLEN >>( 0.448650)} =     0.00000000 (   0.00000000)
 RES{<<ZDIPLEN ,XDIPLEN >>( 0.448650)} =     0.00000000 (   0.00000001)
 RES{<<ZDIPLEN ,YDIPLEN >>( 0.448650)} =     0.00000000 (   0.00000000)
 RES{<<ZDIPLEN ,ZDIPLEN >>( 0.448650)} =     0.00000000 (   0.00000000)


 CCS   Transition strength matrix for state nr.  1 of symmetry 1
 CCS   excitation energy: 0.44864954

 Gauge: length

               Column   1     Column   2     Column   3
       1       0.00948966     0.00000000     0.00000000
    ==== End of matrix output ====

 Principal values of diagonalized transition strength matrix:

             a.u.               
 1       0.00948966
 2       0.00000000
 3       0.00000000

 Principal axis of diagonalized transition strength matrix:


               Column   1     Column   2     Column   3
       1       1.00000000     0.00000000     0.00000000
       2       0.00000000     1.00000000     0.00000000
       3       0.00000000     0.00000000     1.00000000
    ==== End of matrix output ====


 CCS    oscillator strength matrix for state nr.  1 of symmetry 1
 CCS   excitation energy: 0.44864954


               Column   1     Column   2     Column   3
[...]
    converged in  1 iterations
    threshold:    0.10E-06


         Routine          Time (min)
         ---------------------------
         CC_TRDRV            0.00
         CCRED               0.00
         CCNEX               0.00
         ---------------------------
         Total time          0.00


 >>>> Total CPU  time used in CCEQ_SOLV:   0.00 seconds
 >>>> Total wall time used in CCEQ_SOLV:   0.00 seconds


 >>>>>>>>>>>>>>>>>>>>> <<<<<<<<<<<<<<<<<<<<<



 Analysis of the X-st 0-th order Lagrangian multipliers: 
 --------------------------------------------------------


          CC_PRAM:Overall Contribution of the Different Components
          --------------------------------------------------------



          Single Excitation Contribution :              48.6454 %

          Double Excitation Contribution :              51.3546 %

          ||T1||/||T2||                  :               0.9733

          Norm of Total Amplitude Vector :               0.2824


 +=============================================================================+
 | symmetry|  orbital index  |   Excitation Numbers             |   Amplitude  |
 |  Index  |   a   b   i   j |      NAI      NBJ |     NAIBJ    |              |
 +=============================================================================+
 | 1   1   |   1       2     |        3          |              |    0.084320  |
 | 1   1   |   2       3     |        6          |              |   -0.147202  |
 | 1   1   |   1       4     |        7          |              |   -0.100013  |
 +-----------------------------------------------------------------------------+
 | 1 1 1 1 |   2   2   3   3 |        6        6 |           21 |   -0.163854  |
 | 1 1 1 1 |   2   2   4   4 |        8        8 |           36 |   -0.089551  |
 +=============================================================================+


          Norm of Printed Amplitude Vector :             0.2714

          Printed all single excitations greater than 0.058122

          Printed all double excitations greater than 0.059718


 Analysis of the X-st 0-th order Lagrangian multipliers: 
 --------------------------------------------------------

          Norm of Total Amplitude Vector :               0.0000


 +=============================================================================+
 | symmetry|  orbital index  |   Excitation Numbers             |   Amplitude  |
 |  Index  |   a   b   i   j |      NAI      NBJ |     NAIBJ    |              |
 +=============================================================================+
 +-----------------------------------------------------------------------------+
 +=============================================================================+


          Norm of Printed Amplitude Vector :             0.0000

          Printed all single excitations greater than 0.010000

          Printed all double excitations greater than 0.010000


 Analysis of the X-st 0-th order Lagrangian multipliers: 
 --------------------------------------------------------

          Norm of Total Amplitude Vector :               0.0000


 +=============================================================================+
 | symmetry|  orbital index  |   Excitation Numbers             |   Amplitude  |
 |  Index  |   a   b   i   j |      NAI      NBJ |     NAIBJ    |              |
 +=============================================================================+
 +-----------------------------------------------------------------------------+
 +=============================================================================+


          Norm of Printed Amplitude Vector :             0.0000

          Printed all single excitations greater than 0.010000

          Printed all double excitations greater than 0.010000


 Analysis of the X-st 0-th order Lagrangian multipliers: 
 --------------------------------------------------------

          Norm of Total Amplitude Vector :               0.0000


 +=============================================================================+
 | symmetry|  orbital index  |   Excitation Numbers             |   Amplitude  |
 |  Index  |   a   b   i   j |      NAI      NBJ |     NAIBJ    |              |
 +=============================================================================+
 +-----------------------------------------------------------------------------+
 +=============================================================================+


          Norm of Printed Amplitude Vector :             0.0000

          Printed all single excitations greater than 0.010000

          Printed all double excitations greater than 0.010000


 Analysis of the X-st 0-th order Lagrangian multipliers: 
 --------------------------------------------------------

          Norm of Total Amplitude Vector :               0.0000


 +=============================================================================+
 | symmetry|  orbital index  |   Excitation Numbers             |   Amplitude  |
 |  Index  |   a   b   i   j |      NAI      NBJ |     NAIBJ    |              |
 +=============================================================================+
 +-----------------------------------------------------------------------------+
 +=============================================================================+


          Norm of Printed Amplitude Vector :             0.0000

          Printed all single excitations greater than 0.010000

          Printed all double excitations greater than 0.010000
 Total, actual nr.,loop index           1           1           1
 Sym, reduced nr.           1           1


             +--------------------------------------------------------+
             ! Unrelaxed excited state CCSD   First-order properties: !
             +--------------------------------------------------------+


 Excited state properties for 
 Excited state nr.:               1
 Excited state sym:               1
 Excitation energy (au.,eV):    0.419985   11.428365


                            +-------------------------+
                            !  Electric Dipole Moment !
                            +-------------------------+



                          Total Molecular Dipole Moment
                          -----------------------------

                 au               Debye          C m (/(10**-30)

      x      0.00000000         0.00000000         0.00000000
      y     -0.00000000        -0.00000000        -0.00000000
      z     -0.03598914        -0.09147526        -0.30512863




                      +-------------------------------------+
                      !  Electronic second moment of charge !
                      +-------------------------------------+

                    X              Y              Z

               Column   1     Column   2     Column   3
       1       4.13633972     0.00000000     0.00000000
       2       0.00000000     8.92718558     0.00000000
       3       0.00000000     0.00000000     7.30769199
    ==== End of matrix output ====

 Alfa**2 Invariant:                         46.109610
 Beta**2 Invariant:                         17.816219

 Isotropic Property:                         6.790406 a.u.
 Property anisotropy invariant:              4.220926 a.u.

 *******************************************************************
 *                                                                 *
 *<<<<<<<<  OUTPUT FROM COUPLED CLUSTER LINEAR RESPONSE   >>>>>>>>>*
 *                                                                 *
 *<<<<<<<<      CALCULATION OF SECOND ORDER RESIDUES      >>>>>>>>>*
 *                                                                 *
 *******************************************************************



                  +---------------------------------------------+
                  ! CC_SOPR: Calculation of CCSD       Residues !
                  +---------------------------------------------+

 Time used in    CC_ETA            :       0.00 seconds
 <XDIPLEN |f> EtaA*RE cont. =    -0.137769  (f:  1 of sym. 1)
 <XDIPLEN |f> Mf*ksiA cont. =     0.003520  (f:  1 of sym. 1)
 <f|XDIPLEN > LE*ksiA cont. =    -0.068799  (f:  1 of sym. 1)
 Time used in    CC_ETA            :       0.00 seconds
 <YDIPLEN |f> EtaA*RE cont. =     0.000000  (f:  1 of sym. 1)
 <YDIPLEN |f> Mf*ksiA cont. =     0.000000  (f:  1 of sym. 1)
 <f|YDIPLEN > LE*ksiA cont. =     0.000000  (f:  1 of sym. 1)
 Time used in    CC_ETA            :       0.00 seconds
 <ZDIPLEN |f> EtaA*RE cont. =    -0.000000  (f:  1 of sym. 1)
 <ZDIPLEN |f> Mf*ksiA cont. =     0.000000  (f:  1 of sym. 1)
 <f|ZDIPLEN > LE*ksiA cont. =    -0.000000  (f:  1 of sym. 1)


 CCSD  Right transition moments in atomic units:
 -----------------------------------------------

  1       0.419985  <XDIPLEN |f> =      -0.13424870
  1       0.419985  <YDIPLEN |f> =       0.00000000
  1       0.419985  <ZDIPLEN |f> =      -0.00000000


 CCSD  Left  transition moments in atomic units:
 -----------------------------------------------

  1       0.419985  <f|XDIPLEN > =      -0.06879861
  1       0.419985  <f|YDIPLEN > =       0.00000000
  1       0.419985  <f|ZDIPLEN > =      -0.00000000


 CCSD  linear response residue property in atomic units:
 -------------------------------------------------------

 RES{<<XDIPLEN ,XDIPLEN >>( 0.419985)} =     0.00923612 (   0.09610475)
 RES{<<XDIPLEN ,YDIPLEN >>( 0.419985)} =    -0.00000000 (  -0.00000000)
 RES{<<XDIPLEN ,ZDIPLEN >>( 0.419985)} =     0.00000000 (   0.00000000)
 RES{<<YDIPLEN ,XDIPLEN >>( 0.419985)} =    -0.00000000 (  -0.00000000)
 RES{<<YDIPLEN ,YDIPLEN >>( 0.419985)} =     0.00000000 (   0.00000000)
 RES{<<YDIPLEN ,ZDIPLEN >>( 0.419985)} =    -0.00000000 (  -0.00000000)
 RES{<<ZDIPLEN ,XDIPLEN >>( 0.419985)} =     0.00000000 (   0.00000000)
 RES{<<ZDIPLEN ,YDIPLEN >>( 0.419985)} =    -0.00000000 (  -0.00000000)
 RES{<<ZDIPLEN ,ZDIPLEN >>( 0.419985)} =     0.00000000 (   0.00000000)


 CCSD  Transition strength matrix for state nr.  1 of symmetry 1
 CCSD  excitation energy: 0.41998469

 Gauge: length

               Column   1     Column   2     Column   3
       1       0.00923612    -0.00000000     0.00000000
    ==== End of matrix output ====

 Principal values of diagonalized transition strength matrix:

             a.u.               
 1       0.00923612
 2       0.00000000
 3       0.00000000

 Principal axis of diagonalized transition strength matrix:


               Column   1     Column   2     Column   3
       1       1.00000000     0.00000000     0.00000000
       2       0.00000000     1.00000000     0.00000000
       3       0.00000000     0.00000000     1.00000000
    ==== End of matrix output ====


 CCSD   oscillator strength matrix for state nr.  1 of symmetry 1
 CCSD  excitation energy: 0.41998469


               Column   1     Column   2     Column   3
       1       0.00258602    -0.00000000     0.00000000
    ==== End of matrix output ====

 Principal values of diagonalized oscillator strength matrix:

             a.u.               
 1       0.00258602
 2       0.00000000
 3       0.00000000

 Principal axis of diagonalized oscillator strength matrix:


               Column   1     Column   2     Column   3
       1       1.00000000     0.00000000     0.00000000
       2       0.00000000     1.00000000     0.00000000
       3       0.00000000     0.00000000     1.00000000
    ==== End of matrix output ====

 >>> Total time for      9 linear response residues:       0.00 seconds.
  

 *******************************************************************************
 *******************************************************************************
 *                                                                             *
 *                                                                             *
 *                   SUMMARY OF COUPLED CLUSTER CALCULATION                    *
 *                                                                             *
 *                                                                             *
 *******************************************************************************
 *******************************************************************************

                                                                                
            Total SCF   energy:                   -74.9656569916                
                                                                                
                                                                                
 +=============================================================================+
 |  sym. | Exci.  |        CCS        Excitation energies            | ||T1||  |
 |(spin, |        +------------------------------------------------------------+
 | spat) |        |     Hartree    |       eV.      |     cm-1       |    %    |
 +=============================================================================+
 | ^1A   |    1   |     0.4486495  |      12.20837  |     98467.191  | 100.00  |
 +=============================================================================+
                                                                                
                                                                                
     Total energies in Hartree:                                                 
             1 ^1A        -74.5170074547                                        
                                                                                
                                                                                
 +=============================================================================+
 |  sym. | Exci.  |        CCS        Length   Gauge Oscillator Strength       |
 |(spin, |        +------------------------------------------------------------+
 | spat) |        | Dipole Strength(a.u.) | Oscillator strength  | Direction   |
 +=============================================================================+
 | ^1A   |    1   |        0.0094897      |      0.0028384       |    X        |
 +=============================================================================+
                                                                                
                                                                                
            Total SCF   energy:                   -74.9656569916                
            Total MP2   energy:                   -75.0055650565                
            Total CC2   energy:                   -75.0057135297                
                                                                                
                                                                                
 +=============================================================================+
 |  sym. | Exci.  |        CC2        Excitation energies            | ||T1||  |
 |(spin, |        +------------------------------------------------------------+
 | spat) |        |     Hartree    |       eV.      |     cm-1       |    %    |
 +=============================================================================+
 | ^1A   |    1   |     0.4382523  |      11.92545  |     96185.251  |  98.47  |
 +=============================================================================+
                                                                                
                                                                                
     Total energies in Hartree:                                                 
             1 ^1A        -74.5674612740                                        
                                                                                
                                                                                
 +=============================================================================+
 |  sym. | Exci.  |        CC2        Length   Gauge Oscillator Strength       |
 |(spin, |        +------------------------------------------------------------+
 | spat) |        | Dipole Strength(a.u.) | Oscillator strength  | Direction   |
 +=============================================================================+
 | ^1A   |    1   |        0.0091769      |      0.0026812       |    X        |
 +=============================================================================+
                                                                                
                                                                                
            Total SCF   energy:                   -74.9656569916                
            Total RSTAR energy:                   -75.0057135297                
            Total CCSD  energy:                   -75.0215075439                
                                                                                
                                                                                
 +=============================================================================+
 |  sym. | Exci.  |        CCSD       Excitation energies            | ||T1||  |
 |(spin, |        +------------------------------------------------------------+
 | spat) |        |     Hartree    |       eV.      |     cm-1       |    %    |
 +=============================================================================+
 | ^1A   |    1   |     0.4199847  |      11.42836  |     92175.984  |  94.29  |
 +=============================================================================+
                                                                                
                                                                                
     Total energies in Hartree:                                                 
             1 ^1A        -74.6015228565                                        
                                                                                
                                                                                
 +=============================================================================+
 |  sym. | Exci.  |        CCSD       Length   Gauge Oscillator Strength       |
 |(spin, |        +------------------------------------------------------------+
 | spat) |        | Dipole Strength(a.u.) | Oscillator strength  | Direction   |
 +=============================================================================+
 | ^1A   |    1   |        0.0092361      |      0.0025860       |    X        |
 +=============================================================================+

  1 a.u. =        27.21138 eV.  
  1 a.u. =    219474.62934 cm-1.
  

 *******************************************************************************
 *******************************************************************************
 *                                                                             *
 *                                                                             *
 *                      END OF COUPLED CLUSTER CALCULATION                     *
 *                                                                             *
 *                                                                             *
 *******************************************************************************
 *******************************************************************************


 >>>> CPU and wall time for CC :       0.156       0.519

 
     Date and time (Linux)  : Sun Sep  8 20:42:19 2013
     Host name              : lpqlx131.ups-tlse.fr                    


                      .-------------------------------------.
                      | End of Coupled Cluster Section (CC) |
                      `-------------------------------------'

 >>>> Total CPU  time used in DALTON:   0.17 seconds
 >>>> Total wall time used in DALTON:   0.53 seconds

 
     Date and time (Linux)  : Sun Sep  8 20:42:19 2013
     Host name              : lpqlx131.ups-tlse.fr                    
