

     ************************************************************************
     *************** Dalton - An Electronic Structure Program ***************
     ************************************************************************

    This is output from DALTON (Release Dalton2013 patch 0)
   ----------------------------------------------------------------------------
    NOTE:
     
    Dalton is an experimental code for the evaluation of molecular
    properties using (MC)SCF, DFT, CI, and CC wave functions.
    The authors accept no responsibility for the performance of
    the code or for the correctness of the results.
     
    The code (in whole or part) is provided under a licence and
    is not to be reproduced for further distribution without
    the written permission of the authors or their representatives.
     
    See the home page "http://daltonprogram.org" for further information.
     
    If results obtained with this code are published,
    the appropriate citations would be both of:
     
       K. Aidas, C. Angeli, K. L. Bak, V. Bakken, R. Bast,
       L. Boman, O. Christiansen, R. Cimiraglia, S. Coriani,
       P. Dahle, E. K. Dalskov, U. Ekstroem, T. Enevoldsen,
       J. J. Eriksen, P. Ettenhuber, B. Fernandez, L. Ferrighi,
       H. Fliegl, L. Frediani, K. Hald, A. Halkier, C. Haettig,
       H. Heiberg, T. Helgaker, A. C. Hennum, H. Hettema,
       E. Hjertenaes, S. Hoest, I.-M. Hoeyvik, M. F. Iozzi,
       B. Jansik, H. J. Aa. Jensen, D. Jonsson, P. Joergensen,
       J. Kauczor, S. Kirpekar, T. Kjaergaard, W. Klopper,
       S. Knecht, R. Kobayashi, H. Koch, J. Kongsted, A. Krapp,
       K. Kristensen, A. Ligabue, O. B. Lutnaes, J. I. Melo,
       K. V. Mikkelsen, R. H. Myhre, C. Neiss, C. B. Nielsen,
       P. Norman, J. Olsen, J. M. H. Olsen, A. Osted,
       M. J. Packer, F. Pawlowski, T. B. Pedersen, P. F. Provasi,
       S. Reine, Z. Rinkevicius, T. A. Ruden, K. Ruud, V. Rybkin,
       P. Salek, C. C. M. Samson, A. Sanchez de Meras, T. Saue,
       S. P. A. Sauer, B. Schimmelpfennig, K. Sneskov,
       A. H. Steindal, K. O. Sylvester-Hvid, P. R. Taylor,
       A. M. Teale, E. I. Tellgren, D. P. Tew, A. J. Thorvaldsen,
       L. Thoegersen, O. Vahtras, M. A. Watson, D. J. D. Wilson,
       M. Ziolkowski and H. Agren.
       The Dalton quantum chemistry program system.
       WIREs Comput. Mol. Sci. 2013. doi: 10.1002/wcms.1172
    
    and
    
       Dalton, a Molecular Electronic Structure Program,
       Release DALTON2013.0 (2013), see http://daltonprogram.org
   ----------------------------------------------------------------------------

    Authors in alphabetical order (major contribution(s) in parenthesis):

  Kestutis Aidas,           Vilnius University,           Lithuania   (QM/MM)
  Celestino Angeli,         University of Ferrara,        Italy       (NEVPT2)
  Keld L. Bak,              UNI-C,                        Denmark     (AOSOPPA, non-adiabatic coupling, magnetic properties)
  Vebjoern Bakken,          University of Oslo,           Norway      (DALTON; geometry optimizer, symmetry detection)
  Radovan Bast,             KTH Stockholm                 Sweden      (DALTON installation and execution frameworks)
  Linus Boman,              NTNU,                         Norway      (Cholesky decomposition and subsystems)
  Ove Christiansen,         Aarhus University,            Denmark     (CC module)
  Renzo Cimiraglia,         University of Ferrara,        Italy       (NEVPT2)
  Sonia Coriani,            University of Trieste,        Italy       (CC module, MCD in RESPONS)
  Paal Dahle,               University of Oslo,           Norway      (Parallelization)
  Erik K. Dalskov,          UNI-C,                        Denmark     (SOPPA)
  Thomas Enevoldsen,        Univ. of Southern Denmark,    Denmark     (SOPPA)
  Janus J. Eriksen,         Aarhus University,            Denmark     (PE-MP2/SOPPA, TDA)
  Berta Fernandez,          U. of Santiago de Compostela, Spain       (doublet spin, ESR in RESPONS)
  Lara Ferrighi,            Aarhus University,            Denmark     (PCM Cubic response)
  Heike Fliegl,             University of Oslo,           Norway      (CCSD(R12))
  Luca Frediani,            UiT The Arctic U. of Norway,  Norway      (PCM)
  Bin Gao,                  UiT The Arctic U. of Norway,  Norway      (Gen1Int library)
  Christof Haettig,         Ruhr-University Bochum,       Germany     (CC module)
  Kasper Hald,              Aarhus University,            Denmark     (CC module)
  Asger Halkier,            Aarhus University,            Denmark     (CC module)
  Hanne Heiberg,            University of Oslo,           Norway      (geometry analysis, selected one-electron integrals)
  Trygve Helgaker,          University of Oslo,           Norway      (DALTON; ABACUS, ERI, DFT modules, London, and much more)
  Alf Christian Hennum,     University of Oslo,           Norway      (Parity violation)
  Hinne Hettema,            University of Auckland,       New Zealand (quadratic response in RESPONS; SIRIUS supersymmetry)
  Eirik Hjertenaes,         NTNU,                         Norway      (Cholesky decomposition)
  Maria Francesca Iozzi,    University of Oslo,           Norway      (RPA)
  Brano Jansik              Technical Univ. of Ostrava    Czech Rep.  (DFT cubic response)
  Hans Joergen Aa. Jensen,  Univ. of Southern Denmark,    Denmark     (DALTON; SIRIUS, RESPONS, ABACUS modules, London, and much more)
  Dan Jonsson,              UiT The Arctic U. of Norway,  Norway      (cubic response in RESPONS module)
  Poul Joergensen,          Aarhus University,            Denmark     (RESPONS, ABACUS, and CC modules)
  Joanna Kauczor,           Linkoeping University,        Sweden      (Complex polarization propagator (CPP) module)
  Sheela Kirpekar,          Univ. of Southern Denmark,    Denmark     (Mass-velocity & Darwin integrals)
  Wim Klopper,              KIT Karlsruhe,                Germany     (R12 code in CC, SIRIUS, and ABACUS modules)
  Stefan Knecht,            ETH Zurich,                   Switzerland (Parallel CI and MCSCF)
  Rika Kobayashi,           Australian National Univ.,    Australia   (DIIS in CC, London in MCSCF)
  Henrik Koch,              NTNU,                         Norway      (CC module, Cholesky decomposition)
  Jacob Kongsted,           Univ. of Southern Denmark,    Denmark     (Polarizable embedding, QM/MM)
  Andrea Ligabue,           University of Modena,         Italy       (CTOCD, AOSOPPA)
  Ola B. Lutnaes,           University of Oslo,           Norway      (DFT Hessian)
  Juan I. Melo,             University of Buenos Aires,   Argentina   (LRESC, Relativistic Effects on NMR Shieldings)
  Kurt V. Mikkelsen,        University of Copenhagen,     Denmark     (MC-SCRF and QM/MM)
  Rolf H. Myhre,            NTNU,                         Norway      (Cholesky, subsystems and ECC2)
  Christian Neiss,          Univ. Erlangen-Nuernberg,     Germany     (CCSD(R12))
  Christian B. Nielsen,     University of Copenhagen,     Denmark     (QM/MM)
  Patrick Norman,           Linkoeping University,        Sweden      (Cubic response and complex response in RESPONS)
  Jeppe Olsen,              Aarhus University,            Denmark     (SIRIUS CI/density modules)
  Jogvan Magnus H. Olsen,   Univ. of Southern Denmark,    Denmark     (Polarizable embedding, PE library, QM/MM)
  Anders Osted,             Copenhagen University,        Denmark     (QM/MM)
  Martin J. Packer,         University of Sheffield,      UK          (SOPPA)
  Filip Pawlowski,          Kazimierz Wielki University   Poland      (CC3)
  Thomas B. Pedersen,       University of Oslo,           Norway      (Cholesky decomposition)
  Patricio F. Provasi,      University of Northeastern,   Argentina   (Analysis of coupling constants in localized orbitals)
  Zilvinas Rinkevicius,     KTH Stockholm,                Sweden      (open-shell DFT, ESR)
  Elias Rudberg,            KTH Stockholm,                Sweden      (DFT grid and basis info)
  Torgeir A. Ruden,         University of Oslo,           Norway      (Numerical derivatives in ABACUS)
  Kenneth Ruud,             UiT The Arctic U. of Norway,  Norway      (DALTON; ABACUS magnetic properties and  much more)
  Pawel Salek,              KTH Stockholm,                Sweden      (DALTON; DFT code)
  Claire C. M. Samson       University of Karlsruhe       Germany     (Boys localization, r12 integrals in ERI)
  Alfredo Sanchez de Meras, University of Valencia,       Spain       (CC module, Cholesky decomposition)
  Trond Saue,               Paul Sabatier University,     France      (direct Fock matrix construction)
  Stephan P. A. Sauer,      University of Copenhagen,     Denmark     (SOPPA(CCSD), SOPPA prop., AOSOPPA, vibrational g-factors)
  Bernd Schimmelpfennig,    Forschungszentrum Karlsruhe,  Germany     (AMFI module)
  Kristian Sneskov,         Aarhus University,            Denmark     (QM/MM, PE-CC)
  Arnfinn H. Steindal,      UiT The Arctic U. of Norway,  Norway      (parallel QM/MM)
  K. O. Sylvester-Hvid,     University of Copenhagen,     Denmark     (MC-SCRF)
  Peter R. Taylor,          VLSCI/Univ. of Melbourne,     Australia   (Symmetry handling ABACUS, integral transformation)
  Andrew M. Teale,          University of Nottingham,     England     (DFT-AC, DFT-D)
  David P. Tew,             University of Bristol,        England     (CCSD(R12))
  Olav Vahtras,             KTH Stockholm,                Sweden      (triplet response, spin-orbit, ESR, TDDFT, open-shell DFT)
  David J. Wilson,          La Trobe University,          Australia   (DFT Hessian and DFT magnetizabilities)
  Hans Agren,               KTH Stockholm,                Sweden      (SIRIUS module, RESPONS, MC-SCRF solvation model)
 --------------------------------------------------------------------------------

     Date and time (Linux)  : Sun Sep  8 20:45:36 2013
     Host name              : lpqlx131.ups-tlse.fr                    

 * Work memory size             :    64000000 =  488.28 megabytes.

 * Directories for basis set searches:
   1) /home/bast/DALTON-2013.0-Source/build/test_cc_geoopt2
   2) /home/bast/DALTON-2013.0-Source/build/basis


Compilation information
-----------------------

 Who compiled             | bast
 Host                     | lpqlx131.ups-tlse.fr
 System                   | Linux-3.8.5-201.fc18.x86_64
 CMake generator          | Unix Makefiles
 Processor                | x86_64
 64-bit integers          | OFF
 MPI                      | OFF
 Fortran compiler         | /usr/bin/gfortran
 Fortran compiler version | GNU Fortran (GCC) 4.7.2 20121109 (Red Hat 4.7.2-8)
 C compiler               | /usr/bin/gcc
 C compiler version       | gcc (GCC) 4.7.2 20121109 (Red Hat 4.7.2-8)
 C++ compiler             | /usr/bin/g++
 C++ compiler version     | g++ (GCC) 4.7.2 20121109 (Red Hat 4.7.2-8)
 Static linking           | OFF
 Last Git revision        | f34203295a86316e27f9e7b44f9b6769c4a046c0
 Configuration time       | 2013-09-08 20:31:27.952056


   Content of the .dal input file
 ----------------------------------

**DALTON INPUT                                    
.DIRECT                                           
.OPTIMIZE                                         
**INTEGRAL                                        
.DIPLEN                                           
.DEROVL                                           
.DERHAM                                           
**WAVE FUNCTION                                   
.CC                                               
*SCF INP                                          
.THRESH                                           
 1.0D-10                                          
.DOUBLY OCCUPIED                                  
 7                                                
*CC INP                                           
.CCSD                                             
.PRINT                                            
 6                                                
.RESTART                                          
.THRENR                                           
1.0D-10                                           
.THRLEQ                                           
1.0D-09                                           
.NSYM                                             
1                                                 
.FROIMP                                           
2                                                 
0                                                 
**END OF DALTON INPUT                             


   Content of the .mol file
 ----------------------------

INTGRL                                                                         
first order property calculation on CO                                         
dunning-basis                                                                  
    2  0 0  X  Y  Z   0.10D-14                                                 
        6.    1    3    1    1    1                                            
C        0.0000000000000     0.0000000000000     1.2282431300000               
H  18    4                                                                     
     6665.0000000000        0.0006920000        0.0000000000        0.000000000
                            0.0000000000                                       
     1000.0000000000        0.0053290000        0.0000000000        0.000000000
                            0.0000000000                                       
      228.0000000000        0.0270770000        0.0000000000        0.000000000
                            0.0000000000                                       
       64.7100000000        0.1017180000        0.0000000000        0.000000000
                            0.0000000000                                       
       21.0600000000        0.2747400000        0.0000000000        0.000000000
                            0.0000000000                                       
        7.4950000000        0.4485640000        0.0000000000        0.000000000
                            0.0000000000                                       
        2.7970000000        0.2850740000        0.0000000000        0.000000000
                            0.0000000000                                       
        0.5215000000        0.0152040000        0.0000000000        0.000000000
                            0.0000000000                                       
     6665.0000000000        0.0000000000       -0.0001460000        0.000000000
                            0.0000000000                                       
     1000.0000000000        0.0000000000       -0.0011540000        0.000000000
                            0.0000000000                                       
      228.0000000000        0.0000000000       -0.0057250000        0.000000000
                            0.0000000000                                       
       64.7100000000        0.0000000000       -0.0233120000        0.000000000
                            0.0000000000                                       
       21.0600000000        0.0000000000       -0.0639550000        0.000000000
                            0.0000000000                                       
        7.4950000000        0.0000000000       -0.1499810000        0.000000000
                            0.0000000000                                       
        2.7970000000        0.0000000000       -0.1272620000        0.000000000
                            0.0000000000                                       
        0.5215000000        0.0000000000        0.5445290000        0.000000000
                            0.0000000000                                       
        0.1596000000        0.0000000000        0.0000000000        1.000000000
                            0.0000000000                                       
        0.0469000000        0.0000000000        0.0000000000        0.000000000
                            1.0000000000                                       
H   5    3                                                                     
        9.4390000000        0.0381090000        0.0000000000        0.000000000
        2.0020000000        0.2094800000        0.0000000000        0.000000000
        0.5456000000        0.5085570000        0.0000000000        0.000000000
        0.1517000000        0.0000000000        1.0000000000        0.000000000
        0.0404100000        0.0000000000        0.0000000000        1.000000000
H   2    2                                                                     
        0.5500000000        1.0000000000        0.0000000000                   
        0.1510000000        0.0000000000        1.0000000000                   
        8.    1    3    1    1    1                                            
O        0.0000000000000     0.0000000000000    -0.9139731000000               
H  18    4                                                                     
    11720.0000000000        0.0007100000        0.0000000000        0.000000000
                            0.0000000000                                       
     1759.0000000000        0.0054700000        0.0000000000        0.000000000
                            0.0000000000                                       
      400.8000000000        0.0278370000        0.0000000000        0.000000000
                            0.0000000000                                       
      113.7000000000        0.1048000000        0.0000000000        0.000000000
                            0.0000000000                                       
       37.0300000000        0.2830620000        0.0000000000        0.000000000
                            0.0000000000                                       
       13.2700000000        0.4487190000        0.0000000000        0.000000000
                            0.0000000000                                       
        5.0250000000        0.2709520000        0.0000000000        0.000000000
                            0.0000000000                                       
        1.0130000000        0.0154580000        0.0000000000        0.000000000
                            0.0000000000                                       
    11720.0000000000        0.0000000000       -0.0001600000        0.000000000
                            0.0000000000                                       
     1759.0000000000        0.0000000000       -0.0012630000        0.000000000
                            0.0000000000                                       
      400.8000000000        0.0000000000       -0.0062670000        0.000000000
                            0.0000000000                                       
      113.7000000000        0.0000000000       -0.0257160000        0.000000000
                            0.0000000000                                       
       37.0300000000        0.0000000000       -0.0709240000        0.000000000
                            0.0000000000                                       
       13.2700000000        0.0000000000       -0.1654110000        0.000000000
                            0.0000000000                                       
        5.0250000000        0.0000000000       -0.1169550000        0.000000000
                            0.0000000000                                       
        1.0130000000        0.0000000000        0.5573680000        0.000000000
                            0.0000000000                                       
        0.3023000000        0.0000000000        0.0000000000        1.000000000
                            0.0000000000                                       
        0.0789600000        0.0000000000        0.0000000000        0.000000000
                            1.0000000000                                       
H   5    3                                                                     
       17.7000000000        0.0430180000        0.0000000000        0.000000000
        3.8540000000        0.2289130000        0.0000000000        0.000000000
        1.0460000000        0.5087280000        0.0000000000        0.000000000
        0.2753000000        0.0000000000        1.0000000000        0.000000000
        0.0685600000        0.0000000000        0.0000000000        1.000000000
H   2    2                                                                     
        1.1850000000        1.0000000000        0.0000000000                   
        0.3320000000        0.0000000000        1.0000000000                   


       *******************************************************************
       *********** Output from DALTON general input processing ***********
       *******************************************************************

 --------------------------------------------------------------------------------
   Overall default print level:    0
   Print level for DALTON.STAT:    1

    AO-direct calculation (in sections where implemented)
    "Old" integral transformation used (limited to max 255 basis functions)
 --------------------------------------------------------------------------------


 Chosen parameters for *OPTIMI :
 -------------------------------

 Default 1st order method will be used:   BFGS update.
 Optimization will be performed in redundant internal coordinates.
 Model Hessian will be used as initial Hessian.
 The model Hessian parameters of Roland Lindh will be used.


 Trust region method will be used to control step (default).



              >>>>>>>>>>>>>>>>>>>>>>>>>>>>>>>>>>>>>>>>>>>>>>>>>>>>>
              >>>>>>>>>> 1st Order Geometry Optimization >>>>>>>>>>
              >>>>>>>>>>>>>>>>>>>>>>>>>>>>>>>>>>>>>>>>>>>>>>>>>>>>>

 Reading .mol file to determine number of atoms for parallel runs.


   ****************************************************************************
   *************** Output of molecule and basis set information ***************
   ****************************************************************************


    The two title cards from your ".mol" input:
    ------------------------------------------------------------------------
 1: first order property calculation on CO                                  
 2: dunning-basis                                                           
    ------------------------------------------------------------------------

  Atomic type no.    1
  --------------------
  Nuclear charge:   6.00000
  Number of symmetry independent centers:    1
  Number of basis sets to read;    2

  Atomic type no.    2
  --------------------
  Nuclear charge:   8.00000
  Number of symmetry independent centers:    1
  Number of basis sets to read;    2


                         SYMGRP: Point group information
                         -------------------------------

Point group: C1 


                                 Isotopic Masses
                                 ---------------

                           C          12.000000
                           O          15.994915

                       Total mass:    27.994915 amu
                       Natural abundance:  98.663 %

 Center-of-mass coordinates (a.u.):    0.000000    0.000000    0.004286


  Atoms and basis sets
  --------------------

  Number of atom types :    2
  Total number of atoms:    2

  label    atoms   charge   prim   cont     basis
  ----------------------------------------------------------------------
  C           1    6.0000    43    23      [18s5p2d|4s3p2d]                                   
  O           1    8.0000    43    23      [18s5p2d|4s3p2d]                                   
  ----------------------------------------------------------------------
  total:      2   14.0000    86    46
  ----------------------------------------------------------------------
  Spherical harmonic basis used.

  Threshold for neglecting AO integrals:  1.00D-15


  Cartesian Coordinates (a.u.)
  ----------------------------

  Total number of coordinates:    6
  C       :     1  x   0.0000000000    2  y   0.0000000000    3  z   1.2282431300
  O       :     4  x   0.0000000000    5  y   0.0000000000    6  z  -0.9139731000


   Interatomic separations (in Angstrom):
   --------------------------------------

            C           O     
            ------      ------
 C     :    0.000000
 O     :    1.133612    0.000000


  Max    interatomic separation is    1.1336 Angstrom (    2.1422 Bohr)
  between atoms    2 and    1, "O     " and "C     ".

  Min YX interatomic separation is    1.1336 Angstrom (    2.1422 Bohr)


  Bond distances (Angstrom):
  --------------------------

                  atom 1     atom 2       distance
                  ------     ------       --------
  bond distance:  O          C            1.133612




 Principal moments of inertia (u*A**2) and principal axes
 --------------------------------------------------------

   IA       0.000000          0.000000    0.000000    1.000000
   IB       8.810751          0.000000    1.000000    0.000000
   IC       8.810751          1.000000    0.000000    0.000000


 Rotational constants
 --------------------

 The molecule is linear.

               B =        57359.36 MHz     (    1.913302 cm-1)


@  Nuclear repulsion energy :   22.406701680157 Hartree


                     .---------------------------------------.
                     | Starting in Integral Section (HERMIT) |
                     `---------------------------------------'



    *************************************************************************
    ****************** Output from HERMIT input processing ******************
    *************************************************************************


 Default print level:        1

 * Nuclear model: Point charge

 Calculation of one-electron Hamiltonian integrals.

 The following one-electron property integrals are calculated as requested:
          - overlap integrals
          - dipole length integrals
          - Geometrical derivatives of overlap integrals
          - Geometrical derivatives of one-electron Hamiltonian integrals

 Center of mass  (bohr):      0.000000000000      0.000000000000      0.004286332472
 Operator center (bohr):      0.000000000000      0.000000000000      0.000000000000
 Gauge origin    (bohr):      0.000000000000      0.000000000000      0.000000000000
 Dipole origin   (bohr):      0.000000000000      0.000000000000      0.000000000000


     ************************************************************************
     ************************** Output from HERINT **************************
     ************************************************************************

 >>>> Total CPU  time used in HERMIT:   0.05 seconds
 >>>> Total wall time used in HERMIT:   0.05 seconds


                        .----------------------------------.
                        | End of Integral Section (HERMIT) |
                        `----------------------------------'



                   .--------------------------------------------.
                   | Starting in Wave Function Section (SIRIUS) |
                   `--------------------------------------------'


 *** Output from Huckel module :

     Using EWMO model:          T
     Using EHT  model:          F
     Number of Huckel orbitals each symmetry:   10

 EWMO - Energy Weighted Maximum Overlap - is a Huckel type method,
        which normally is better than Extended Huckel Theory.
 Reference: Linderberg and Ohrn, Propagators in Quantum Chemistry (Wiley, 1973)

 Huckel EWMO eigenvalues for symmetry :  1
          -20.685899     -11.349239      -1.576463      -0.797041      -0.716122
           -0.716122      -0.457106      -0.306978      -0.306978      -0.139152

 **********************************************************************
 *SIRIUS* a direct, restricted step, second order MCSCF program       *
 **********************************************************************

 
     Date and time (Linux)  : Sun Sep  8 20:45:36 2013
     Host name              : lpqlx131.ups-tlse.fr                    

 Title lines from ".mol" input file:
     first order property calculation on CO                                  
     dunning-basis                                                           

 Print level on unit LUPRI =   2 is   0
 Print level on unit LUW4  =   2 is   5

@    (Integral direct) CC calculation.

@    This is a combination run starting with
@              a restricted, closed shell Hartree-Fock calculation

 Fock matrices are calculated directly without use of integrals on disk.

 Initial molecular orbitals are obtained according to
 ".MOSTART EWMO  " input option

     Wave function specification
     ============================

     For the specification of the Coupled Cluster: see later.

@    For the wave function of type :      >>> CC <<<
@    Number of closed shell electrons          14
@    Number of electrons in active shells       0
@    Total charge of the molecule               0

@    Spin multiplicity and 2 M_S                1         0
     Total number of symmetries                 1
@    Reference state symmetry                   1

     Orbital specifications
     ======================
     Abelian symmetry species          All |    1
                                       --- |  ---
@    Occupied SCF orbitals               7 |    7
     Secondary orbitals                 39 |   39
     Total number of orbitals           46 |   46
     Number of basis functions          46 |   46

     Optimization information
     ========================
@    Number of configurations                 1
@    Number of orbital rotations            273
     ------------------------------------------
@    Total number of variables              274

     Maximum number of Fock   iterations      0
     Maximum number of DIIS   iterations     60
     Maximum number of QC-SCF iterations     60
     Threshold for SCF convergence     1.00D-10


 Changes of defaults for CC:
 ---------------------------


 -This is a direct atomic orbital integral based
  calculation for coupled cluster wave function

 -Implicit frozen core calculation
  


 >>>>> DIIS optimization of Hartree-Fock <<<<<

 C1-DIIS algorithm; max error vectors =   10

 Iter      Total energy        Error norm    Delta(E)  DIIS dim.
 -----------------------------------------------------------------------------
   1  Screening settings (-IFTHRS, DIFDEN)   -7    T
@  1    -112.483043086        2.14623D+00   -1.12D+02    1
      Virial theorem: -V/T =      2.006841
@      MULPOP C       0.38; O      -0.38; 
 -----------------------------------------------------------------------------
   2  Screening settings (-IFTHRS, DIFDEN)   -7    T
@  2    -112.741429737        4.67683D-01   -2.58D-01    2
      Virial theorem: -V/T =      1.998541
@      MULPOP C       0.22; O      -0.22; 
 -----------------------------------------------------------------------------
   3  Screening settings (-IFTHRS, DIFDEN)   -7    T
@  3    -112.753079066        1.24975D-01   -1.16D-02    3
      Virial theorem: -V/T =      2.001290
@      MULPOP C       0.30; O      -0.30; 
 -----------------------------------------------------------------------------
   4  Screening settings (-IFTHRS, DIFDEN)   -9    F
@  4    -112.753838937        7.83085D-02   -7.60D-04    4
      Virial theorem: -V/T =      2.002561
@      MULPOP C       0.25; O      -0.25; 
 -----------------------------------------------------------------------------
   5  Screening settings (-IFTHRS, DIFDEN)   -9    T
@  5    -112.754145566        1.12061D-02   -3.07D-04    5
      Virial theorem: -V/T =      2.001813
@      MULPOP C       0.27; O      -0.27; 
 -----------------------------------------------------------------------------
   6  Screening settings (-IFTHRS, DIFDEN)   -9    T
@  6    -112.754157068        2.85118D-03   -1.15D-05    6
      Virial theorem: -V/T =      2.001867
@      MULPOP C       0.27; O      -0.27; 
 -----------------------------------------------------------------------------
   7  Screening settings (-IFTHRS, DIFDEN)   -9    T
@  7    -112.754157735        4.76113D-04   -6.66D-07    7
      Virial theorem: -V/T =      2.001877
@      MULPOP C       0.27; O      -0.27; 
 -----------------------------------------------------------------------------
   8  Screening settings (-IFTHRS, DIFDEN)  -11    F
@  8    -112.754157756        5.09152D-05   -2.09D-08    8
      Virial theorem: -V/T =      2.001879
@      MULPOP C       0.27; O      -0.27; 
 -----------------------------------------------------------------------------
   9  Screening settings (-IFTHRS, DIFDEN)  -11    T
@  9    -112.754157756        5.53321D-06   -4.05D-10    9
      Virial theorem: -V/T =      2.001879
@      MULPOP C       0.27; O      -0.27; 
 -----------------------------------------------------------------------------
  10  Screening settings (-IFTHRS, DIFDEN)  -13    F
@ 10    -112.754157756        7.23341D-07   -5.03D-12   10
      Virial theorem: -V/T =      2.001879
@      MULPOP C       0.27; O      -0.27; 
 -----------------------------------------------------------------------------
  11  Screening settings (-IFTHRS, DIFDEN)  -16    F
@ 11    -112.754157756        1.06407D-07    1.14D-13   10
      Virial theorem: -V/T =      2.001879
@      MULPOP C       0.27; O      -0.27; 
 -----------------------------------------------------------------------------
  12  Screening settings (-IFTHRS, DIFDEN)  -16    T
@ 12    -112.754157756        1.10869D-08   -5.68D-14   10
      Virial theorem: -V/T =      2.001879
@      MULPOP C       0.27; O      -0.27; 
 -----------------------------------------------------------------------------
  13  Screening settings (-IFTHRS, DIFDEN)  -16    T
@ 13    -112.754157756        1.34247D-09    5.68D-14   10
      Virial theorem: -V/T =      2.001879
@      MULPOP C       0.27; O      -0.27; 
 -----------------------------------------------------------------------------
  14  Screening settings (-IFTHRS, DIFDEN)  -16    T
@ 14    -112.754157756        1.65636D-10    1.42D-13   10
      Virial theorem: -V/T =      2.001879
@      MULPOP C       0.27; O      -0.27; 
 -----------------------------------------------------------------------------
  15  Screening settings (-IFTHRS, DIFDEN)  -16    T
@ 15    -112.754157756        2.71040D-11   -3.69D-13   10

@ *** DIIS converged in  15 iterations !
@     Converged SCF energy, gradient:   -112.754157756098    2.71D-11
    - total time used in SIRFCK :              0.00 seconds


 *** SCF orbital energy analysis ***

 Only the five lowest virtual orbital energies printed in each symmetry.

 Number of electrons :   14
 Orbital occupations :    7

 Sym       Hartree-Fock orbital energies

  1    -20.67864489   -11.37603113    -1.52620528    -0.80784557    -0.63870068
        -0.63870068    -0.55530745     0.07858432     0.07858432     0.08143588
         0.10551720     0.16944782

    E(LUMO) :     0.07858432 au (symmetry 1)
  - E(HOMO) :    -0.55530745 au (symmetry 1)
  ------------------------------------------
    gap     :     0.63389177 au

 >>> Writing SIRIFC interface file <<<

 >>>> CPU and wall time for SCF :       1.603       1.724


                       .-----------------------------------.
                       | >>> Final results from SIRIUS <<< |
                       `-----------------------------------'


@    Spin multiplicity:           1
@    Spatial symmetry:            1
@    Total charge of molecule:    0

@    Final HF energy:            -112.754157756098                 
@    Nuclear repulsion:            22.406701680157
@    Electronic energy:          -135.160859436255

@    Final gradient norm:           0.000000000027

 
     Date and time (Linux)  : Sun Sep  8 20:45:38 2013
     Host name              : lpqlx131.ups-tlse.fr                    

 (Only coefficients >0.0100 are printed.)

 Molecular orbitals for symmetry species  1
 ------------------------------------------

    Orbital         3        4        5        6        7        8        9
   2 C   :1s    -0.2285   0.2990   0.0000  -0.0000  -0.2897   0.0000   0.0000
   3 C   :1s    -0.0998   0.2479   0.0000  -0.0000  -0.4541   0.0000   0.0000
   4 C   :1s    -0.0124   0.0321   0.0000  -0.0000  -0.0219   0.0000   0.0000
   5 C   :2px    0.0000  -0.0000  -0.0017   0.2907  -0.0000  -0.1669   0.0144
   6 C   :2py    0.0000  -0.0000  -0.2907  -0.0017  -0.0000  -0.0144  -0.1669
   7 C   :2pz    0.2181  -0.1340   0.0000  -0.0000  -0.4646  -0.0000  -0.0000
   8 C   :2px    0.0000  -0.0000  -0.0006   0.0975  -0.0000  -0.1664   0.0144
   9 C   :2py    0.0000  -0.0000  -0.0975  -0.0006  -0.0000  -0.0144  -0.1664
  10 C   :2pz    0.0019  -0.0106   0.0000  -0.0000  -0.1924  -0.0000   0.0000
  11 C   :2px    0.0000  -0.0000   0.0000  -0.0053  -0.0000  -1.2897   0.1113
  12 C   :2py    0.0000  -0.0000   0.0053   0.0000  -0.0000  -0.1113  -1.2897
  13 C   :2pz    0.0013  -0.0062   0.0000  -0.0000  -0.0122   0.0000   0.0000
  15 C   :3d1-   0.0000  -0.0000   0.0559   0.0003  -0.0000  -0.0023  -0.0262
  16 C   :3d0   -0.0454   0.0244  -0.0000  -0.0000   0.0388  -0.0000  -0.0000
  17 C   :3d1+  -0.0000  -0.0000   0.0003  -0.0559  -0.0000  -0.0262   0.0023
  20 C   :3d1-   0.0000  -0.0000  -0.0103  -0.0001  -0.0000   0.0044   0.0512
  21 C   :3d0    0.0168   0.0002   0.0000  -0.0000  -0.0047  -0.0000  -0.0000
  22 C   :3d1+  -0.0000  -0.0000  -0.0001   0.0103  -0.0000   0.0512  -0.0044
  25 O   :1s    -0.4201  -0.2372   0.0000   0.0000   0.0371  -0.0000  -0.0000
  26 O   :1s    -0.3629  -0.4167   0.0000   0.0000  -0.0217  -0.0000  -0.0000
  27 O   :1s     0.0396  -0.1176  -0.0000   0.0000  -0.0892   0.0000   0.0000
  28 O   :2px    0.0000   0.0000  -0.0031   0.5483   0.0000   0.1913  -0.0165
  29 O   :2py   -0.0000  -0.0000  -0.5483  -0.0031   0.0000   0.0165   0.1913
  30 O   :2pz   -0.1602   0.4954  -0.0000  -0.0000   0.2559  -0.0000  -0.0000
  31 O   :2px    0.0000   0.0000  -0.0021   0.3675  -0.0000   0.1752  -0.0151
  32 O   :2py   -0.0000  -0.0000  -0.3675  -0.0021   0.0000   0.0151   0.1752
  33 O   :2pz   -0.0099   0.2162  -0.0000  -0.0000   0.1008  -0.0000  -0.0000
  34 O   :2px    0.0000   0.0000  -0.0002   0.0379  -0.0000   0.5876  -0.0507
  35 O   :2py   -0.0000  -0.0000  -0.0379  -0.0002   0.0000   0.0507   0.5876
  36 O   :2pz    0.0224  -0.0095  -0.0000  -0.0000  -0.0086  -0.0000  -0.0000
  38 O   :3d1-  -0.0000   0.0000  -0.0273  -0.0002   0.0000  -0.0003  -0.0038
  39 O   :3d0   -0.0222   0.0220   0.0000  -0.0000   0.0153   0.0000   0.0000
  40 O   :3d1+  -0.0000   0.0000  -0.0002   0.0273   0.0000  -0.0038   0.0003
  43 O   :3d1-   0.0000  -0.0000  -0.0232  -0.0001  -0.0000   0.0002   0.0024
  44 O   :3d0    0.0165  -0.0040  -0.0000   0.0000  -0.0174   0.0000   0.0000
  45 O   :3d1+  -0.0000  -0.0000  -0.0001   0.0232  -0.0000   0.0024  -0.0002



 >>>> Total CPU  time used in SIRIUS :      1.61 seconds
 >>>> Total wall time used in SIRIUS :      1.73 seconds

 
     Date and time (Linux)  : Sun Sep  8 20:45:38 2013
     Host name              : lpqlx131.ups-tlse.fr                    


                     .---------------------------------------.
                     | End of Wave Function Section (SIRIUS) |
                     `---------------------------------------'



                    .------------------------------------------.
                    | Starting in Coupled Cluster Section (CC) |
                    `------------------------------------------'

  

 *******************************************************************************
 *******************************************************************************
 *                                                                             *
 *                                                                             *
 *                    START OF COUPLED CLUSTER CALCULATION                     *
 *                                                                             *
 *                                                                             *
 *******************************************************************************
 *******************************************************************************


 LWORK =        63271643



 CCR12 ANSATZ =   0

 CCR12 APPROX =   0

   

 *******************************************************************
 *                                                                 *
 *<<<<<<<<<<                                             >>>>>>>>>>*
 *<<<<<<<<<< OUTPUT FROM COUPLED CLUSTER ENERGY PROGRAM  >>>>>>>>>>*
 *<<<<<<<<<<                                             >>>>>>>>>>*
 *                                                                 *
 *******************************************************************


             The Direct Coupled Cluster Energy Program
             -----------------------------------------


          Number of t1 amplitudes                 :       195
          Number of t2 amplitudes                 :     19110
          Total number of amplitudes in ccsd      :     19305

 could not find required file CCR0_1___1
 IOPTSV is    33 ... program continues nevertheless.


                        +---------------------------------+
                        ! Largest amplitudes in MP2 guess !
                        +---------------------------------+



          CC_PRAM:Overall Contribution of the Different Components
          --------------------------------------------------------



          Single Excitation Contribution :               0.0000 %

          Double Excitation Contribution :             100.0000 %

          ||T1||/||T2||                  :               0.0000

          Norm of Total Amplitude Vector :               0.2075


 +=============================================================================+
 | symmetry|  orbital index  |   Excitation Numbers             |   Amplitude  |
 |  Index  |   a   b   i   j |      NAI      NBJ |     NAIBJ    |              |
 +=============================================================================+
 +-----------------------------------------------------------------------------+
 | 1 1 1 1 |  19  19   2   2 |       58       58 |         1711 |   -0.018034  |
 | 1 1 1 1 |  25  25   2   2 |       64       64 |         2080 |   -0.017202  |
 | 1 1 1 1 |   2   2   3   3 |       80       80 |         3240 |   -0.018421  |
 | 1 1 1 1 |   5   2   3   3 |       83       80 |         3483 |    0.024225  |
 | 1 1 1 1 |   6   2   4   3 |      123       80 |         7583 |   -0.019530  |
 | 1 1 1 1 |   5   5   3   3 |       83       83 |         3486 |   -0.039495  |
 | 1 1 1 1 |   9   5   3   3 |       87       83 |         3824 |    0.018448  |
 | 1 1 1 1 |   1   5   4   3 |      118       83 |         6986 |   -0.019530  |
 | 1 1 1 1 |   6   5   4   3 |      123       83 |         7586 |    0.031543  |
 | 1 1 1 1 |  28  28   3   3 |      106      106 |         5671 |   -0.018898  |
 | 1 1 1 1 |   1   1   4   4 |      118      118 |         7021 |   -0.018421  |
 | 1 1 1 1 |   6   1   4   4 |      123      118 |         7621 |    0.024225  |
 | 1 1 1 1 |   6   6   4   4 |      123      123 |         7626 |   -0.039495  |
 | 1 1 1 1 |   8   6   4   4 |      125      123 |         7873 |    0.018448  |
 | 1 1 1 1 |  29  29   4   4 |      146      146 |        10731 |   -0.018898  |
 | 1 1 1 1 |   6   1   5   5 |      162      157 |        13198 |    0.017025  |
 | 1 1 1 1 |   5   2   5   5 |      161      158 |        13038 |    0.017025  |
 | 1 1 1 1 |   5   5   5   5 |      161      161 |        13041 |   -0.029622  |
 | 1 1 1 1 |   6   6   5   5 |      162      162 |        13203 |   -0.029622  |
 | 1 1 1 1 |  22  22   5   5 |      178      178 |        15931 |   -0.025671  |
 +=============================================================================+


          Norm of Printed Amplitude Vector :             0.1083

          Printed all single excitations greater than 0.010000

          Printed all double excitations greater than 0.016667
 Iter.  1: Coupled cluster MP2   energy :    -113.0544011817663943
     Conventional correlation energy:    -0.3002434256681710

       Iteration no.:  1
       -----------------

       Time used in   RHS - TOTAL  :       1.60 seconds
       Norm^2 of t1am   after ccvec:        0.0000000000D+00
       Norm^2 of t2am   after ccvec:        0.4306390702D-01
       Norm^2 of omega1 after ccvec:        0.3842969096D-02
       Norm^2 of omega2 after ccvec:        0.9686408925D-02
 Iter.  1: Coupled cluster CCSD  energy :    -113.0471116282988504
     Conventional correlation energy:    -0.2929538722006271

       Iteration no.:  2
       -----------------

       Time used in   RHS - TOTAL  :       1.66 seconds
       Norm^2 of t1am   after ccvec:        0.2813036740D-02
       Norm^2 of t2am   after ccvec:        0.4553536452D-01
       Norm^2 of omega1 after ccvec:        0.1948689882D-03
       Norm^2 of omega2 after ccvec:        0.1962450854D-02
 Iter.  2: Coupled cluster CCSD  energy :    -113.0581891835109047
     Conventional correlation energy:    -0.3040314274126814

       Iteration no.:  3
       -----------------

       Time used in   RHS - TOTAL  :       1.60 seconds
       Norm^2 of t1am   after ccvec:        0.2377709084D-02
       Norm^2 of t2am   after ccvec:        0.5139874841D-01
       Norm^2 of omega1 after ccvec:        0.6212609097D-04
       Norm^2 of omega2 after ccvec:        0.1867235117D-03
 Iter.  3: Coupled cluster CCSD  energy :    -113.0615194033849349
     Conventional correlation energy:    -0.3073616472867116

       Iteration no.:  4
       -----------------

       Time used in   RHS - TOTAL  :       1.64 seconds
       Norm^2 of t1am   after ccvec:        0.3497620432D-02
       Norm^2 of t2am   after ccvec:        0.5487857326D-01
       Norm^2 of omega1 after ccvec:        0.2673821523D-05
       Norm^2 of omega2 after ccvec:        0.1079936511D-04
 Iter.  4: Coupled cluster CCSD  energy :    -113.0611420936940448
     Conventional correlation energy:    -0.3069843375958214

       Iteration no.:  5
       -----------------

       Time used in   RHS - TOTAL  :       1.65 seconds
       Norm^2 of t1am   after ccvec:        0.3645087119D-02
       Norm^2 of t2am   after ccvec:        0.5508961921D-01
       Norm^2 of omega1 after ccvec:        0.1879133912D-06
       Norm^2 of omega2 after ccvec:        0.1362301135D-05
 Iter.  5: Coupled cluster CCSD  energy :    -113.0612039153963906
     Conventional correlation energy:    -0.3070461592981673

       Iteration no.:  6
       -----------------

       Time used in   RHS - TOTAL  :       1.62 seconds
       Norm^2 of t1am   after ccvec:        0.3708258165D-02
       Norm^2 of t2am   after ccvec:        0.5520010116D-01
       Norm^2 of omega1 after ccvec:        0.8048188204D-08
       Norm^2 of omega2 after ccvec:        0.6055255346D-07
 Iter.  6: Coupled cluster CCSD  energy :    -113.0612080781169624
     Conventional correlation energy:    -0.3070503220187391

       Iteration no.:  7
       -----------------

       Time used in   RHS - TOTAL  :       1.60 seconds
       Norm^2 of t1am   after ccvec:        0.3721232189D-02
       Norm^2 of t2am   after ccvec:        0.5519381212D-01
       Norm^2 of omega1 after ccvec:        0.4139489235D-09
       Norm^2 of omega2 after ccvec:        0.3342204174D-08
 Iter.  7: Coupled cluster CCSD  energy :    -113.0612074445894280
     Conventional correlation energy:    -0.3070496884912046

       Iteration no.:  8
       -----------------

       Time used in   RHS - TOTAL  :       1.65 seconds
       Norm^2 of t1am   after ccvec:        0.3722866436D-02
       Norm^2 of t2am   after ccvec:        0.5518973488D-01
       Norm^2 of omega1 after ccvec:        0.6641785391D-10
       Norm^2 of omega2 after ccvec:        0.2989968377D-09
 Iter.  8: Coupled cluster CCSD  energy :    -113.0612074182952682
     Conventional correlation energy:    -0.3070496621970449

       Iteration no.:  9
       -----------------

       Time used in   RHS - TOTAL  :       1.60 seconds
       Norm^2 of t1am   after ccvec:        0.3723807636D-02
       Norm^2 of t2am   after ccvec:        0.5518908133D-01
       Norm^2 of omega1 after ccvec:        0.3922203221D-11
       Norm^2 of omega2 after ccvec:        0.2332974854D-10
 Iter.  9: Coupled cluster CCSD  energy :    -113.0612069735473710
     Conventional correlation energy:    -0.3070492174491477

       Iteration no.: 10
       -----------------

       Time used in   RHS - TOTAL  :       1.60 seconds
       Norm^2 of t1am   after ccvec:        0.3723998864D-02
       Norm^2 of t2am   after ccvec:        0.5518872651D-01
       Norm^2 of omega1 after ccvec:        0.5542269320D-12
       Norm^2 of omega2 after ccvec:        0.4332703798D-11
 Iter. 10: Coupled cluster CCSD  energy :    -113.0612070771852018
     Conventional correlation energy:    -0.3070493210869785

       Iteration no.: 11
       -----------------

       Time used in   RHS - TOTAL  :       1.60 seconds
       Norm^2 of t1am   after ccvec:        0.3724012649D-02
       Norm^2 of t2am   after ccvec:        0.5518868720D-01
       Norm^2 of omega1 after ccvec:        0.1786780468D-12
       Norm^2 of omega2 after ccvec:        0.7942838914D-12
 Iter. 11: Coupled cluster CCSD  energy :    -113.0612070035364098
     Conventional correlation energy:    -0.3070492474381865

       Iteration no.: 12
       -----------------

       Time used in   RHS - TOTAL  :       1.61 seconds
       Norm^2 of t1am   after ccvec:        0.3724069453D-02
       Norm^2 of t2am   after ccvec:        0.5518858171D-01
       Norm^2 of omega1 after ccvec:        0.2722911114D-14
       Norm^2 of omega2 after ccvec:        0.2755454268D-13
 Iter. 12: Coupled cluster CCSD  energy :    -113.0612070038443875
     Conventional correlation energy:    -0.3070492477461642

       Iteration no.: 13
       -----------------

       Time used in   RHS - TOTAL  :       1.62 seconds
       Norm^2 of t1am   after ccvec:        0.3724072508D-02
       Norm^2 of t2am   after ccvec:        0.5518857194D-01
       Norm^2 of omega1 after ccvec:        0.2212151175D-15
       Norm^2 of omega2 after ccvec:        0.2478630830D-14
 Iter. 13: Coupled cluster CCSD  energy :    -113.0612070041095336
     Conventional correlation energy:    -0.3070492480113103

       Iteration no.: 14
       -----------------

       Time used in   RHS - TOTAL  :       1.62 seconds
       Norm^2 of t1am   after ccvec:        0.3724073776D-02
       Norm^2 of t2am   after ccvec:        0.5518857001D-01
       Norm^2 of omega1 after ccvec:        0.1863605989D-16
       Norm^2 of omega2 after ccvec:        0.1734746051D-15
 Iter. 14: Coupled cluster CCSD  energy :    -113.0612070037511501
     Conventional correlation energy:    -0.3070492476529267

       Iteration no.: 15
       -----------------

       Time used in   RHS - TOTAL  :       1.60 seconds
       Norm^2 of t1am   after ccvec:        0.3724073967D-02
       Norm^2 of t2am   after ccvec:        0.5518857026D-01
       Norm^2 of omega1 after ccvec:        0.2843627228D-17
       Norm^2 of omega2 after ccvec:        0.9682219049D-17
 Iter. 15: Coupled cluster CCSD  energy :    -113.0612070036753209
     Conventional correlation energy:    -0.3070492475770976

 CCSD  energy converged to within   0.10D-09 is         -113.061207003675
 Final 2-norm of the CC vector function:  3.53918723D-09


                    +------------------------------------------+
                    ! Largest amplitudes in converged solution !
                    +------------------------------------------+



          CC_PRAM:Overall Contribution of the Different Components
          --------------------------------------------------------



          Single Excitation Contribution :               6.3213 %

          Double Excitation Contribution :              93.6787 %

          ||T1||/||T2||                  :               0.2598

          Tau1 diagnostic                :               0.0193

          Norm of Total Amplitude Vector :               0.2427


 +=============================================================================+
 | symmetry|  orbital index  |   Excitation Numbers             |   Amplitude  |
 |  Index  |   a   b   i   j |      NAI      NBJ |     NAIBJ    |              |
 +=============================================================================+
 | 1   1   |   5       3     |       83          |              |   -0.030630  |
 | 1   1   |   6       4     |      123          |              |    0.030630  |
 +-----------------------------------------------------------------------------+
 | 1 1 1 1 |   5   5   2   2 |       44       44 |          990 |   -0.017029  |
 | 1 1 1 1 |   5   5   5   2 |      161       44 |        12924 |    0.016965  |
 | 1 1 1 1 |   6   6   2   2 |       45       45 |         1035 |   -0.017029  |
 | 1 1 1 1 |   6   6   5   2 |      162       45 |        13086 |    0.016965  |
 | 1 1 1 1 |  19  19   2   2 |       58       58 |         1711 |   -0.018850  |
 | 1 1 1 1 |  25  25   2   2 |       64       64 |         2080 |   -0.018531  |
 | 1 1 1 1 |   2   2   3   3 |       80       80 |         3240 |   -0.020599  |
 | 1 1 1 1 |   5   2   3   3 |       83       80 |         3483 |    0.027999  |
 | 1 1 1 1 |   9   2   3   3 |       87       80 |         3821 |   -0.018020  |
 | 1 1 1 1 |   6   2   4   3 |      123       80 |         7583 |   -0.018381  |
 | 1 1 1 1 |   5   5   3   3 |       83       83 |         3486 |   -0.044436  |
 | 1 1 1 1 |   9   5   3   3 |       87       83 |         3824 |    0.021982  |
 | 1 1 1 1 |  14   5   3   3 |       92       83 |         4269 |    0.018258  |
 | 1 1 1 1 |   1   5   4   3 |      118       83 |         6986 |   -0.018381  |
 | 1 1 1 1 |   6   5   4   3 |      123       83 |         7586 |    0.029866  |
 | 1 1 1 1 |   9   9   3   3 |       87       87 |         3828 |   -0.017464  |
 | 1 1 1 1 |  28  28   3   3 |      106      106 |         5671 |   -0.018359  |
 | 1 1 1 1 |   1   1   4   4 |      118      118 |         7021 |   -0.020599  |
 | 1 1 1 1 |   6   1   4   4 |      123      118 |         7621 |    0.027999  |
 | 1 1 1 1 |   8   1   4   4 |      125      118 |         7868 |   -0.018020  |
 | 1 1 1 1 |   6   6   4   4 |      123      123 |         7626 |   -0.044436  |
 | 1 1 1 1 |   8   6   4   4 |      125      123 |         7873 |    0.021982  |
 | 1 1 1 1 |  15   6   4   4 |      132      123 |         8769 |    0.018258  |
 | 1 1 1 1 |   8   8   4   4 |      125      125 |         7875 |   -0.017464  |
 | 1 1 1 1 |  29  29   4   4 |      146      146 |        10731 |   -0.018359  |
 | 1 1 1 1 |   6   1   5   5 |      162      157 |        13198 |    0.025832  |
 | 1 1 1 1 |   5   2   5   5 |      161      158 |        13038 |    0.025832  |
 | 1 1 1 1 |   5   5   5   5 |      161      161 |        13041 |   -0.046082  |
 | 1 1 1 1 |   6   6   5   5 |      162      162 |        13203 |   -0.046082  |
 | 1 1 1 1 |  13  13   5   5 |      169      169 |        14365 |   -0.018022  |
 | 1 1 1 1 |  22  22   5   5 |      178      178 |        15931 |   -0.029949  |
 +=============================================================================+


          Norm of Printed Amplitude Vector :             0.1484

          Printed all single excitations greater than 0.020952

          Printed all double excitations greater than 0.016131





             +-------------------------------------------------------+
             ! Final results from the Coupled Cluster energy program !
             +-------------------------------------------------------+



            Total SCF   energy:                  -112.7541577561

            Total MP2   energy:                  -113.0544011818

            Total CCSD  energy:                  -113.0612070037




                   +--------------------------------------------+
                   ! Calculating singlet intermediates for CCLR !
                   +--------------------------------------------+



       Time used in   RHS - TOTAL  :       1.60 seconds


            E-intermediates calculated 
            Fock-intermediate calculated 
            Gamma-intermediate calculated 
            BF-intermediate calculated 
            C-intermediate calculated 
            D-intermediate calculated 



 *******************************************************************

 Ground state energy is target 

 Ecorr =                   -113.06120700367532094788

 *******************************************************************
  

 *******************************************************************************
 *******************************************************************************
 *                                                                             *
 *                                                                             *
 *                   SUMMARY OF COUPLED CLUSTER CALCULATION                    *
 *                                                                             *
 *                                                                             *
 *******************************************************************************
 *******************************************************************************

                                                                                
                                                                                
            Total SCF   energy:                  -112.7541577561                
            Total MP2   energy:                  -113.0544011818                
            Total CCSD  energy:                  -113.0612070037                
  

 *******************************************************************************
 *******************************************************************************
 *                                                                             *
 *                                                                             *
 *                      END OF COUPLED CLUSTER CALCULATION                     *
 *                                                                             *
 *                                                                             *
 *******************************************************************************
 *******************************************************************************


 >>>> CPU and wall time for CC :      27.266      27.759

 
     Date and time (Linux)  : Sun Sep  8 20:46:06 2013
     Host name              : lpqlx131.ups-tlse.fr                    


                      .-------------------------------------.
                      | End of Coupled Cluster Section (CC) |
                      `-------------------------------------'


     Order of analytical energy-derivatives available:   1
     This will be the default.

 Center of mass dipole origin  :    0.000000    0.000000    0.004286

 Center of mass gauge origin   :    0.000000    0.000000    0.004286


                    .------------------------------------------.
                    | Starting in Coupled Cluster Section (CC) |
                    `------------------------------------------'

  

 *******************************************************************************
 *******************************************************************************
 *                                                                             *
 *                                                                             *
 *                    START OF COUPLED CLUSTER CALCULATION                     *
 *                                                                             *
 *                                                                             *
 *******************************************************************************
 *******************************************************************************


 LWORK =        63271643



 CCR12 ANSATZ =   0

 CCR12 APPROX =   0

   

 *******************************************************************
 *                                                                 *
 *<<<<<<<<<<<<< OUTPUT FROM COUPLED CLUSTER RESPONSE  >>>>>>>>>>>>>*
 *                                                                 *
 *******************************************************************



                         +--------------------------------+
                         ! Coupled Cluster model is: CCSD !
                         +--------------------------------+


 Solving   1 response equations:
 L0 :
 RPA: call cceq_str
 could not find required file CCL0_1___1
 IOPTSV is    33 ... program continues nevertheless.
 Vector nr.  1 of type L0  and symmetry  1 was not found on file.
     Start vector generated from gradient
 RPA: exit cceq_str
 CCEQ_SOL: IPRLE   =               6
 CCEQ_SOL: TRIPLET =     F
 CCEQ_SOL: LINQCC  =     T
 CCEQ_SOL: NREDH   =               1
 CCEQ_SOL: MAXRED  =             200
 CCEQ_SOL: MAXLE   =              40
 CCEQ_SOL: ISIDE   =              -1
 CCEQ_SOL: ISTRVE  =               1
 CCEQ_SOL: NVEC    =               1
 CCEQ_SOL: NUPVEC  =               1
 CCEQ_SOL: NCCVAR  =           19305



 >>>>> COUPLED CLUSTER RESPONSE SOLVER <<<<<

    Iter  #Vectors  time (min)   residual
    --------------------------------------
  >>> Call CC_TRDRV with TRIPLET and ECURR set to: F   0.4940656458412465     


                               +--------------------+
                               !  START OF CC_TRDRV !
                               +--------------------+

  Atomic direct calculation
  Workspace input:     63191042
  Triplet flag   :  F

 CC_TRDRV: The total number of trial vectors is:    1
 CC_TRDRV: Transforming   1      vectors in one call to CC_RHTR.
  
 Time used in CC_LHTR :   1.6499996185302734     
  
  CCRED  
  ISIDE            -1
  LREDS   F
  NREDH             1
  ISTRVE            1
  NUPVEC            1
  NVEC              1
  LWRK       63191042
  
 ROOT:  1 RESIDUAL TOT: 5.47706D-01
      1       1         0.03     0.55E+00
 Dimension of the reduced space:     2
 >>> TIME USED IN THIS MICRO ITERATION        1.65

  >>> Call CC_TRDRV with TRIPLET and ECURR set to: F   0.4940656458412465     


                               +--------------------+
                               !  START OF CC_TRDRV !
                               +--------------------+

  Atomic direct calculation
  Workspace input:     63191042
  Triplet flag   :  F

 CC_TRDRV: The total number of trial vectors is:    1
 CC_TRDRV: Transforming   1      vectors in one call to CC_RHTR.
  
 Time used in CC_LHTR :   1.6429996490478516     
  
  CCRED  
  ISIDE            -1
  LREDS   F
  NREDH             2
  ISTRVE            1
  NUPVEC            1
  NVEC              1
  LWRK       63191042
  
 ROOT:  1 RESIDUAL TOT: 1.78458D-01
      2       1         0.03     0.18E+00
 Dimension of the reduced space:     3
 >>> TIME USED IN THIS MICRO ITERATION        1.65

  >>> Call CC_TRDRV with TRIPLET and ECURR set to: F   0.4940656458412465     


                               +--------------------+
                               !  START OF CC_TRDRV !
                               +--------------------+

  Atomic direct calculation
  Workspace input:     63191042
  Triplet flag   :  F

 CC_TRDRV: The total number of trial vectors is:    1
 CC_TRDRV: Transforming   1      vectors in one call to CC_RHTR.
  
 Time used in CC_LHTR :   1.6549987792968750     
  
  CCRED  
  ISIDE            -1
  LREDS   F
  NREDH             3
  ISTRVE            1
  NUPVEC            1
  NVEC              1
  LWRK       63191042
  
 ROOT:  1 RESIDUAL TOT: 4.46306D-02
      3       1         0.03     0.45E-01
 Dimension of the reduced space:     4
 >>> TIME USED IN THIS MICRO ITERATION        1.66

  >>> Call CC_TRDRV with TRIPLET and ECURR set to: F   0.4940656458412465     


                               +--------------------+
                               !  START OF CC_TRDRV !
                               +--------------------+

  Atomic direct calculation
  Workspace input:     63191042
  Triplet flag   :  F

 CC_TRDRV: The total number of trial vectors is:    1
 CC_TRDRV: Transforming   1      vectors in one call to CC_RHTR.
  
 Time used in CC_LHTR :   1.6580009460449219     
  
  CCRED  
  ISIDE            -1
  LREDS   F
  NREDH             4
  ISTRVE            1
  NUPVEC            1
  NVEC              1
  LWRK       63191042
  
 ROOT:  1 RESIDUAL TOT: 1.27541D-02
      4       1         0.03     0.13E-01
 Dimension of the reduced space:     5
 >>> TIME USED IN THIS MICRO ITERATION        1.66

  >>> Call CC_TRDRV with TRIPLET and ECURR set to: F   0.4940656458412465     


                               +--------------------+
                               !  START OF CC_TRDRV !
                               +--------------------+

  Atomic direct calculation
  Workspace input:     63191042
  Triplet flag   :  F

 CC_TRDRV: The total number of trial vectors is:    1
 CC_TRDRV: Transforming   1      vectors in one call to CC_RHTR.
  
 Time used in CC_LHTR :   1.6790008544921875     
  
  CCRED  
  ISIDE            -1
  LREDS   F
  NREDH             5
  ISTRVE            1
  NUPVEC            1
  NVEC              1
  LWRK       63191042
  
 ROOT:  1 RESIDUAL TOT: 3.03362D-03
      5       1         0.03     0.30E-02
 Dimension of the reduced space:     6
 >>> TIME USED IN THIS MICRO ITERATION        1.68

  >>> Call CC_TRDRV with TRIPLET and ECURR set to: F   0.4940656458412465     


                               +--------------------+
                               !  START OF CC_TRDRV !
                               +--------------------+

  Atomic direct calculation
  Workspace input:     63191042
  Triplet flag   :  F

 CC_TRDRV: The total number of trial vectors is:    1
 CC_TRDRV: Transforming   1      vectors in one call to CC_RHTR.
  
 Time used in CC_LHTR :   1.6780014038085938     
  
  CCRED  
  ISIDE            -1
  LREDS   F
  NREDH             6
  ISTRVE            1
  NUPVEC            1
  NVEC              1
  LWRK       63191042
  
 ROOT:  1 RESIDUAL TOT: 8.19271D-04
      6       1         0.03     0.82E-03
 Dimension of the reduced space:     7
 >>> TIME USED IN THIS MICRO ITERATION        1.69

  >>> Call CC_TRDRV with TRIPLET and ECURR set to: F   0.4940656458412465     


                               +--------------------+
                               !  START OF CC_TRDRV !
                               +--------------------+

  Atomic direct calculation
  Workspace input:     63191042
  Triplet flag   :  F

 CC_TRDRV: The total number of trial vectors is:    1
 CC_TRDRV: Transforming   1      vectors in one call to CC_RHTR.
  
 Time used in CC_LHTR :   1.6790008544921875     
  
  CCRED  
  ISIDE            -1
  LREDS   F
  NREDH             7
  ISTRVE            1
  NUPVEC            1
  NVEC              1
  LWRK       63191042
  
 ROOT:  1 RESIDUAL TOT: 2.31447D-04
      7       1         0.03     0.23E-03
 Dimension of the reduced space:     8
 >>> TIME USED IN THIS MICRO ITERATION        1.68

  >>> Call CC_TRDRV with TRIPLET and ECURR set to: F   0.4940656458412465     


                               +--------------------+
                               !  START OF CC_TRDRV !
                               +--------------------+

  Atomic direct calculation
  Workspace input:     63191042
  Triplet flag   :  F

 CC_TRDRV: The total number of trial vectors is:    1
 CC_TRDRV: Transforming   1      vectors in one call to CC_RHTR.
  
 Time used in CC_LHTR :   1.6809997558593750     
  
  CCRED  
  ISIDE            -1
  LREDS   F
  NREDH             8
  ISTRVE            1
  NUPVEC            1
  NVEC              1
  LWRK       63191042
  
 ROOT:  1 RESIDUAL TOT: 7.15056D-05
      8       1         0.03     0.72E-04
 Dimension of the reduced space:     9
 >>> TIME USED IN THIS MICRO ITERATION        1.69

  >>> Call CC_TRDRV with TRIPLET and ECURR set to: F   0.4940656458412465     


                               +--------------------+
                               !  START OF CC_TRDRV !
                               +--------------------+

  Atomic direct calculation
  Workspace input:     63191042
  Triplet flag   :  F

 CC_TRDRV: The total number of trial vectors is:    1
 CC_TRDRV: Transforming   1      vectors in one call to CC_RHTR.
  
 Time used in CC_LHTR :   1.7170028686523438     
  
  CCRED  
  ISIDE            -1
  LREDS   F
  NREDH             9
  ISTRVE            1
  NUPVEC            1
  NVEC              1
  LWRK       63191042
  
 ROOT:  1 RESIDUAL TOT: 1.88804D-05
      9       1         0.03     0.19E-04
 Dimension of the reduced space:    10
 >>> TIME USED IN THIS MICRO ITERATION        1.72

  >>> Call CC_TRDRV with TRIPLET and ECURR set to: F   0.4940656458412465     


                               +--------------------+
                               !  START OF CC_TRDRV !
                               +--------------------+

  Atomic direct calculation
  Workspace input:     63191042
  Triplet flag   :  F

 CC_TRDRV: The total number of trial vectors is:    1
 CC_TRDRV: Transforming   1      vectors in one call to CC_RHTR.
  
 Time used in CC_LHTR :   1.7010002136230469     
  
  CCRED  
  ISIDE            -1
  LREDS   F
  NREDH            10
  ISTRVE            1
  NUPVEC            1
  NVEC              1
  LWRK       63191042
  
 ROOT:  1 RESIDUAL TOT: 5.09015D-06
     10       1         0.03     0.51E-05
 Dimension of the reduced space:    11
 >>> TIME USED IN THIS MICRO ITERATION        1.71

  >>> Call CC_TRDRV with TRIPLET and ECURR set to: F   0.4940656458412465     


                               +--------------------+
                               !  START OF CC_TRDRV !
                               +--------------------+

  Atomic direct calculation
  Workspace input:     63191042
  Triplet flag   :  F

 CC_TRDRV: The total number of trial vectors is:    1
 CC_TRDRV: Transforming   1      vectors in one call to CC_RHTR.
  
 Time used in CC_LHTR :   1.6769981384277344     
  
  CCRED  
  ISIDE            -1
  LREDS   F
  NREDH            11
  ISTRVE            1
  NUPVEC            1
  NVEC              1
  LWRK       63191042
  
 ROOT:  1 RESIDUAL TOT: 1.33727D-06
     11       1         0.03     0.13E-05
 Dimension of the reduced space:    12
 >>> TIME USED IN THIS MICRO ITERATION        1.68

  >>> Call CC_TRDRV with TRIPLET and ECURR set to: F   0.4940656458412465     


                               +--------------------+
                               !  START OF CC_TRDRV !
                               +--------------------+

  Atomic direct calculation
  Workspace input:     63191042
  Triplet flag   :  F

 CC_TRDRV: The total number of trial vectors is:    1
 CC_TRDRV: Transforming   1      vectors in one call to CC_RHTR.
  
 Time used in CC_LHTR :   1.7080001831054688     
  
  CCRED  
  ISIDE            -1
  LREDS   F
  NREDH            12
  ISTRVE            1
  NUPVEC            1
  NVEC              1
  LWRK       63191042
  
 ROOT:  1 RESIDUAL TOT: 3.90817D-07
     12       1         0.03     0.39E-06
 Dimension of the reduced space:    13
 >>> TIME USED IN THIS MICRO ITERATION        1.72

  >>> Call CC_TRDRV with TRIPLET and ECURR set to: F   0.4940656458412465     


                               +--------------------+
                               !  START OF CC_TRDRV !
                               +--------------------+

  Atomic direct calculation
  Workspace input:     63191042
  Triplet flag   :  F

 CC_TRDRV: The total number of trial vectors is:    1
 CC_TRDRV: Transforming   1      vectors in one call to CC_RHTR.
  
 Time used in CC_LHTR :   1.7109985351562500     
  
  CCRED  
  ISIDE            -1
  LREDS   F
  NREDH            13
  ISTRVE            1
  NUPVEC            1
  NVEC              1
  LWRK       63191042
  
 ROOT:  1 RESIDUAL TOT: 1.09255D-07
     13       1         0.03     0.11E-06
 Dimension of the reduced space:    14
 >>> TIME USED IN THIS MICRO ITERATION        1.72

  >>> Call CC_TRDRV with TRIPLET and ECURR set to: F   0.4940656458412465     


                               +--------------------+
                               !  START OF CC_TRDRV !
                               +--------------------+

  Atomic direct calculation
  Workspace input:     63191042
  Triplet flag   :  F

 CC_TRDRV: The total number of trial vectors is:    1
 CC_TRDRV: Transforming   1      vectors in one call to CC_RHTR.
  
 Time used in CC_LHTR :   1.7049980163574219     
  
  CCRED  
  ISIDE            -1
  LREDS   F
  NREDH            14
  ISTRVE            1
  NUPVEC            1
  NVEC              1
  LWRK       63191042
  
 ROOT:  1 RESIDUAL TOT: 2.86778D-08
     14       1         0.03     0.29E-07
 Dimension of the reduced space:    15
 >>> TIME USED IN THIS MICRO ITERATION        1.71

  >>> Call CC_TRDRV with TRIPLET and ECURR set to: F   0.4940656458412465     


                               +--------------------+
                               !  START OF CC_TRDRV !
                               +--------------------+

  Atomic direct calculation
  Workspace input:     63191042
  Triplet flag   :  F

 CC_TRDRV: The total number of trial vectors is:    1
 CC_TRDRV: Transforming   1      vectors in one call to CC_RHTR.
  
 Time used in CC_LHTR :   1.6900024414062500     
  
  CCRED  
  ISIDE            -1
  LREDS   F
  NREDH            15
  ISTRVE            1
  NUPVEC            1
  NVEC              1
  LWRK       63191042
  
 ROOT:  1 RESIDUAL TOT: 7.36155D-09
     15       1         0.03     0.74E-08
 Dimension of the reduced space:    16
 >>> TIME USED IN THIS MICRO ITERATION        1.70

  >>> Call CC_TRDRV with TRIPLET and ECURR set to: F   0.4940656458412465     


                               +--------------------+
                               !  START OF CC_TRDRV !
                               +--------------------+

  Atomic direct calculation
  Workspace input:     63191042
  Triplet flag   :  F

 CC_TRDRV: The total number of trial vectors is:    1
 CC_TRDRV: Transforming   1      vectors in one call to CC_RHTR.
  
 Time used in CC_LHTR :   1.6970024108886719     
  
  CCRED  
  ISIDE            -1
  LREDS   F
  NREDH            16
  ISTRVE            1
  NUPVEC            1
  NVEC              1
  LWRK       63191042
  
 ROOT:  1 RESIDUAL TOT: 2.21985D-09
     16       1         0.03     0.22E-08
 Dimension of the reduced space:    17
 >>> TIME USED IN THIS MICRO ITERATION        1.71

  >>> Call CC_TRDRV with TRIPLET and ECURR set to: F   0.4940656458412465     


                               +--------------------+
                               !  START OF CC_TRDRV !
                               +--------------------+

  Atomic direct calculation
  Workspace input:     63191042
  Triplet flag   :  F

 CC_TRDRV: The total number of trial vectors is:    1
 CC_TRDRV: Transforming   1      vectors in one call to CC_RHTR.
  
 Time used in CC_LHTR :   1.6839981079101563     
  
  CCRED  
  ISIDE            -1
  LREDS   F
  NREDH            17
  ISTRVE            1
  NUPVEC            1
  NVEC              1
  LWRK       63191042
  
 ROOT:  1 RESIDUAL TOT: 5.21214D-10
 ROOT:  1 HAS CONVERGED. RESIDUAL TOT: 5.21214D-10
     17       1         0.03     0.52E-09
 Dimension of the reduced space:    17
 >>> TIME USED IN THIS MICRO ITERATION        1.69

    --------------------------------------
    converged in 17 iterations
    threshold:    0.10E-08


         Routine          Time (min)
         ---------------------------
         CC_TRDRV            0.48
         CCRED               0.00
         CCNEX               0.00
         ---------------------------
         Total time          0.48


 >>>> Total CPU  time used in CCEQ_SOLV:  28.72 seconds
 >>>> Total wall time used in CCEQ_SOLV:  30.34 seconds


 >>>>>>>>>>>>>>>>>>>>> <<<<<<<<<<<<<<<<<<<<<



 Analysis of CC Response/Cauchy vector:
 --------------------------------------


          CC_PRAM:Overall Contribution of the Different Components
          --------------------------------------------------------



          Single Excitation Contribution :               1.6109 %

          Double Excitation Contribution :              98.3891 %

          ||T1||/||T2||                  :               0.1280

          Norm of Total Amplitude Vector :               0.5850


 +=============================================================================+
 | symmetry|  orbital index  |   Excitation Numbers             |   Amplitude  |
 |  Index  |   a   b   i   j |      NAI      NBJ |     NAIBJ    |              |
 +=============================================================================+
 | 1   1   |   2       3     |       80          |              |    0.013211  |
 | 1   1   |   5       3     |       83          |              |   -0.026715  |
 | 1   1   |  17       3     |       95          |              |   -0.012874  |
 | 1   1   |  28       3     |      106          |              |    0.021148  |
 | 1   1   |   1       4     |      118          |              |   -0.013211  |
 | 1   1   |   6       4     |      123          |              |    0.026715  |
 | 1   1   |  18       4     |      135          |              |    0.012874  |
 | 1   1   |  29       4     |      146          |              |   -0.021148  |
 | 1   1   |   3       5     |      159          |              |    0.023488  |
 | 1   1   |  10       5     |      166          |              |    0.025467  |
 | 1   1   |  13       5     |      169          |              |   -0.010898  |
 | 1   1   |  19       5     |      175          |              |    0.015470  |
 | 1   1   |  22       5     |      178          |              |    0.017215  |
 +-----------------------------------------------------------------------------+
 | 1 1 1 1 |   6   5   4   3 |      123       83 |         7586 |    0.092315  |
 | 1 1 1 1 |   5   5   5   5 |      161      161 |        13041 |   -0.088343  |
 | 1 1 1 1 |   6   6   5   5 |      162      162 |        13203 |   -0.088343  |
 +=============================================================================+


          Norm of Printed Amplitude Vector :             0.1703

          Printed all single excitations greater than 0.010577

          Printed all double excitations greater than 0.082659
            Norm of singles part:        0.7425109185E-01
            Norm of doubles part:        0.5802876277E+00


                  Constructing right-hand-side for CCSD-kappa-0
                  ---------------------------------------------

  
 Requested density dependent quantities calculated
 Total time used in CC_DEN:   3.5900001525878906     
 CC_FOP> Norm of RHS vector:   1.3664283798887969E-003


                      Solving for orbital relaxation vector
                      -------------------------------------



  THIS IS OUTPUT FROM THE MCSCF AND SOPPA RESPONSE SOLVER
 ---------------------------------------------------------


 Symmetry of singlet property operator     1
 Number of operators for singlet linear response equations:     1
 Number of response frequencies:     1
 Convergence threshold:     1.00D-09


   SCF energy         :     -112.754157756098223
 -- inactive part     :     -135.160859436254952
 -- nuclear repulsion :       22.406701680156726


 >>>>>>>>>> Symmetry of excitation/property operator    1

 Number of operators for linear response equations:     1
 Number of response frequencies:     1


 Perturbation symmetry.     KSYMOP:       1
[...]

 ** RSPCTL MICROITERATION NUMBER    1

 GP * SOLUTION vector at frequency     0.00000 a.u.
 after    1 linear transformations is      0.00001435
 INERTIA (POS,ZER,NEG) of reduced matrix is    2    0    0
 Determinant of reduced matrix is  2.05 * 10 **  0.0

       No.  Residual tot.,    conf., and orb.    Bnorm      Frequency 
      ----------------------------------------------------------------
         1    5.40250D-02  0.00D+00  5.40D-02  3.16D-03    0.00000D+00

 ** RSPCTL MICROITERATION NUMBER    2

 GP * SOLUTION vector at frequency     0.00000 a.u.
 after    2 linear transformations is      0.00069689
 INERTIA (POS,ZER,NEG) of reduced matrix is    4    0    0
 Determinant of reduced matrix is  7.20 * 10 **  0.0

       No.  Residual tot.,    conf., and orb.    Bnorm      Frequency 
      ----------------------------------------------------------------
         1    2.15077D-02  0.00D+00  2.15D-02  1.55D-02    0.00000D+00

 ** RSPCTL MICROITERATION NUMBER    3

 GP * SOLUTION vector at frequency     0.00000 a.u.
 after    3 linear transformations is      0.00078946
 INERTIA (POS,ZER,NEG) of reduced matrix is    6    0    0
 Determinant of reduced matrix is  8.56 * 10 **  1.0

       No.  Residual tot.,    conf., and orb.    Bnorm      Frequency 
      ----------------------------------------------------------------
         1    4.30504D-03  0.00D+00  4.31D-03  1.81D-02    0.00000D+00

 ** RSPCTL MICROITERATION NUMBER    4

 GP * SOLUTION vector at frequency     0.00000 a.u.
 after    4 linear transformations is      0.00079627
 INERTIA (POS,ZER,NEG) of reduced matrix is    8    0    0
 Determinant of reduced matrix is  2.92 * 10 **  2.0

       No.  Residual tot.,    conf., and orb.    Bnorm      Frequency 
      ----------------------------------------------------------------
         1    1.07459D-03  0.00D+00  1.07D-03  1.89D-02    0.00000D+00

 ** RSPCTL MICROITERATION NUMBER    5

 GP * SOLUTION vector at frequency     0.00000 a.u.
 after    5 linear transformations is      0.00079660
 INERTIA (POS,ZER,NEG) of reduced matrix is   10    0    0
 Determinant of reduced matrix is  1.69 * 10 **  3.0

       No.  Residual tot.,    conf., and orb.    Bnorm      Frequency 
      ----------------------------------------------------------------
         1    2.58785D-04  0.00D+00  2.59D-04  1.90D-02    0.00000D+00

 ** RSPCTL MICROITERATION NUMBER    6

 GP * SOLUTION vector at frequency     0.00000 a.u.
 after    6 linear transformations is      0.00079662
 INERTIA (POS,ZER,NEG) of reduced matrix is   12    0    0
 Determinant of reduced matrix is  1.07 * 10 **  4.0

       No.  Residual tot.,    conf., and orb.    Bnorm      Frequency 
      ----------------------------------------------------------------
         1    7.27696D-05  0.00D+00  7.28D-05  1.90D-02    0.00000D+00

 ** RSPCTL MICROITERATION NUMBER    7

 GP * SOLUTION vector at frequency     0.00000 a.u.
 after    7 linear transformations is      0.00079662
 INERTIA (POS,ZER,NEG) of reduced matrix is   14    0    0
 Determinant of reduced matrix is  4.86 * 10 **  4.0

       No.  Residual tot.,    conf., and orb.    Bnorm      Frequency 
      ----------------------------------------------------------------
         1    2.22753D-05  0.00D+00  2.23D-05  1.90D-02    0.00000D+00

 ** RSPCTL MICROITERATION NUMBER    8

 GP * SOLUTION vector at frequency     0.00000 a.u.
 after    8 linear transformations is      0.00079662
 INERTIA (POS,ZER,NEG) of reduced matrix is   16    0    0
 Determinant of reduced matrix is  2.26 * 10 **  5.0

       No.  Residual tot.,    conf., and orb.    Bnorm      Frequency 
      ----------------------------------------------------------------
         1    6.74599D-06  0.00D+00  6.75D-06  1.90D-02    0.00000D+00

 ** RSPCTL MICROITERATION NUMBER    9

 GP * SOLUTION vector at frequency     0.00000 a.u.
 after    9 linear transformations is      0.00079662
 INERTIA (POS,ZER,NEG) of reduced matrix is   18    0    0
 Determinant of reduced matrix is  2.84 * 10 **  6.0

       No.  Residual tot.,    conf., and orb.    Bnorm      Frequency 
      ----------------------------------------------------------------
         1    6.85122D-07  0.00D+00  6.85D-07  1.90D-02    0.00000D+00

 ** RSPCTL MICROITERATION NUMBER   10

 GP * SOLUTION vector at frequency     0.00000 a.u.
 after   10 linear transformations is      0.00079662
 INERTIA (POS,ZER,NEG) of reduced matrix is   20    0    0
 Determinant of reduced matrix is  3.60 * 10 **  7.0

       No.  Residual tot.,    conf., and orb.    Bnorm      Frequency 
      ----------------------------------------------------------------
         1    8.10180D-08  0.00D+00  8.10D-08  1.90D-02    0.00000D+00

 ** RSPCTL MICROITERATION NUMBER   11

 GP * SOLUTION vector at frequency     0.00000 a.u.
 after   11 linear transformations is      0.00079662
 INERTIA (POS,ZER,NEG) of reduced matrix is   22    0    0
 Determinant of reduced matrix is  6.00 * 10 **  8.0

       No.  Residual tot.,    conf., and orb.    Bnorm      Frequency 
      ----------------------------------------------------------------
         1    8.69718D-09  0.00D+00  8.70D-09  1.90D-02    0.00000D+00

 ** RSPCTL MICROITERATION NUMBER   12

 GP * SOLUTION vector at frequency     0.00000 a.u.
 after   12 linear transformations is      0.00079662
 INERTIA (POS,ZER,NEG) of reduced matrix is   24    0    0
 Determinant of reduced matrix is  5.49 * 10 **  9.0

       No.  Residual tot.,    conf., and orb.    Bnorm      Frequency 
      ----------------------------------------------------------------
         1    1.25449D-09  0.00D+00  1.25D-09  1.90D-02    0.00000D+00

 ** RSPCTL MICROITERATION NUMBER   13

 GP * SOLUTION vector at frequency     0.00000 a.u.
 after   13 linear transformations is      0.00079662
 INERTIA (POS,ZER,NEG) of reduced matrix is   26    0    0
 Determinant of reduced matrix is  3.17 * 10 ** 10.0

       No.  Residual tot.,    conf., and orb.    Bnorm      Frequency 
      ----------------------------------------------------------------
         1    2.71127D-10  0.00D+00  2.71D-10  1.90D-02    0.00000D+00

 ** RSPCTL MICROITERATION NUMBER   14

 GP * SOLUTION vector at frequency     0.00000 a.u.
 after   14 linear transformations is      0.00079662
 INERTIA (POS,ZER,NEG) of reduced matrix is   28    0    0
 Determinant of reduced matrix is  2.63 * 10 ** 11.0

       No.  Residual tot.,    conf., and orb.    Bnorm      Frequency 
      ----------------------------------------------------------------
         1    4.19441D-11  0.00D+00  4.19D-11  1.90D-02    0.00000D+00

 ** RSPCTL MICROITERATION NUMBER   15

 GP * SOLUTION vector at frequency     0.00000 a.u.
 after   15 linear transformations is      0.00079662
 INERTIA (POS,ZER,NEG) of reduced matrix is   30    0    0
 Determinant of reduced matrix is  7.30 * 10 ** 12.0

       No.  Residual tot.,    conf., and orb.    Bnorm      Frequency 
      ----------------------------------------------------------------
         1    3.92615D-12  0.00D+00  3.93D-12  1.90D-02    0.00000D+00

 *** THE REQUESTED    1 SOLUTION VECTORS CONVERGED

 Convergence of RSP solution vectors, threshold = 1.00D-09
 ---------------------------------------------------------------
 (dimension of paired reduced space:   30)
 RSP solution vector no.    1; norm of residual   2.07D-10

 *** RSPCTL MICROITERATIONS CONVERGED

 EIGENVECTOR NUMBER     1

     Orbital operator symmetry = 1
     (only elements abs greater than   10.00 % of max abs value)

      Index(r,s)      r      s        (r s) operator      (s r) operator
      ----------    -----  -----      --------------      --------------
          88         3(1)  17(1)        0.0008632692       -0.0008632692
         120         4(1)  10(1)        0.0010571791       -0.0010571791
         130         4(1)  20(1)        0.0012936091       -0.0012936091
         136         4(1)  26(1)       -0.0009839589        0.0009839589
         149         4(1)  39(1)       -0.0007682194        0.0007682194
         158         5(1)   9(1)       -0.0043797580        0.0043797580
         162         5(1)  13(1)        0.0071349410       -0.0071349410
         165         5(1)  16(1)       -0.0016071610        0.0016071610
         174         5(1)  25(1)        0.0021255204       -0.0021255204
         185         5(1)  36(1)       -0.0026544080        0.0026544080
         196         6(1)   8(1)        0.0043797580       -0.0043797580
         200         6(1)  12(1)       -0.0071349410        0.0071349410
         203         6(1)  15(1)        0.0016071610       -0.0016071610
         212         6(1)  24(1)       -0.0021255204        0.0021255204
         223         6(1)  35(1)        0.0026544080       -0.0026544080

      258 elements with absolute value less than 7.13D-04 not printed.

 The numbers in parenthesis give the orbital symmetry.

     Configuration operator symmetry = 1
     >> NO ELEMENTS <<


 Time used in linear response calculation is      1.72 CPU seconds for symmetry 1

 >>> Total time used in response solver is         1.72 CPU seconds.

   Equations converged to residual less than:  0.000000
  
 Norm of zeta-kappa-0:   3.6353043746928187E-004
  

 *******************************************************************
 *                                                                 *
 *<<<<<<<<  OUTPUT FROM COUPLED CLUSTER GRADIENT SECTION  >>>>>>>>>*
 *                                                                 *
 *******************************************************************

  <<<<<<<<<< Output from NUCREP >>>>>>>>>> 


                            Nuclear repulsion gradient
                            --------------------------

 C          0.0000000000            0.0000000000          -10.3329461884
 O          0.0000000000            0.0000000000           10.3329461884



  
 NUCLEAR   :   22.270640247712059     
 1e- ENERGY:  -197.36687745843204     
 2e- ENERGY:   62.034924348325923     
 TOTAL     :  -113.06131286239406     
  
 One electron and reorthonormalization gradient calculation completed
 Two electron derivative gradient calculation completed
Total time used in CC_GRAD2E:      8.11


                          One-electron integral gradient
                          ------------------------------

 C         -0.0000000000            0.0000000000           25.0588694910
 O          0.0000000000           -0.0000000000          -25.0588694910





                          Two-electron integral gradient
                          ------------------------------

 C          0.0000000000           -0.0000000000          -13.8763750756
 O         -0.0000000000            0.0000000000           13.8763750756





                          Reorthonormalization gradient
                          -----------------------------

 C         -0.0000000000           -0.0000000000           -0.8495005804
 O          0.0000000000            0.0000000000            0.8495005804





                                Molecular gradient
                                ------------------

 C         -0.0000000000           -0.0000000000            0.0000476467
 O          0.0000000000            0.0000000000           -0.0000476467




                   Molecular gradient norm:  4.54E-09

>>> Total time used in gradient section:        8.11 seconds.
  

 *******************************************************************************
 *******************************************************************************
 *                                                                             *
 *                                                                             *
 *                   SUMMARY OF COUPLED CLUSTER CALCULATION                    *
 *                                                                             *
 *                                                                             *
 *******************************************************************************
 *******************************************************************************

                                                                                
                                                                                
            Total SCF   energy:                  -112.7532668828                
            Total RSTAR energy:                  -112.8040202607                
            Total CCSD  energy:                  -113.0613128624                
  

 *******************************************************************************
 *******************************************************************************
 *                                                                             *
 *                                                                             *
 *                      END OF COUPLED CLUSTER CALCULATION                     *
 *                                                                             *
 *                                                                             *
 *******************************************************************************
 *******************************************************************************


 >>>> CPU and wall time for CC :      47.172      50.214

 
     Date and time (Linux)  : Sun Sep  8 20:48:18 2013
     Host name              : lpqlx131.ups-tlse.fr                    


                      .-------------------------------------.
                      | End of Coupled Cluster Section (CC) |
                      `-------------------------------------'



           :::::::::::::::::::::::::::::::::::::::::::::::::::::::::::
           ::::::::::::::: Optimization Control Center :::::::::::::::
           :::::::::::::::::::::::::::::::::::::::::::::::::::::::::::



                               Final geometry (au)
                               -------------------

 C          0.0000000000            0.0000000000            1.2347870148
 O          0.0000000000            0.0000000000           -0.9205169848





                             Optimization information
                             ------------------------

 Iteration number               :       1
 End of optimization            :       T 
 Energy at this geometry is     :    -113.061313
 Energy change from last geom.  :      -0.000106
 Norm of gradient               :       0.000067
 Norm of step                   :       0.000038
 Updated trust radius           :       0.500000
 Total Hessian index            :       0



 Center of mass dipole origin  :    0.000000    0.000000    0.003353

 Center of mass gauge origin   :    0.000000    0.000000    0.003353


                 .------------------------------------------------.
                 | Starting in Static Property Section (ABACUS) - |
                 `------------------------------------------------'


 
     Date and time (Linux)  : Sun Sep  8 20:48:18 2013
     Host name              : lpqlx131.ups-tlse.fr                    


   ***************************************************************************
   ************************ FINAL RESULTS from ABACUS ************************
   ***************************************************************************


 
     Date and time (Linux)  : Sun Sep  8 20:48:18 2013
     Host name              : lpqlx131.ups-tlse.fr                    


                             Molecular geometry (au)
                             -----------------------

 C          0.0000000000            0.0000000000            1.2347870148
 O          0.0000000000            0.0000000000           -0.9205169848





                        Molecular wave function and energy
                        ----------------------------------

     Spin multiplicity  1     State number       1     Total charge       0

     Total energy       -112.7532668828 au (Hartrees)
                         -3068.17246608 eV
                           -296033.6566 kJ/mol


                             Relativistic corrections
                             ------------------------

     Darwin correction:                          0.2605405657 au
     Mass-velocity correction:                  -0.3271525153 au

     Total relativistic correction:             -0.0666119496 au (0.0591%)
     Non-relativistic + relativistic energy:  -112.8198788324 au




                                  Dipole moment
                                  -------------

                 au               Debye          C m (/(10**-30)
              0.125903           0.320012           1.067446


                             Dipole moment components
                             ------------------------

                 au               Debye          C m (/(10**-30)

      x     -0.00000000        -0.00000000        -0.00000000
      y     -0.00000000        -0.00000000        -0.00000000
      z      0.12590257         0.32001239         1.06744644


   Units:   1 a.u. =   2.54175 Debye 
            1 a.u. =   8.47835 (10**-30) C m (SI)




   Interatomic separations (in Angstrom):
   --------------------------------------

            C           O     
            ------      ------
 C     :    0.000000
 O     :    1.140538    0.000000


  Max    interatomic separation is    1.1405 Angstrom (    2.1553 Bohr)
  between atoms    2 and    1, "O     " and "C     ".

  Min YX interatomic separation is    1.1405 Angstrom (    2.1553 Bohr)


  Bond distances (Angstrom):
  --------------------------

                  atom 1     atom 2       distance
                  ------     ------       --------
  bond distance:  O          C            1.140538




 CPU time statistics for ABACUS
 ------------------------------




 >>>> Total CPU  time used in ABACUS:   0.01 seconds
 >>>> Total wall time used in ABACUS:   0.02 seconds


                   .-------------------------------------------.
                   | End of Static Property Section (ABACUS) - |
                   `-------------------------------------------'



          <<<<<<<<<<<<<<<<<<<<<<<<<<<<<<<<<<<<<<<<<<<<<<<<<<<<<<<<<<<<<<
          <<<<<<<<<<<<<<<<<<<<  End of Optimization <<<<<<<<<<<<<<<<<<<<
          <<<<<<<<<<<<<<<<<<<<<<<<<<<<<<<<<<<<<<<<<<<<<<<<<<<<<<<<<<<<<<



                                  Final geometry
                                  --------------

 C          0.0000000000            0.0000000000            1.2347870148
 O          0.0000000000            0.0000000000           -0.9205169848



@ Iter      Energy        Change       GradNorm  Index   StepLen    TrustRad #Rej
@ -------------------------------------------------------------------------------
@   0     -113.061207     0.000000     0.023130    0    0.013088*   0.500000   0 
@   1     -113.061313    -0.000106     0.000067    0    0.000038*   0.500000   0 

@  *) Newton step taken.


   Interatomic separations (in Angstrom):
   --------------------------------------

            C           O     
            ------      ------
 C     :    0.000000
 O     :    1.140538    0.000000


  Max    interatomic separation is    1.1405 Angstrom (    2.1553 Bohr)
  between atoms    2 and    1, "O     " and "C     ".

  Min YX interatomic separation is    1.1405 Angstrom (    2.1553 Bohr)


  Bond distances (Angstrom):
  --------------------------

                  atom 1     atom 2       distance
                  ------     ------       --------
  bond distance:  O          C            1.140538



@ Geometry converged in  2 iterations!

@ Energy at final geometry is       :    -113.061313 a.u.
@ Energy change during optimization :      -0.000106 a.u.
@                                             -0.278 kJ/mol

 >>>> Total CPU  time used in DALTON:  2 minutes 35 seconds
 >>>> Total wall time used in DALTON:  2 minutes 42 seconds

 
     Date and time (Linux)  : Sun Sep  8 20:48:18 2013
     Host name              : lpqlx131.ups-tlse.fr                    
