

     ************************************************************************
     *************** Dalton - An Electronic Structure Program ***************
     ************************************************************************

    This is output from DALTON (Release Dalton2013 patch 0)
   ----------------------------------------------------------------------------
    NOTE:
     
    Dalton is an experimental code for the evaluation of molecular
    properties using (MC)SCF, DFT, CI, and CC wave functions.
    The authors accept no responsibility for the performance of
    the code or for the correctness of the results.
     
    The code (in whole or part) is provided under a licence and
    is not to be reproduced for further distribution without
    the written permission of the authors or their representatives.
     
    See the home page "http://daltonprogram.org" for further information.
     
    If results obtained with this code are published,
    the appropriate citations would be both of:
     
       K. Aidas, C. Angeli, K. L. Bak, V. Bakken, R. Bast,
       L. Boman, O. Christiansen, R. Cimiraglia, S. Coriani,
       P. Dahle, E. K. Dalskov, U. Ekstroem, T. Enevoldsen,
       J. J. Eriksen, P. Ettenhuber, B. Fernandez, L. Ferrighi,
       H. Fliegl, L. Frediani, K. Hald, A. Halkier, C. Haettig,
       H. Heiberg, T. Helgaker, A. C. Hennum, H. Hettema,
       E. Hjertenaes, S. Hoest, I.-M. Hoeyvik, M. F. Iozzi,
       B. Jansik, H. J. Aa. Jensen, D. Jonsson, P. Joergensen,
       J. Kauczor, S. Kirpekar, T. Kjaergaard, W. Klopper,
       S. Knecht, R. Kobayashi, H. Koch, J. Kongsted, A. Krapp,
       K. Kristensen, A. Ligabue, O. B. Lutnaes, J. I. Melo,
       K. V. Mikkelsen, R. H. Myhre, C. Neiss, C. B. Nielsen,
       P. Norman, J. Olsen, J. M. H. Olsen, A. Osted,
       M. J. Packer, F. Pawlowski, T. B. Pedersen, P. F. Provasi,
       S. Reine, Z. Rinkevicius, T. A. Ruden, K. Ruud, V. Rybkin,
       P. Salek, C. C. M. Samson, A. Sanchez de Meras, T. Saue,
       S. P. A. Sauer, B. Schimmelpfennig, K. Sneskov,
       A. H. Steindal, K. O. Sylvester-Hvid, P. R. Taylor,
       A. M. Teale, E. I. Tellgren, D. P. Tew, A. J. Thorvaldsen,
       L. Thoegersen, O. Vahtras, M. A. Watson, D. J. D. Wilson,
       M. Ziolkowski and H. Agren.
       The Dalton quantum chemistry program system.
       WIREs Comput. Mol. Sci. 2013. doi: 10.1002/wcms.1172
    
    and
    
       Dalton, a Molecular Electronic Structure Program,
       Release DALTON2013.0 (2013), see http://daltonprogram.org
   ----------------------------------------------------------------------------

    Authors in alphabetical order (major contribution(s) in parenthesis):

  Kestutis Aidas,           Vilnius University,           Lithuania   (QM/MM)
  Celestino Angeli,         University of Ferrara,        Italy       (NEVPT2)
  Keld L. Bak,              UNI-C,                        Denmark     (AOSOPPA, non-adiabatic coupling, magnetic properties)
  Vebjoern Bakken,          University of Oslo,           Norway      (DALTON; geometry optimizer, symmetry detection)
  Radovan Bast,             KTH Stockholm                 Sweden      (DALTON installation and execution frameworks)
  Linus Boman,              NTNU,                         Norway      (Cholesky decomposition and subsystems)
  Ove Christiansen,         Aarhus University,            Denmark     (CC module)
  Renzo Cimiraglia,         University of Ferrara,        Italy       (NEVPT2)
  Sonia Coriani,            University of Trieste,        Italy       (CC module, MCD in RESPONS)
  Paal Dahle,               University of Oslo,           Norway      (Parallelization)
  Erik K. Dalskov,          UNI-C,                        Denmark     (SOPPA)
  Thomas Enevoldsen,        Univ. of Southern Denmark,    Denmark     (SOPPA)
  Janus J. Eriksen,         Aarhus University,            Denmark     (PE-MP2/SOPPA, TDA)
  Berta Fernandez,          U. of Santiago de Compostela, Spain       (doublet spin, ESR in RESPONS)
  Lara Ferrighi,            Aarhus University,            Denmark     (PCM Cubic response)
  Heike Fliegl,             University of Oslo,           Norway      (CCSD(R12))
  Luca Frediani,            UiT The Arctic U. of Norway,  Norway      (PCM)
  Bin Gao,                  UiT The Arctic U. of Norway,  Norway      (Gen1Int library)
  Christof Haettig,         Ruhr-University Bochum,       Germany     (CC module)
  Kasper Hald,              Aarhus University,            Denmark     (CC module)
  Asger Halkier,            Aarhus University,            Denmark     (CC module)
  Hanne Heiberg,            University of Oslo,           Norway      (geometry analysis, selected one-electron integrals)
  Trygve Helgaker,          University of Oslo,           Norway      (DALTON; ABACUS, ERI, DFT modules, London, and much more)
  Alf Christian Hennum,     University of Oslo,           Norway      (Parity violation)
  Hinne Hettema,            University of Auckland,       New Zealand (quadratic response in RESPONS; SIRIUS supersymmetry)
  Eirik Hjertenaes,         NTNU,                         Norway      (Cholesky decomposition)
  Maria Francesca Iozzi,    University of Oslo,           Norway      (RPA)
  Brano Jansik              Technical Univ. of Ostrava    Czech Rep.  (DFT cubic response)
  Hans Joergen Aa. Jensen,  Univ. of Southern Denmark,    Denmark     (DALTON; SIRIUS, RESPONS, ABACUS modules, London, and much more)
  Dan Jonsson,              UiT The Arctic U. of Norway,  Norway      (cubic response in RESPONS module)
  Poul Joergensen,          Aarhus University,            Denmark     (RESPONS, ABACUS, and CC modules)
  Joanna Kauczor,           Linkoeping University,        Sweden      (Complex polarization propagator (CPP) module)
  Sheela Kirpekar,          Univ. of Southern Denmark,    Denmark     (Mass-velocity & Darwin integrals)
  Wim Klopper,              KIT Karlsruhe,                Germany     (R12 code in CC, SIRIUS, and ABACUS modules)
  Stefan Knecht,            ETH Zurich,                   Switzerland (Parallel CI and MCSCF)
  Rika Kobayashi,           Australian National Univ.,    Australia   (DIIS in CC, London in MCSCF)
  Henrik Koch,              NTNU,                         Norway      (CC module, Cholesky decomposition)
  Jacob Kongsted,           Univ. of Southern Denmark,    Denmark     (Polarizable embedding, QM/MM)
  Andrea Ligabue,           University of Modena,         Italy       (CTOCD, AOSOPPA)
  Ola B. Lutnaes,           University of Oslo,           Norway      (DFT Hessian)
  Juan I. Melo,             University of Buenos Aires,   Argentina   (LRESC, Relativistic Effects on NMR Shieldings)
  Kurt V. Mikkelsen,        University of Copenhagen,     Denmark     (MC-SCRF and QM/MM)
  Rolf H. Myhre,            NTNU,                         Norway      (Cholesky, subsystems and ECC2)
  Christian Neiss,          Univ. Erlangen-Nuernberg,     Germany     (CCSD(R12))
  Christian B. Nielsen,     University of Copenhagen,     Denmark     (QM/MM)
  Patrick Norman,           Linkoeping University,        Sweden      (Cubic response and complex response in RESPONS)
  Jeppe Olsen,              Aarhus University,            Denmark     (SIRIUS CI/density modules)
  Jogvan Magnus H. Olsen,   Univ. of Southern Denmark,    Denmark     (Polarizable embedding, PE library, QM/MM)
  Anders Osted,             Copenhagen University,        Denmark     (QM/MM)
  Martin J. Packer,         University of Sheffield,      UK          (SOPPA)
  Filip Pawlowski,          Kazimierz Wielki University   Poland      (CC3)
  Thomas B. Pedersen,       University of Oslo,           Norway      (Cholesky decomposition)
  Patricio F. Provasi,      University of Northeastern,   Argentina   (Analysis of coupling constants in localized orbitals)
  Zilvinas Rinkevicius,     KTH Stockholm,                Sweden      (open-shell DFT, ESR)
  Elias Rudberg,            KTH Stockholm,                Sweden      (DFT grid and basis info)
  Torgeir A. Ruden,         University of Oslo,           Norway      (Numerical derivatives in ABACUS)
  Kenneth Ruud,             UiT The Arctic U. of Norway,  Norway      (DALTON; ABACUS magnetic properties and  much more)
  Pawel Salek,              KTH Stockholm,                Sweden      (DALTON; DFT code)
  Claire C. M. Samson       University of Karlsruhe       Germany     (Boys localization, r12 integrals in ERI)
  Alfredo Sanchez de Meras, University of Valencia,       Spain       (CC module, Cholesky decomposition)
  Trond Saue,               Paul Sabatier University,     France      (direct Fock matrix construction)
  Stephan P. A. Sauer,      University of Copenhagen,     Denmark     (SOPPA(CCSD), SOPPA prop., AOSOPPA, vibrational g-factors)
  Bernd Schimmelpfennig,    Forschungszentrum Karlsruhe,  Germany     (AMFI module)
  Kristian Sneskov,         Aarhus University,            Denmark     (QM/MM, PE-CC)
  Arnfinn H. Steindal,      UiT The Arctic U. of Norway,  Norway      (parallel QM/MM)
  K. O. Sylvester-Hvid,     University of Copenhagen,     Denmark     (MC-SCRF)
  Peter R. Taylor,          VLSCI/Univ. of Melbourne,     Australia   (Symmetry handling ABACUS, integral transformation)
  Andrew M. Teale,          University of Nottingham,     England     (DFT-AC, DFT-D)
  David P. Tew,             University of Bristol,        England     (CCSD(R12))
  Olav Vahtras,             KTH Stockholm,                Sweden      (triplet response, spin-orbit, ESR, TDDFT, open-shell DFT)
  David J. Wilson,          La Trobe University,          Australia   (DFT Hessian and DFT magnetizabilities)
  Hans Agren,               KTH Stockholm,                Sweden      (SIRIUS module, RESPONS, MC-SCRF solvation model)
 --------------------------------------------------------------------------------

     Date and time (Linux)  : Sun Sep  8 20:42:29 2013
     Host name              : lpqlx131.ups-tlse.fr                    

 * Work memory size             :    64000000 =  488.28 megabytes.

 * Directories for basis set searches:
   1) /home/bast/DALTON-2013.0-Source/build/test_cc_rsp_twophot5
   2) /home/bast/DALTON-2013.0-Source/build/basis


Compilation information
-----------------------

 Who compiled             | bast
 Host                     | lpqlx131.ups-tlse.fr
 System                   | Linux-3.8.5-201.fc18.x86_64
 CMake generator          | Unix Makefiles
 Processor                | x86_64
 64-bit integers          | OFF
 MPI                      | OFF
 Fortran compiler         | /usr/bin/gfortran
 Fortran compiler version | GNU Fortran (GCC) 4.7.2 20121109 (Red Hat 4.7.2-8)
 C compiler               | /usr/bin/gcc
 C compiler version       | gcc (GCC) 4.7.2 20121109 (Red Hat 4.7.2-8)
 C++ compiler             | /usr/bin/g++
 C++ compiler version     | g++ (GCC) 4.7.2 20121109 (Red Hat 4.7.2-8)
 Static linking           | OFF
 Last Git revision        | f34203295a86316e27f9e7b44f9b6769c4a046c0
 Configuration time       | 2013-09-08 20:31:27.952056


   Content of the .dal input file
 ----------------------------------

**DALTON INPUT                                    
.RUN WAVE FUNCTIONS                               
**INTEGRAL                                        
.DIPLEN                                           
**WAVE FUNCTIONS                                  
.CC                                               
*SCF INPUT                                        
.THRESH                                           
 1.0d-12                                          
*CC INPUT                                         
.CCSD                                             
.NSYM                                             
 2                                                
.THRENR                                           
 1.0d-10                                          
.THRLEQ                                           
 1.0d-9                                           
.PRINT                                            
  5                                               
.MAX ITER                                         
  300                                             
*CCEXCI                                           
.NCCEXCI                                          
 0 5                                              
.THREXC                                           
 1.0d-8                                           
*CCOPA                                            
.DIPLEN                                           
*CCTPA                                            
.SELSTA                                           
 2 3 0.01                                         
.OPERATOR                                         
YDIPLEN XDIPLEN                                   
XDIPLEN YDIPLEN                                   
**END OF DALTON INPUT                             


   Content of the .mol file
 ----------------------------

BASIS                                                                          
6-31G**                                                                        
Hydrogen flourid                                                               
small test basis                                                               
    2    1  Y         1.00D-15                                                 
        9.0   1                                                                
F     0.0000000000000000  0.0000000000000000 1.76320000000000000               
        1.0   1                                                                
H     0.0000000000000000  0.0000000000000000 0.00000000000000000               


       *******************************************************************
       *********** Output from DALTON general input processing ***********
       *******************************************************************

 --------------------------------------------------------------------------------
   Overall default print level:    0
   Print level for DALTON.STAT:    1

    HERMIT 1- and 2-electron integral sections will be executed
    "Old" integral transformation used (limited to max 255 basis functions)
    Wave function sections will be executed (SIRIUS module)
 --------------------------------------------------------------------------------


   ****************************************************************************
   *************** Output of molecule and basis set information ***************
   ****************************************************************************


    The two title cards from your ".mol" input:
    ------------------------------------------------------------------------
 1: Hydrogen flourid                                                        
 2: small test basis                                                        
    ------------------------------------------------------------------------

  Atomic type no.    1
  --------------------
  Nuclear charge:   9.00000
  Number of symmetry independent centers:    1
  Number of basis sets to read;    2
  Basis set file used for this atomic type with Z =   9 :
     "/home/bast/DALTON-2013.0-Source/build/basis/6-31G**"

  Info about the basis set file: your basis has no documentation.
  Basis set: 6-31G**                                                                         

  Atomic type no.    2
  --------------------
  Nuclear charge:   1.00000
  Number of symmetry independent centers:    1
  Number of basis sets to read;    2
  Basis set file used for this atomic type with Z =   1 :
     "/home/bast/DALTON-2013.0-Source/build/basis/6-31G**"

  Info about the basis set file: your basis has no documentation.
  Basis set: 6-31G**                                                                         


                         SYMGRP: Point group information
                         -------------------------------

Point group: Cs 

   * The point group was generated by:

      Reflection in the xz-plane

   * Group multiplication table

        |  E   Oxz
   -----+----------
     E  |  E   Oxz
    Oxz | Oxz   E 

   * Character table

        |  E   Oxz
   -----+----------
    A'  |   1    1
    A"  |   1   -1

   * Direct product table

        | A'   A" 
   -----+----------
    A'  | A'   A" 
    A"  | A"   A' 


                                 Isotopic Masses
                                 ---------------

                           F          18.998403
                           H           1.007825

                       Total mass:    20.006228 amu
                       Natural abundance:  99.985 %

 Center-of-mass coordinates (a.u.):    0.000000    0.000000    1.674378


  Atoms and basis sets
  --------------------

  Number of atom types :    2
  Total number of atoms:    2

  Basis set used is "6-31G**" from the basis set library.

  label    atoms   charge   prim   cont     basis
  ----------------------------------------------------------------------
  F           1    9.0000    27    14      [10s4p1d|3s2p1d]                                   
  H           1    1.0000     7     5      [4s1p|2s1p]                                        
  ----------------------------------------------------------------------
  total:      2   10.0000    34    19
  ----------------------------------------------------------------------
  Spherical harmonic basis used.

  Threshold for neglecting AO integrals:  1.00D-15


  Cartesian Coordinates (a.u.)
  ----------------------------

  Total number of coordinates:    6
  F       :     1  x   0.0000000000    2  y   0.0000000000    3  z   1.7632000000
  H       :     4  x   0.0000000000    5  y   0.0000000000    6  z   0.0000000000


  Symmetry Coordinates
  --------------------

  Number of coordinates in each symmetry:     4    2

  Symmetry  A'  ( 1)

    1   F     x    1
    2   F     z    3
    3   H     x    4
    4   H     z    6

  Symmetry  A"  ( 2)

    5   F     y    2
    6   H     y    5


   Interatomic separations (in Angstrom):
   --------------------------------------

            F           H     
            ------      ------
 F     :    0.000000
 H     :    0.933045    0.000000


  Max    interatomic separation is    0.9330 Angstrom (    1.7632 Bohr)
  between atoms    2 and    1, "H     " and "F     ".

  Min HX interatomic separation is    0.9330 Angstrom (    1.7632 Bohr)


  Bond distances (Angstrom):
  --------------------------

                  atom 1     atom 2       distance
                  ------     ------       --------
  bond distance:  H          F            0.933045




 Principal moments of inertia (u*A**2) and principal axes
 --------------------------------------------------------

   IA       0.000000          0.000000    0.000000    1.000000
   IB       0.833187          0.000000    1.000000    0.000000
   IC       0.833187          1.000000    0.000000    0.000000


 Rotational constants
 --------------------

 The molecule is linear.

               B =       606561.40 MHz     (   20.232710 cm-1)


@  Nuclear repulsion energy :    5.104355716878 Hartree


  Symmetry Orbitals
  -----------------

  Number of orbitals in each symmetry:          14    5


  Symmetry  A' ( 1)

    1     F        1s         1
    2     F        1s         2
    3     F        1s         3
    4     F        2px        4
    5     F        2pz        6
    6     F        2px        7
    7     F        2pz        9
    8     F        3d0       12
    9     F        3d1+      13
   10     F        3d2+      14
   11     H        1s        15
   12     H        1s        16
   13     H        2px       17
   14     H        2pz       19


  Symmetry  A" ( 2)

   15     F        2py        5
   16     F        2py        8
   17     F        3d2-      10
   18     F        3d1-      11
   19     H        2py       18

  Symmetries of electric field:  A' (1)  A" (2)  A' (1)

  Symmetries of magnetic field:  A" (2)  A' (1)  A" (2)


                     .---------------------------------------.
                     | Starting in Integral Section (HERMIT) |
                     `---------------------------------------'



    *************************************************************************
    ****************** Output from HERMIT input processing ******************
    *************************************************************************


 Default print level:        1

 * Nuclear model: Point charge

 Calculation of one- and two-electron Hamiltonian integrals.

 The following one-electron property integrals are calculated as requested:
          - overlap integrals
          - dipole length integrals

 Center of mass  (bohr):      0.000000000000      0.000000000000      1.674377807231
 Operator center (bohr):      0.000000000000      0.000000000000      0.000000000000
 Gauge origin    (bohr):      0.000000000000      0.000000000000      0.000000000000
 Dipole origin   (bohr):      0.000000000000      0.000000000000      0.000000000000


     ************************************************************************
     ************************** Output from HERINT **************************
     ************************************************************************


 Threshold for neglecting two-electron integrals:  1.00D-15
 Number of two-electron integrals written:        4125 ( 22.7% )
 Megabytes written:                              0.048

 >>>> Total CPU  time used in HERMIT:   0.01 seconds
 >>>> Total wall time used in HERMIT:   0.01 seconds


                        .----------------------------------.
                        | End of Integral Section (HERMIT) |
                        `----------------------------------'



                   .--------------------------------------------.
                   | Starting in Wave Function Section (SIRIUS) |
                   `--------------------------------------------'

 NCCEXCI for singlet:           0           5

 *** Output from Huckel module :

     Using EWMO model:          T
     Using EHT  model:          F
     Number of Huckel orbitals each symmetry:    5    1

 EWMO - Energy Weighted Maximum Overlap - is a Huckel type method,
        which normally is better than Extended Huckel Theory.
 Reference: Linderberg and Ohrn, Propagators in Quantum Chemistry (Wiley, 1973)

 Huckel EWMO eigenvalues for symmetry :  1
          -26.384238      -1.721955      -0.830116      -0.730000      -0.248892

 Huckel EWMO eigenvalues for symmetry :  2
           -0.730000

 **********************************************************************
 *SIRIUS* a direct, restricted step, second order MCSCF program       *
 **********************************************************************

 
     Date and time (Linux)  : Sun Sep  8 20:42:29 2013
     Host name              : lpqlx131.ups-tlse.fr                    

 Title lines from ".mol" input file:
     Hydrogen flourid                                                        
     small test basis                                                        

 Print level on unit LUPRI =   2 is   0
 Print level on unit LUW4  =   2 is   5

@    (Integral direct) CC calculation.

@    This is a combination run starting with
@              a restricted, closed shell Hartree-Fock calculation


 Initial molecular orbitals are obtained according to
 ".MOSTART EWMO  " input option

     Wave function specification
     ============================

     For the specification of the Coupled Cluster: see later.

@    For the wave function of type :      >>> CC <<<
@    Number of closed shell electrons          10
@    Number of electrons in active shells       0
@    Total charge of the molecule               0

@    Spin multiplicity and 2 M_S                1         0
     Total number of symmetries                 2
@    Reference state symmetry                   1

     Orbital specifications
     ======================
     Abelian symmetry species          All |    1    2
                                       --- |  ---  ---
     Total number of orbitals           19 |   14    5
     Number of basis functions          19 |   14    5

      ** Automatic occupation of RHF orbitals **

      -- Initial occupation of symmetries is determined from extended Huckel guess.           
      -- Initial occupation of symmetries is :
@    Occupied SCF orbitals               5 |    4    1

     Maximum number of Fock   iterations      0
     Maximum number of DIIS   iterations     60
     Maximum number of QC-SCF iterations     60
     Threshold for SCF convergence     1.00D-12


 Changes of defaults for CC:
 ---------------------------

 -Excitation energies calculated
 -One-photon absorption strengths will be calculated
 -Two-photon absorption strengths will be calculated
  


 >>>>> DIIS optimization of Hartree-Fock <<<<<

 C1-DIIS algorithm; max error vectors =   10

 Automatic occupation of symmetries with  10 electrons.

 Iter     Total energy    Error norm  Delta(E)    SCF occupation
 -----------------------------------------------------------------------------
     (Precalculated two-electron integrals are transformed to P-supermatrix elements.
      Threshold for discarding integrals :  1.00D-15 )
@  1  -99.9159496472       1.29D+00  -9.99D+01     4   1
      Virial theorem: -V/T =      1.997399
@      MULPOP F      -0.44; H       0.44; 
 -----------------------------------------------------------------------------
@  2  -100.006061881       2.26D-01  -9.01D-02     4   1
      Virial theorem: -V/T =      2.002657
@      MULPOP F      -0.38; H       0.38; 
 -----------------------------------------------------------------------------
@  3  -100.008563846       8.51D-02  -2.50D-03     4   1
      Virial theorem: -V/T =      1.999075
@      MULPOP F      -0.41; H       0.41; 
 -----------------------------------------------------------------------------
@  4  -100.008886254       2.15D-02  -3.22D-04     4   1
      Virial theorem: -V/T =      2.000623
@      MULPOP F      -0.41; H       0.41; 
 -----------------------------------------------------------------------------
@  5  -100.008918307       3.56D-03  -3.21D-05     4   1
      Virial theorem: -V/T =      2.000296
@      MULPOP F      -0.42; H       0.42; 
 -----------------------------------------------------------------------------
@  6  -100.008919840       7.37D-04  -1.53D-06     4   1
      Virial theorem: -V/T =      2.000320
@      MULPOP F      -0.42; H       0.42; 
 -----------------------------------------------------------------------------
@  7  -100.008919896       5.25D-05  -5.51D-08     4   1
      Virial theorem: -V/T =      2.000327
@      MULPOP F      -0.42; H       0.42; 
 -----------------------------------------------------------------------------
@  8  -100.008919896       4.66D-06  -2.57D-10     4   1
      Virial theorem: -V/T =      2.000326
@      MULPOP F      -0.42; H       0.42; 
 -----------------------------------------------------------------------------
@  9  -100.008919896       4.39D-07  -1.08D-12     4   1
      Virial theorem: -V/T =      2.000327
@      MULPOP F      -0.42; H       0.42; 
 -----------------------------------------------------------------------------
@ 10  -100.008919896       2.49D-08   1.42D-14     4   1
      Virial theorem: -V/T =      2.000327
@      MULPOP F      -0.42; H       0.42; 
 -----------------------------------------------------------------------------
@ 11  -100.008919896       2.56D-09  -5.68D-14     4   1
      Virial theorem: -V/T =      2.000327
@      MULPOP F      -0.42; H       0.42; 
 -----------------------------------------------------------------------------
@ 12  -100.008919896       6.66D-11   5.68D-14     4   1
      Virial theorem: -V/T =      2.000327
@      MULPOP F      -0.42; H       0.42; 
 -----------------------------------------------------------------------------
@ 13  -100.008919896       8.93D-12  -5.68D-14     4   1
      Virial theorem: -V/T =      2.000327
@      MULPOP F      -0.42; H       0.42; 
 -----------------------------------------------------------------------------
@ 14  -100.008919896       3.45D-13   0.00D+00     4   1

@ *** DIIS converged in  14 iterations !
@     Converged SCF energy, gradient:   -100.008919895850    3.45D-13
    - total time used in SIRFCK :              0.00 seconds


 *** SCF orbital energy analysis ***

 Only the five lowest virtual orbital energies printed in each symmetry.

 Number of electrons :   10
 Orbital occupations :    4    1

 Sym       Hartree-Fock orbital energies

  1    -26.27306629    -1.57292658    -0.73710501    -0.62549523     0.21639320
         1.01969778     1.48848713     1.53899963     1.89379537

  2     -0.62549523     1.48848713     1.89379537     2.15801858     3.02038759


    E(LUMO) :     0.21639320 au (symmetry 1)
  - E(HOMO) :    -0.62549523 au (symmetry 2)
  ------------------------------------------
    gap     :     0.84188843 au

 >>> Writing SIRIFC interface file <<<

 >>>> CPU and wall time for SCF :       0.007       0.007


                       .-----------------------------------.
                       | >>> Final results from SIRIUS <<< |
                       `-----------------------------------'


@    Spin multiplicity:           1
@    Spatial symmetry:            1
@    Total charge of molecule:    0

@    Final HF energy:            -100.008919895850                 
@    Nuclear repulsion:             5.104355716878
@    Electronic energy:          -105.113275612729

@    Final gradient norm:           0.000000000000

 
     Date and time (Linux)  : Sun Sep  8 20:42:29 2013
     Host name              : lpqlx131.ups-tlse.fr                    

 (Only coefficients >0.0100 are printed.)

 Molecular orbitals for symmetry species  1
 ------------------------------------------

    Orbital         1        2        3        4        5        6
   1 F   :1s    -0.9955  -0.2308  -0.0555   0.0000   0.0644   0.0183
   2 F   :1s    -0.0212   0.5025   0.1234  -0.0000  -0.0741  -0.1606
   3 F   :1s     0.0052   0.5082   0.2358  -0.0000  -0.7503   0.3606
   4 F   :2px   -0.0000  -0.0000  -0.0000  -0.6587   0.0000  -0.0000
   5 F   :2pz    0.0013  -0.0602   0.5496  -0.0000   0.2591   0.3919
   6 F   :2px    0.0000  -0.0000  -0.0000  -0.4859   0.0000  -0.0000
   7 F   :2pz   -0.0009  -0.0224   0.3522  -0.0000   0.4759  -0.1052
   8 F   :3d0    0.0000   0.0013  -0.0237   0.0000  -0.0259   0.2926
   9 F   :3d1+  -0.0000   0.0000   0.0000   0.0223  -0.0000   0.0000
  11 H   :1s    -0.0001   0.1311  -0.2709   0.0000   0.1124   0.9672
  12 H   :1s    -0.0013   0.0073  -0.1255   0.0000   1.3668  -0.9276
  13 H   :2px    0.0000   0.0000   0.0000  -0.0198  -0.0000   0.0000
  14 H   :2pz    0.0006   0.0312  -0.0288   0.0000   0.0206  -0.2828

 Molecular orbitals for symmetry species  2
 ------------------------------------------

    Orbital         1        2        3
   1 F   :2py    0.6587  -0.9416   0.1036
   2 F   :2py    0.4859   1.0109  -0.2903
   4 F   :3d1-  -0.0223  -0.0635  -0.6960
   5 H   :2py    0.0198   0.0764   0.4878



 >>>> Total CPU  time used in SIRIUS :      0.01 seconds
 >>>> Total wall time used in SIRIUS :      0.01 seconds

 
     Date and time (Linux)  : Sun Sep  8 20:42:29 2013
     Host name              : lpqlx131.ups-tlse.fr                    


                     .---------------------------------------.
                     | End of Wave Function Section (SIRIUS) |
                     `---------------------------------------'



                    .------------------------------------------.
                    | Starting in Coupled Cluster Section (CC) |
                    `------------------------------------------'

  

 *******************************************************************************
 *******************************************************************************
 *                                                                             *
 *                                                                             *
 *                    START OF COUPLED CLUSTER CALCULATION                     *
 *                                                                             *
 *                                                                             *
 *******************************************************************************
 *******************************************************************************


 LWORK =        64000000



 CCR12 ANSATZ =   0

 CCR12 APPROX =   0

   

 *******************************************************************
 *                                                                 *
 *<<<<<<<<<<                                             >>>>>>>>>>*
 *<<<<<<<<<< OUTPUT FROM COUPLED CLUSTER ENERGY PROGRAM  >>>>>>>>>>*
 *<<<<<<<<<<                                             >>>>>>>>>>*
 *                                                                 *
 *******************************************************************


             The Direct Coupled Cluster Energy Program
             -----------------------------------------


          Number of t1 amplitudes                 :        44
          Number of t2 amplitudes                 :      1341
          Total number of amplitudes in ccsd      :      1385



                        +---------------------------------+
                        ! Largest amplitudes in MP2 guess !
                        +---------------------------------+



          CC_PRAM:Overall Contribution of the Different Components
          --------------------------------------------------------



          Single Excitation Contribution :               0.0000 %

          Double Excitation Contribution :             100.0000 %

          ||T1||/||T2||                  :               0.0000

          Norm of Total Amplitude Vector :               0.1415


 +=============================================================================+
 | symmetry|  orbital index  |   Excitation Numbers             |   Amplitude  |
 |  Index  |   a   b   i   j |      NAI      NBJ |     NAIBJ    |              |
 +=============================================================================+
 +-----------------------------------------------------------------------------+
 | 1 1 1 1 |   1   1   3   3 |       21       21 |          231 |   -0.030553  |
 | 1 1 1 1 |   2   1   3   3 |       22       21 |          252 |   -0.024328  |
 | 1 1 1 1 |   2   2   3   3 |       22       22 |          253 |   -0.036852  |
 | 1 1 1 1 |   4   4   3   3 |       24       24 |          300 |   -0.027223  |
 | 1 1 1 1 |   3   4   4   3 |       33       24 |          552 |    0.024715  |
 | 1 1 1 1 |   3   3   4   4 |       33       33 |          561 |   -0.043119  |
 | 2 1 2 1 |   1   4   1   3 |       41       24 |          844 |   -0.024715  |
 | 2 1 2 1 |   1   3   1   4 |       41       33 |          853 |    0.033881  |
 | 2 2 2 2 |   1   1   1   1 |       41       41 |          861 |   -0.043119  |
 +=============================================================================+


          Norm of Printed Amplitude Vector :             0.0986

          Printed all single excitations greater than 0.010000

          Printed all double excitations greater than 0.020000
 Iter.  1: Coupled cluster MP2   energy :    -100.1936625719336718
     Conventional correlation energy:    -0.1847426760833741

       Iteration no.:  1
       -----------------

       Time used in   RHS - TOTAL  :       0.01 seconds
       Norm^2 of t1am   after ccvec:        0.0000000000D+00
       Norm^2 of t2am   after ccvec:        0.2000976780D-01
       Norm^2 of omega1 after ccvec:        0.1184301204D-02
       Norm^2 of omega2 after ccvec:        0.3729416034D-02
 Iter.  1: Coupled cluster CCSD  energy :    -100.1943060627138209
     Conventional correlation energy:    -0.1853861668635233

       Iteration no.:  2
       -----------------

       Time used in   RHS - TOTAL  :       0.01 seconds
       Norm^2 of t1am   after ccvec:        0.2961253950D-03
       Norm^2 of t2am   after ccvec:        0.2169381138D-01
       Norm^2 of omega1 after ccvec:        0.2849570707D-04
       Norm^2 of omega2 after ccvec:        0.4915276235D-03
 Iter.  2: Coupled cluster CCSD  energy :    -100.1971585883489837
     Conventional correlation energy:    -0.1882386924986861

       Iteration no.:  3
       -----------------

       Time used in   RHS - TOTAL  :       0.01 seconds
       Norm^2 of t1am   after ccvec:        0.3023681602D-03
       Norm^2 of t2am   after ccvec:        0.2312838265D-01
       Norm^2 of omega1 after ccvec:        0.4341572657D-05
       Norm^2 of omega2 after ccvec:        0.4178364260D-04
 Iter.  3: Coupled cluster CCSD  energy :    -100.1977954495179262
     Conventional correlation energy:    -0.1888755536676285

       Iteration no.:  4
       -----------------

       Time used in   RHS - TOTAL  :       0.01 seconds
       Norm^2 of t1am   after ccvec:        0.3605378806D-03
       Norm^2 of t2am   after ccvec:        0.2365633436D-01
       Norm^2 of omega1 after ccvec:        0.9567255730D-07
       Norm^2 of omega2 after ccvec:        0.1160095803D-05
 Iter.  4: Coupled cluster CCSD  energy :    -100.1977970718307489
     Conventional correlation energy:    -0.1888771759804513

       Iteration no.:  5
       -----------------

       Time used in   RHS - TOTAL  :       0.01 seconds
       Norm^2 of t1am   after ccvec:        0.3666784363D-03
       Norm^2 of t2am   after ccvec:        0.2371226752D-01
       Norm^2 of omega1 after ccvec:        0.1418689339D-07
       Norm^2 of omega2 after ccvec:        0.4285185337D-07
 Iter.  5: Coupled cluster CCSD  energy :    -100.1977935669968076
     Conventional correlation energy:    -0.1888736711465100

       Iteration no.:  6
       -----------------

       Time used in   RHS - TOTAL  :       0.01 seconds
       Norm^2 of t1am   after ccvec:        0.3688521323D-03
       Norm^2 of t2am   after ccvec:        0.2371314684D-01
       Norm^2 of omega1 after ccvec:        0.7291147705D-09
       Norm^2 of omega2 after ccvec:        0.4049514991D-08
 Iter.  6: Coupled cluster CCSD  energy :    -100.1977918794591602
     Conventional correlation energy:    -0.1888719836088626

       Iteration no.:  7
       -----------------

       Time used in   RHS - TOTAL  :       0.01 seconds
       Norm^2 of t1am   after ccvec:        0.3697117589D-03
       Norm^2 of t2am   after ccvec:        0.2371204709D-01
       Norm^2 of omega1 after ccvec:        0.2745880713D-10
       Norm^2 of omega2 after ccvec:        0.2065620931D-09
 Iter.  7: Coupled cluster CCSD  energy :    -100.1977908485724100
     Conventional correlation energy:    -0.1888709527221124

       Iteration no.:  8
       -----------------

       Time used in   RHS - TOTAL  :       0.01 seconds
       Norm^2 of t1am   after ccvec:        0.3698160339D-03
       Norm^2 of t2am   after ccvec:        0.2371132689D-01
       Norm^2 of omega1 after ccvec:        0.6556946940D-12
       Norm^2 of omega2 after ccvec:        0.5494779379D-11
 Iter.  8: Coupled cluster CCSD  energy :    -100.1977909127283084
     Conventional correlation energy:    -0.1888710168780108

       Iteration no.:  9
       -----------------

       Time used in   RHS - TOTAL  :       0.01 seconds
       Norm^2 of t1am   after ccvec:        0.3698374470D-03
       Norm^2 of t2am   after ccvec:        0.2371136691D-01
       Norm^2 of omega1 after ccvec:        0.1011709954D-13
       Norm^2 of omega2 after ccvec:        0.1823293906D-12
 Iter.  9: Coupled cluster CCSD  energy :    -100.1977909096269457
     Conventional correlation energy:    -0.1888710137766481

       Iteration no.: 10
       -----------------

       Time used in   RHS - TOTAL  :       0.01 seconds
       Norm^2 of t1am   after ccvec:        0.3698382131D-03
       Norm^2 of t2am   after ccvec:        0.2371136319D-01
       Norm^2 of omega1 after ccvec:        0.8459555753D-15
       Norm^2 of omega2 after ccvec:        0.1525700372D-13
 Iter. 10: Coupled cluster CCSD  energy :    -100.1977909077532871
     Conventional correlation energy:    -0.1888710119029895

       Iteration no.: 11
       -----------------

       Time used in   RHS - TOTAL  :       0.01 seconds
       Norm^2 of t1am   after ccvec:        0.3698383849D-03
       Norm^2 of t2am   after ccvec:        0.2371136192D-01
       Norm^2 of omega1 after ccvec:        0.6529537638D-16
       Norm^2 of omega2 after ccvec:        0.7091626917D-15
 Iter. 11: Coupled cluster CCSD  energy :    -100.1977909069588151
     Conventional correlation energy:    -0.1888710111085175

       Iteration no.: 12
       -----------------

       Time used in   RHS - TOTAL  :       0.01 seconds
       Norm^2 of t1am   after ccvec:        0.3698384864D-03
       Norm^2 of t2am   after ccvec:        0.2371136146D-01
       Norm^2 of omega1 after ccvec:        0.2767652479D-17
       Norm^2 of omega2 after ccvec:        0.2478508102D-16
 Iter. 12: Coupled cluster CCSD  energy :    -100.1977909068214387
     Conventional correlation energy:    -0.1888710109711411

       Iteration no.: 13
       -----------------

       Time used in   RHS - TOTAL  :       0.01 seconds
       Norm^2 of t1am   after ccvec:        0.3698385223D-03
       Norm^2 of t2am   after ccvec:        0.2371136137D-01
       Norm^2 of omega1 after ccvec:        0.1572771654D-18
       Norm^2 of omega2 after ccvec:        0.6247128282D-18
 Iter. 13: Coupled cluster CCSD  energy :    -100.1977909068225756
     Conventional correlation energy:    -0.1888710109722780

 CCSD  energy converged to within   0.10D-09 is         -100.197790906823
 Final 2-norm of the CC vector function:  8.84301981D-10


                    +------------------------------------------+
                    ! Largest amplitudes in converged solution !
                    +------------------------------------------+



          CC_PRAM:Overall Contribution of the Different Components
          --------------------------------------------------------



          Single Excitation Contribution :               1.5358 %

          Double Excitation Contribution :              98.4642 %

          ||T1||/||T2||                  :               0.1249

          Tau1 diagnostic                :               0.0061

          Norm of Total Amplitude Vector :               0.1552


 +=============================================================================+
 | symmetry|  orbital index  |   Excitation Numbers             |   Amplitude  |
 |  Index  |   a   b   i   j |      NAI      NBJ |     NAIBJ    |              |
 +=============================================================================+
 | 1   1   |   1       3     |       21          |              |   -0.012624  |
 +-----------------------------------------------------------------------------+
 | 1 1 1 1 |   3   6   4   2 |       33       16 |          544 |   -0.020692  |
 | 1 1 1 1 |   1   1   3   3 |       21       21 |          231 |   -0.037895  |
 | 1 1 1 1 |   2   1   3   3 |       22       21 |          252 |   -0.030943  |
 | 1 1 1 1 |   2   2   3   3 |       22       22 |          253 |   -0.043131  |
 | 1 1 1 1 |   4   4   3   3 |       24       24 |          300 |   -0.028311  |
 | 1 1 1 1 |   3   4   4   3 |       33       24 |          552 |    0.024271  |
 | 1 1 1 1 |   3   3   4   4 |       33       33 |          561 |   -0.046157  |
 | 2 1 2 1 |   1   6   1   2 |       41       16 |          836 |    0.020692  |
 | 2 1 2 1 |   1   4   1   3 |       41       24 |          844 |   -0.024271  |
 | 2 1 2 1 |   1   3   1   4 |       41       33 |          853 |    0.032908  |
 | 2 2 2 2 |   1   1   1   1 |       41       41 |          861 |   -0.046157  |
 +=============================================================================+


          Norm of Printed Amplitude Vector :             0.1122

          Printed all single excitations greater than 0.012393

          Printed all double excitations greater than 0.019846





             +-------------------------------------------------------+
             ! Final results from the Coupled Cluster energy program !
             +-------------------------------------------------------+



            Total SCF   energy:                  -100.0089198959

            Total MP2   energy:                  -100.1936625719

            Total CCSD  energy:                  -100.1977909068




                   +--------------------------------------------+
                   ! Calculating singlet intermediates for CCLR !
                   +--------------------------------------------+



       Time used in   RHS - TOTAL  :       0.01 seconds


            E-intermediates calculated 
            Fock-intermediate calculated 
            Gamma-intermediate calculated 
            BF-intermediate calculated 
            C-intermediate calculated 
            D-intermediate calculated 


   

 *******************************************************************
 *                                                                 *
 *<<<<<<<<<<<<< OUTPUT FROM COUPLED CLUSTER RESPONSE  >>>>>>>>>>>>>*
 *                                                                 *
 *******************************************************************



                         +--------------------------------+
                         ! Coupled Cluster model is: CCSD !
                         +--------------------------------+


 Solving   1 response equations:
 L0 :
 RPA: call cceq_str
     Start vector generated from gradient
 RPA: exit cceq_str
 CCEQ_SOL: IPRLE   =               5
 CCEQ_SOL: TRIPLET =     F
 CCEQ_SOL: LINQCC  =     T
 CCEQ_SOL: NREDH   =               1
 CCEQ_SOL: MAXRED  =             200
 CCEQ_SOL: MAXLE   =             300
 CCEQ_SOL: ISIDE   =              -1
 CCEQ_SOL: ISTRVE  =               1
 CCEQ_SOL: NVEC    =               1
 CCEQ_SOL: NUPVEC  =               1
 CCEQ_SOL: NCCVAR  =            1385



 >>>>> COUPLED CLUSTER RESPONSE SOLVER <<<<<

    Iter  #Vectors  time (min)   residual
    --------------------------------------
  
 Time used in CC_LHTR :   8.0000013113021851E-003
  
  
 ROOT:  1 RESIDUAL TOT: 4.77481D-01
      1       1         0.00     0.48E+00
 Dimension of the reduced space:     2
 >>> TIME USED IN THIS MICRO ITERATION        0.01

  
 Time used in CC_LHTR :   6.9999992847442627E-003
  
  
 ROOT:  1 RESIDUAL TOT: 1.14398D-01
      2       1         0.00     0.11E+00
 Dimension of the reduced space:     3
 >>> TIME USED IN THIS MICRO ITERATION        0.01

  
 Time used in CC_LHTR :   6.9999992847442627E-003
  
  
 ROOT:  1 RESIDUAL TOT: 2.24432D-02
      3       1         0.00     0.22E-01
 Dimension of the reduced space:     4
 >>> TIME USED IN THIS MICRO ITERATION        0.01

  
 Time used in CC_LHTR :   8.0000013113021851E-003
  
  
 ROOT:  1 RESIDUAL TOT: 5.00602D-03
      4       1         0.00     0.50E-02
 Dimension of the reduced space:     5
 >>> TIME USED IN THIS MICRO ITERATION        0.01

  
 Time used in CC_LHTR :   8.0000013113021851E-003
  
  
 ROOT:  1 RESIDUAL TOT: 1.04528D-03
      5       1         0.00     0.10E-02
 Dimension of the reduced space:     6
 >>> TIME USED IN THIS MICRO ITERATION        0.01

  
 Time used in CC_LHTR :   6.9999992847442627E-003
  
  
 ROOT:  1 RESIDUAL TOT: 2.88243D-04
      6       1         0.00     0.29E-03
 Dimension of the reduced space:     7
 >>> TIME USED IN THIS MICRO ITERATION        0.01

  
 Time used in CC_LHTR :   6.9999992847442627E-003
  
  
 ROOT:  1 RESIDUAL TOT: 6.13074D-05
      7       1         0.00     0.61E-04
 Dimension of the reduced space:     8
 >>> TIME USED IN THIS MICRO ITERATION        0.01

  
 Time used in CC_LHTR :   8.0000013113021851E-003
  
  
 ROOT:  1 RESIDUAL TOT: 1.27537D-05
      8       1         0.00     0.13E-04
 Dimension of the reduced space:     9
 >>> TIME USED IN THIS MICRO ITERATION        0.01

  
 Time used in CC_LHTR :   6.9999992847442627E-003
  
  
 ROOT:  1 RESIDUAL TOT: 2.02673D-06
      9       1         0.00     0.20E-05
 Dimension of the reduced space:    10
 >>> TIME USED IN THIS MICRO ITERATION        0.01

  
 Time used in CC_LHTR :   7.9999864101409912E-003
  
  
 ROOT:  1 RESIDUAL TOT: 3.20927D-07
     10       1         0.00     0.32E-06
 Dimension of the reduced space:    11
 >>> TIME USED IN THIS MICRO ITERATION        0.01

  
 Time used in CC_LHTR :   6.9999992847442627E-003
  
  
 ROOT:  1 RESIDUAL TOT: 4.60570D-08
     11       1         0.00     0.46E-07
 Dimension of the reduced space:    12
 >>> TIME USED IN THIS MICRO ITERATION        0.01

  
 Time used in CC_LHTR :   8.0000013113021851E-003
  
  
 ROOT:  1 RESIDUAL TOT: 7.42594D-09
     12       1         0.00     0.74E-08
 Dimension of the reduced space:    13
 >>> TIME USED IN THIS MICRO ITERATION        0.01

  
 Time used in CC_LHTR :   6.9999992847442627E-003
  
  
 ROOT:  1 RESIDUAL TOT: 1.03791D-09
     13       1         0.00     0.10E-08
 Dimension of the reduced space:    14
 >>> TIME USED IN THIS MICRO ITERATION        0.01

  
 Time used in CC_LHTR :   7.9999864101409912E-003
  
  
 ROOT:  1 RESIDUAL TOT: 1.78720D-10
 ROOT:  1 HAS CONVERGED. RESIDUAL TOT: 1.78720D-10
     14       1         0.00     0.18E-09
 Dimension of the reduced space:    14
 >>> TIME USED IN THIS MICRO ITERATION        0.01

    --------------------------------------
    converged in 14 iterations
    threshold:    0.10E-08


         Routine          Time (min)
         ---------------------------
         CC_TRDRV            0.00
         CCRED               0.00
         CCNEX               0.00
         ---------------------------
         Total time          0.00


 >>>> Total CPU  time used in CCEQ_SOLV:   0.12 seconds
 >>>> Total wall time used in CCEQ_SOLV:   0.16 seconds


 >>>>>>>>>>>>>>>>>>>>> <<<<<<<<<<<<<<<<<<<<<



 Analysis of CC Response/Cauchy vector:
 --------------------------------------


          CC_PRAM:Overall Contribution of the Different Components
          --------------------------------------------------------



          Single Excitation Contribution :               0.3110 %

          Double Excitation Contribution :              99.6890 %

          ||T1||/||T2||                  :               0.0559

          Norm of Total Amplitude Vector :               0.3993


 +=============================================================================+
 | symmetry|  orbital index  |   Excitation Numbers             |   Amplitude  |
 |  Index  |   a   b   i   j |      NAI      NBJ |     NAIBJ    |              |
 +=============================================================================+
 | 1   1   |   1       3     |       21          |              |   -0.013143  |
 +-----------------------------------------------------------------------------+
 | 2 1 2 1 |   1   3   1   4 |       41       33 |          853 |    0.114781  |
 +=============================================================================+


          Norm of Printed Amplitude Vector :             0.1155

          Printed all single excitations greater than 0.010000

          Printed all double excitations greater than 0.099844
            Norm of singles part:        0.2226662060E-01
            Norm of doubles part:        0.3986596569E+00
  
   

 *******************************************************************
 *                                                                 *
 *<<<<<<<<<< OUTPUT FROM COUPLED CLUSTER LINEAR RESPONSE >>>>>>>>>>*
 *                                                                 *
 *<<<<<<<<<<     CALCULATION OF EXCITATION ENERGIES      >>>>>>>>>>*
 *                                                                 *
 *******************************************************************



                           +---------------------------+
                           !  CCSD Excitation Energies !
                           +---------------------------+


 --------------------------
 Symmetry class Nr.:     1
 Multiplicity      :     1
 --------------------------

 Length of Excitation vectors in this class is:      1385
 No Excitation Energies calculated in this symmetry class

 --------------------------
 Symmetry class Nr.:     1
 Multiplicity      :     3
 --------------------------

 Length of Excitation vectors in this class is:      2726
 No Excitation Energies calculated in this symmetry class


 *******************************************************************************

 --------------------------
 Symmetry class Nr.:     2
 Multiplicity      :     1
 --------------------------

 Length of Excitation vectors in this class is:      1170
 Converging for  5 roots.
  >> output from FNDMN3 <<
  LOWEST VALUE AND PLACE   0.84188843220943588               17
  HIGHST VALUE AND PLACE    59.588757068665245              168
IELMNT XMIN IMIN NDEG        1    8.41888D-01      17   1
IELMNT XMIN IMIN NDEG        2    1.64519D+00      18   1
IELMNT XMIN IMIN NDEG        3    1.68378D+00     761   1
IELMNT XMIN IMIN NDEG        4    1.79539D+00     751   1
IELMNT XMIN IMIN NDEG        5    2.11398D+00      19   1
IELMNT XMIN IMIN NDEG        6    2.11398D+00      13   2
IELMNT XMIN IMIN NDEG        7    2.16449D+00      20   1
IELMNT XMIN IMIN NDEG        8    2.22559D+00       9   1
IELMNT XMIN IMIN NDEG        9    2.48708D+00     805   1
  NUMBER OF ELEMENTS OBTAINED IN FNDMN3            8
  FROM FNDMN3 : 
    PLACES OF LOWEST ELEMENTS 
     1 :     17     18    761    751     19     13     20      9
  MIN AND MAX IN SELECTED SUPSPACE   0.84188843220943588        2.2255921461201931     
 Start vector guessed from diagonal
 ... selected element no. 17
 Start vector guessed from diagonal
 ... selected element no. 18
 Start vector guessed from diagonal
 ... selected element no.761
 Start vector guessed from diagonal
 ... selected element no.751
 Start vector guessed from diagonal
 ... selected element no. 19
 CCEQ_SOL: IPRLE   =               5
 CCEQ_SOL: TRIPLET =     F
 CCEQ_SOL: LINQCC  =     F
 CCEQ_SOL: NREDH   =               5
 CCEQ_SOL: MAXRED  =             200
 CCEQ_SOL: MAXLE   =             300
 CCEQ_SOL: ISIDE   =               1
 CCEQ_SOL: ISTRVE  =               1
 CCEQ_SOL: NVEC    =               5
 CCEQ_SOL: NUPVEC  =               5
 CCEQ_SOL: NCCVAR  =            1170



 >>>>> COUPLED CLUSTER RESPONSE SOLVER <<<<<

    Iter  #Vectors  time (min)   residual
    --------------------------------------


 Time used in     CC_RHTR in total   :       0.00 seconds
 Time used in   CC part              :       0.00 seconds
 Time used in   Int. calc. & read    :       0.00 seconds
 Time used in   IO of vectors/I.M.   :       0.00 seconds
  


 Time used in     CC_RHTR in total   :       0.01 seconds
 Time used in   CC part              :       0.01 seconds
 Time used in   Int. calc. & read    :       0.00 seconds
 Time used in   IO of vectors/I.M.   :       0.00 seconds
  


 Time used in     CC_RHTR in total   :       0.01 seconds
 Time used in   CC part              :       0.01 seconds
 Time used in   Int. calc. & read    :       0.00 seconds
 Time used in   IO of vectors/I.M.   :       0.00 seconds
  


 Time used in     CC_RHTR in total   :       0.00 seconds
 Time used in   CC part              :       0.00 seconds
 Time used in   Int. calc. & read    :       0.00 seconds
 Time used in   IO of vectors/I.M.   :       0.00 seconds
  


 Time used in     CC_RHTR in total   :       0.01 seconds
 Time used in   CC part              :       0.01 seconds
 Time used in   Int. calc. & read    :       0.00 seconds
 Time used in   IO of vectors/I.M.   :       0.00 seconds
  

 REDUCED EIGENVALUES real part:

               Column   1
       1       0.50644602
       2       1.24034705
       3       1.49244670
       4       1.54502445
       5       1.56762495
    ==== End of matrix output ====
  
 ROOT:  1 RESIDUAL TOT: 4.59010D-01
 ROOT:  2 RESIDUAL TOT: 5.42975D-01
 ROOT:  3 RESIDUAL TOT: 4.31924D-01
 ROOT:  4 RESIDUAL TOT: 3.25227D-01
 ROOT:  5 RESIDUAL TOT: 4.36994D-01
      1       5         0.00     0.54E+00

 Lowest eigenvalues in this iteration: 

               Column   1
       1       0.50644602
       2       1.24034705
       3       1.49244670
       4       1.54502445
       5       1.56762495
    ==== End of matrix output ====
 Dimension of the reduced space:    10
 >>> TIME USED IN THIS MICRO ITERATION        0.03



 Time used in     CC_RHTR in total   :       0.01 seconds
 Time used in   CC part              :       0.01 seconds
 Time used in   Int. calc. & read    :       0.00 seconds
 Time used in   IO of vectors/I.M.   :       0.00 seconds
  


 Time used in     CC_RHTR in total   :       0.01 seconds
 Time used in   CC part              :       0.01 seconds
 Time used in   Int. calc. & read    :       0.00 seconds
 Time used in   IO of vectors/I.M.   :       0.00 seconds
  


 Time used in     CC_RHTR in total   :       0.01 seconds
 Time used in   CC part              :       0.01 seconds
 Time used in   Int. calc. & read    :       0.00 seconds
 Time used in   IO of vectors/I.M.   :       0.00 seconds
  


 Time used in     CC_RHTR in total   :       0.01 seconds
 Time used in   CC part              :       0.01 seconds
 Time used in   Int. calc. & read    :       0.00 seconds
 Time used in   IO of vectors/I.M.   :       0.00 seconds
  


 Time used in     CC_RHTR in total   :       0.01 seconds
 Time used in   CC part              :       0.00 seconds
 Time used in   Int. calc. & read    :       0.00 seconds
 Time used in   IO of vectors/I.M.   :       0.00 seconds
  

 REDUCED EIGENVALUES real part:

               Column   1
       1       0.39948288
       2       1.09308169
       3       1.34092730
       4       1.39639293
       5       1.50294350
    ==== End of matrix output ====
  
 ROOT:  1 RESIDUAL TOT: 6.38791D-02
 ROOT:  2 RESIDUAL TOT: 1.27046D-01
 ROOT:  3 RESIDUAL TOT: 1.44811D-01
 ROOT:  4 RESIDUAL TOT: 1.96213D-01
 ROOT:  5 RESIDUAL TOT: 7.49918D-02
      2       5         0.00     0.20E+00

 Lowest eigenvalues in this iteration: 

               Column   1
       1       0.39948288
       2       1.09308169
       3       1.34092730
       4       1.39639293
       5       1.50294350
    ==== End of matrix output ====
 Dimension of the reduced space:    15
 >>> TIME USED IN THIS MICRO ITERATION        0.04



 Time used in     CC_RHTR in total   :       0.01 seconds
 Time used in   CC part              :       0.01 seconds
 Time used in   Int. calc. & read    :       0.00 seconds
 Time used in   IO of vectors/I.M.   :       0.00 seconds
  


 Time used in     CC_RHTR in total   :       0.01 seconds
 Time used in   CC part              :       0.01 seconds
 Time used in   Int. calc. & read    :       0.00 seconds
 Time used in   IO of vectors/I.M.   :       0.00 seconds
  


 Time used in     CC_RHTR in total   :       0.01 seconds
 Time used in   CC part              :       0.01 seconds
 Time used in   Int. calc. & read    :       0.00 seconds
 Time used in   IO of vectors/I.M.   :       0.00 seconds
  


 Time used in     CC_RHTR in total   :       0.01 seconds
 Time used in   CC part              :       0.01 seconds
 Time used in   Int. calc. & read    :       0.00 seconds
 Time used in   IO of vectors/I.M.   :       0.00 seconds
  


 Time used in     CC_RHTR in total   :       0.01 seconds
 Time used in   CC part              :       0.01 seconds
 Time used in   Int. calc. & read    :       0.00 seconds
 Time used in   IO of vectors/I.M.   :       0.00 seconds
  

 REDUCED EIGENVALUES real part:

               Column   1
       1       0.39954114
       2       1.08928885
       3       1.33005749
       4       1.37414042
       5       1.50201440
    ==== End of matrix output ====
  
 ROOT:  1 RESIDUAL TOT: 1.20721D-02
 ROOT:  2 RESIDUAL TOT: 4.45222D-02
 ROOT:  3 RESIDUAL TOT: 7.22450D-02
 ROOT:  4 RESIDUAL TOT: 7.67792D-02
 ROOT:  5 RESIDUAL TOT: 5.24260D-02
      3       5         0.00     0.77E-01

 Lowest eigenvalues in this iteration: 

               Column   1
       1       0.39954114
       2       1.08928885
       3       1.33005749
       4       1.37414042
       5       1.50201440
    ==== End of matrix output ====
 Dimension of the reduced space:    20
 >>> TIME USED IN THIS MICRO ITERATION        0.04



 Time used in     CC_RHTR in total   :       0.01 seconds
 Time used in   CC part              :       0.01 seconds
 Time used in   Int. calc. & read    :       0.00 seconds
 Time used in   IO of vectors/I.M.   :       0.00 seconds
  


 Time used in     CC_RHTR in total   :       0.01 seconds
 Time used in   CC part              :       0.01 seconds
 Time used in   Int. calc. & read    :       0.00 seconds
 Time used in   IO of vectors/I.M.   :       0.00 seconds
  


 Time used in     CC_RHTR in total   :       0.01 seconds
 Time used in   CC part              :       0.01 seconds
 Time used in   Int. calc. & read    :       0.00 seconds
 Time used in   IO of vectors/I.M.   :       0.00 seconds
  


 Time used in     CC_RHTR in total   :       0.01 seconds
 Time used in   CC part              :       0.01 seconds
 Time used in   Int. calc. & read    :       0.00 seconds
 Time used in   IO of vectors/I.M.   :       0.00 seconds
  


 Time used in     CC_RHTR in total   :       0.01 seconds
 Time used in   CC part              :       0.01 seconds
 Time used in   Int. calc. & read    :       0.00 seconds
 Time used in   IO of vectors/I.M.   :       0.00 seconds
  

 REDUCED EIGENVALUES real part:

               Column   1
       1       0.39983555
       2       1.08968864
       3       1.32845675
       4       1.37099769
       5       1.50168476
    ==== End of matrix output ====
  
 ROOT:  1 RESIDUAL TOT: 2.50065D-03
 ROOT:  2 RESIDUAL TOT: 1.60217D-02
 ROOT:  3 RESIDUAL TOT: 2.31010D-02
 ROOT:  4 RESIDUAL TOT: 3.84482D-02
 ROOT:  5 RESIDUAL TOT: 3.84444D-02
      4       5         0.00     0.38E-01

 Lowest eigenvalues in this iteration: 

               Column   1
       1       0.39983555
       2       1.08968864
       3       1.32845675
       4       1.37099769
       5       1.50168476
    ==== End of matrix output ====
 Dimension of the reduced space:    25
 >>> TIME USED IN THIS MICRO ITERATION        0.04



 Time used in     CC_RHTR in total   :       0.01 seconds
 Time used in   CC part              :       0.00 seconds
 Time used in   Int. calc. & read    :       0.00 seconds
 Time used in   IO of vectors/I.M.   :       0.00 seconds
  


 Time used in     CC_RHTR in total   :       0.01 seconds
 Time used in   CC part              :       0.01 seconds
 Time used in   Int. calc. & read    :       0.00 seconds
 Time used in   IO of vectors/I.M.   :       0.00 seconds
  


 Time used in     CC_RHTR in total   :       0.01 seconds
 Time used in   CC part              :       0.01 seconds
 Time used in   Int. calc. & read    :       0.00 seconds
 Time used in   IO of vectors/I.M.   :       0.00 seconds
  


 Time used in     CC_RHTR in total   :       0.01 seconds
 Time used in   CC part              :       0.00 seconds
 Time used in   Int. calc. & read    :       0.00 seconds
 Time used in   IO of vectors/I.M.   :       0.00 seconds
  


 Time used in     CC_RHTR in total   :       0.01 seconds
 Time used in   CC part              :       0.01 seconds
 Time used in   Int. calc. & read    :       0.00 seconds
 Time used in   IO of vectors/I.M.   :       0.00 seconds
  

 REDUCED EIGENVALUES real part:

               Column   1
       1       0.39986224
       2       1.08978067
       3       1.32823918
       4       1.36994344
       5       1.50090029
    ==== End of matrix output ====
  
 ROOT:  1 RESIDUAL TOT: 5.55403D-04
 ROOT:  2 RESIDUAL TOT: 6.68219D-03
 ROOT:  3 RESIDUAL TOT: 1.32241D-02
 ROOT:  4 RESIDUAL TOT: 2.68299D-02
 ROOT:  5 RESIDUAL TOT: 5.37316D-02
      5       5         0.00     0.54E-01

 Lowest eigenvalues in this iteration: 

               Column   1
       1       0.39986224
       2       1.08978067
       3       1.32823918
       4       1.36994344
       5       1.50090029
    ==== End of matrix output ====
 Dimension of the reduced space:    30
 >>> TIME USED IN THIS MICRO ITERATION        0.04



 Time used in     CC_RHTR in total   :       0.01 seconds
 Time used in   CC part              :       0.01 seconds
 Time used in   Int. calc. & read    :       0.00 seconds
 Time used in   IO of vectors/I.M.   :       0.00 seconds
  


 Time used in     CC_RHTR in total   :       0.01 seconds
 Time used in   CC part              :       0.01 seconds
 Time used in   Int. calc. & read    :       0.00 seconds
 Time used in   IO of vectors/I.M.   :       0.00 seconds
  


 Time used in     CC_RHTR in total   :       0.01 seconds
 Time used in   CC part              :       0.01 seconds
 Time used in   Int. calc. & read    :       0.00 seconds
 Time used in   IO of vectors/I.M.   :       0.00 seconds
  


 Time used in     CC_RHTR in total   :       0.01 seconds
 Time used in   CC part              :       0.01 seconds
 Time used in   Int. calc. & read    :       0.00 seconds
 Time used in   IO of vectors/I.M.   :       0.00 seconds
  


 Time used in     CC_RHTR in total   :       0.01 seconds
 Time used in   CC part              :       0.01 seconds
 Time used in   Int. calc. & read    :       0.00 seconds
 Time used in   IO of vectors/I.M.   :       0.00 seconds
  

 REDUCED EIGENVALUES real part:

               Column   1
       1       0.39986215
       2       1.08972394
       3       1.32822748
       4       1.36966013
       5       1.49951250
    ==== End of matrix output ====
  
 ROOT:  1 RESIDUAL TOT: 1.07710D-04
 ROOT:  2 RESIDUAL TOT: 2.76197D-03
 ROOT:  3 RESIDUAL TOT: 8.87102D-03
 ROOT:  4 RESIDUAL TOT: 1.34534D-02
 ROOT:  5 RESIDUAL TOT: 9.53495D-02
      6       5         0.00     0.95E-01

 Lowest eigenvalues in this iteration: 

               Column   1
       1       0.39986215
       2       1.08972394
       3       1.32822748
       4       1.36966013
       5       1.49951250
    ==== End of matrix output ====
 Dimension of the reduced space:    35
 >>> TIME USED IN THIS MICRO ITERATION        0.04



 Time used in     CC_RHTR in total   :       0.01 seconds
 Time used in   CC part              :       0.01 seconds
 Time used in   Int. calc. & read    :       0.00 seconds
 Time used in   IO of vectors/I.M.   :       0.00 seconds
  


 Time used in     CC_RHTR in total   :       0.01 seconds
 Time used in   CC part              :       0.01 seconds
 Time used in   Int. calc. & read    :       0.00 seconds
 Time used in   IO of vectors/I.M.   :       0.00 seconds
  


 Time used in     CC_RHTR in total   :       0.01 seconds
 Time used in   CC part              :       0.01 seconds
 Time used in   Int. calc. & read    :       0.00 seconds
 Time used in   IO of vectors/I.M.   :       0.00 seconds
  


 Time used in     CC_RHTR in total   :       0.01 seconds
 Time used in   CC part              :       0.01 seconds
 Time used in   Int. calc. & read    :       0.00 seconds
 Time used in   IO of vectors/I.M.   :       0.00 seconds
  


 Time used in     CC_RHTR in total   :       0.01 seconds
 Time used in   CC part              :       0.01 seconds
 Time used in   Int. calc. & read    :       0.00 seconds
 Time used in   IO of vectors/I.M.   :       0.00 seconds
  

 REDUCED EIGENVALUES real part:

               Column   1
       1       0.39986216
       2       1.08969824
       3       1.32821708
       4       1.36990526
       5       1.49697766
    ==== End of matrix output ====
  
 ROOT:  1 RESIDUAL TOT: 1.87960D-05
 ROOT:  2 RESIDUAL TOT: 1.12363D-03
 ROOT:  3 RESIDUAL TOT: 4.44388D-03
 ROOT:  4 RESIDUAL TOT: 7.52160D-03
 ROOT:  5 RESIDUAL TOT: 1.23465D-01
      7       5         0.00     0.12E+00

 Lowest eigenvalues in this iteration: 

               Column   1
       1       0.39986216
       2       1.08969824
       3       1.32821708
       4       1.36990526
       5       1.49697766
    ==== End of matrix output ====
 Dimension of the reduced space:    40
 >>> TIME USED IN THIS MICRO ITERATION        0.04



 Time used in     CC_RHTR in total   :       0.01 seconds
 Time used in   CC part              :       0.01 seconds
 Time used in   Int. calc. & read    :       0.00 seconds
 Time used in   IO of vectors/I.M.   :       0.00 seconds
  


 Time used in     CC_RHTR in total   :       0.01 seconds
 Time used in   CC part              :       0.01 seconds
 Time used in   Int. calc. & read    :       0.00 seconds
 Time used in   IO of vectors/I.M.   :       0.00 seconds
  


 Time used in     CC_RHTR in total   :       0.01 seconds
 Time used in   CC part              :       0.01 seconds
 Time used in   Int. calc. & read    :       0.00 seconds
 Time used in   IO of vectors/I.M.   :       0.00 seconds
  


 Time used in     CC_RHTR in total   :       0.01 seconds
 Time used in   CC part              :       0.01 seconds
 Time used in   Int. calc. & read    :       0.00 seconds
 Time used in   IO of vectors/I.M.   :       0.00 seconds
  


 Time used in     CC_RHTR in total   :       0.01 seconds
 Time used in   CC part              :       0.01 seconds
 Time used in   Int. calc. & read    :       0.00 seconds
 Time used in   IO of vectors/I.M.   :       0.00 seconds
  

 REDUCED EIGENVALUES real part:

               Column   1
       1       0.39986220
       2       1.08969579
       3       1.32821342
       4       1.37006160
       5       1.49442401
    ==== End of matrix output ====
  
 ROOT:  1 RESIDUAL TOT: 2.99061D-06
 ROOT:  2 RESIDUAL TOT: 3.44555D-04
 ROOT:  3 RESIDUAL TOT: 1.37124D-03
 ROOT:  4 RESIDUAL TOT: 3.08583D-03
 ROOT:  5 RESIDUAL TOT: 6.25369D-02
      8       5         0.00     0.63E-01

 Lowest eigenvalues in this iteration: 

               Column   1
       1       0.39986220
       2       1.08969579
       3       1.32821342
       4       1.37006160
       5       1.49442401
    ==== End of matrix output ====
 Dimension of the reduced space:    45
 >>> TIME USED IN THIS MICRO ITERATION        0.05



 Time used in     CC_RHTR in total   :       0.01 seconds
 Time used in   CC part              :       0.01 seconds
 Time used in   Int. calc. & read    :       0.00 seconds
 Time used in   IO of vectors/I.M.   :       0.00 seconds
  


 Time used in     CC_RHTR in total   :       0.01 seconds
 Time used in   CC part              :       0.01 seconds
 Time used in   Int. calc. & read    :       0.00 seconds
 Time used in   IO of vectors/I.M.   :       0.00 seconds
  


 Time used in     CC_RHTR in total   :       0.01 seconds
 Time used in   CC part              :       0.01 seconds
 Time used in   Int. calc. & read    :       0.00 seconds
 Time used in   IO of vectors/I.M.   :       0.00 seconds
  


 Time used in     CC_RHTR in total   :       0.01 seconds
 Time used in   CC part              :       0.01 seconds
 Time used in   Int. calc. & read    :       0.00 seconds
 Time used in   IO of vectors/I.M.   :       0.00 seconds
  


 Time used in     CC_RHTR in total   :       0.01 seconds
 Time used in   CC part              :       0.01 seconds
 Time used in   Int. calc. & read    :       0.00 seconds
 Time used in   IO of vectors/I.M.   :       0.00 seconds
  

 REDUCED EIGENVALUES real part:

               Column   1
       1       0.39986219
       2       1.08969464
       3       1.32821575
       4       1.37008376
       5       1.49336066
    ==== End of matrix output ====
  
 ROOT:  1 RESIDUAL TOT: 4.86349D-07
 ROOT:  2 RESIDUAL TOT: 8.53495D-05
 ROOT:  3 RESIDUAL TOT: 4.01802D-04
 ROOT:  4 RESIDUAL TOT: 9.86586D-04
 ROOT:  5 RESIDUAL TOT: 2.35958D-02
      9       5         0.00     0.24E-01

 Lowest eigenvalues in this iteration: 

               Column   1
       1       0.39986219
       2       1.08969464
       3       1.32821575
       4       1.37008376
       5       1.49336066
    ==== End of matrix output ====
 Dimension of the reduced space:    50
 >>> TIME USED IN THIS MICRO ITERATION        0.07



 Time used in     CC_RHTR in total   :       0.01 seconds
 Time used in   CC part              :       0.01 seconds
 Time used in   Int. calc. & read    :       0.00 seconds
 Time used in   IO of vectors/I.M.   :       0.00 seconds
  


 Time used in     CC_RHTR in total   :       0.01 seconds
 Time used in   CC part              :       0.01 seconds
 Time used in   Int. calc. & read    :       0.00 seconds
 Time used in   IO of vectors/I.M.   :       0.00 seconds
  


 Time used in     CC_RHTR in total   :       0.01 seconds
 Time used in   CC part              :       0.01 seconds
 Time used in   Int. calc. & read    :       0.00 seconds
 Time used in   IO of vectors/I.M.   :       0.00 seconds
  


 Time used in     CC_RHTR in total   :       0.01 seconds
 Time used in   CC part              :       0.01 seconds
 Time used in   Int. calc. & read    :       0.00 seconds
 Time used in   IO of vectors/I.M.   :       0.00 seconds
  


 Time used in     CC_RHTR in total   :       0.01 seconds
 Time used in   CC part              :       0.01 seconds
 Time used in   Int. calc. & read    :       0.00 seconds
 Time used in   IO of vectors/I.M.   :       0.00 seconds
  

 REDUCED EIGENVALUES real part:

               Column   1
       1       0.39986218
       2       1.08969364
       3       1.32821623
       4       1.37008155
       5       1.49303153
    ==== End of matrix output ====
  
 ROOT:  1 RESIDUAL TOT: 9.60615D-08
 ROOT:  2 RESIDUAL TOT: 2.78717D-05
 ROOT:  3 RESIDUAL TOT: 1.82606D-04
 ROOT:  4 RESIDUAL TOT: 3.95808D-04
 ROOT:  5 RESIDUAL TOT: 1.41297D-02
     10       5         0.00     0.14E-01

 Lowest eigenvalues in this iteration: 

               Column   1
       1       0.39986218
       2       1.08969364
       3       1.32821623
       4       1.37008155
       5       1.49303153
    ==== End of matrix output ====
 Dimension of the reduced space:    55
 >>> TIME USED IN THIS MICRO ITERATION        0.05



 Time used in     CC_RHTR in total   :       0.01 seconds
 Time used in   CC part              :       0.01 seconds
 Time used in   Int. calc. & read    :       0.00 seconds
 Time used in   IO of vectors/I.M.   :       0.00 seconds
  


 Time used in     CC_RHTR in total   :       0.01 seconds
 Time used in   CC part              :       0.01 seconds
 Time used in   Int. calc. & read    :       0.00 seconds
 Time used in   IO of vectors/I.M.   :       0.00 seconds
  


 Time used in     CC_RHTR in total   :       0.01 seconds
 Time used in   CC part              :       0.01 seconds
 Time used in   Int. calc. & read    :       0.00 seconds
 Time used in   IO of vectors/I.M.   :       0.00 seconds
  


 Time used in     CC_RHTR in total   :       0.01 seconds
 Time used in   CC part              :       0.01 seconds
 Time used in   Int. calc. & read    :       0.00 seconds
 Time used in   IO of vectors/I.M.   :       0.00 seconds
  


 Time used in     CC_RHTR in total   :       0.01 seconds
 Time used in   CC part              :       0.01 seconds
 Time used in   Int. calc. & read    :       0.00 seconds
 Time used in   IO of vectors/I.M.   :       0.00 seconds
  

 REDUCED EIGENVALUES real part:

               Column   1
       1       0.39986218
       2       1.08969324
       3       1.32821609
       4       1.37008070
       5       1.49304642
    ==== End of matrix output ====
  
 ROOT:  1 RESIDUAL TOT: 1.64307D-08
 ROOT:  2 RESIDUAL TOT: 7.88299D-06
 ROOT:  3 RESIDUAL TOT: 8.15549D-05
 ROOT:  4 RESIDUAL TOT: 1.48172D-04
 ROOT:  5 RESIDUAL TOT: 7.36967D-03
     11       5         0.00     0.74E-02

 Lowest eigenvalues in this iteration: 

               Column   1
       1       0.39986218
       2       1.08969324
       3       1.32821609
       4       1.37008070
       5       1.49304642
    ==== End of matrix output ====
 Dimension of the reduced space:    60
 >>> TIME USED IN THIS MICRO ITERATION        0.04



 Time used in     CC_RHTR in total   :       0.01 seconds
 Time used in   CC part              :       0.01 seconds
 Time used in   Int. calc. & read    :       0.00 seconds
 Time used in   IO of vectors/I.M.   :       0.00 seconds
  


 Time used in     CC_RHTR in total   :       0.01 seconds
 Time used in   CC part              :       0.01 seconds
 Time used in   Int. calc. & read    :       0.00 seconds
 Time used in   IO of vectors/I.M.   :       0.00 seconds
  


 Time used in     CC_RHTR in total   :       0.01 seconds
 Time used in   CC part              :       0.01 seconds
 Time used in   Int. calc. & read    :       0.00 seconds
 Time used in   IO of vectors/I.M.   :       0.00 seconds
  


 Time used in     CC_RHTR in total   :       0.01 seconds
 Time used in   CC part              :       0.01 seconds
 Time used in   Int. calc. & read    :       0.00 seconds
 Time used in   IO of vectors/I.M.   :       0.00 seconds
  


 Time used in     CC_RHTR in total   :       0.01 seconds
 Time used in   CC part              :       0.01 seconds
 Time used in   Int. calc. & read    :       0.00 seconds
 Time used in   IO of vectors/I.M.   :       0.00 seconds
  

 REDUCED EIGENVALUES real part:

               Column   1
       1       0.39986218
       2       1.08969317
       3       1.32821601
       4       1.37008086
       5       1.49305623
    ==== End of matrix output ====
  
 ROOT:  1 RESIDUAL TOT: 2.21716D-09
 ROOT:  1 HAS CONVERGED. RESIDUAL TOT: 2.21716D-09
 ROOT:  2 RESIDUAL TOT: 2.20031D-06
 ROOT:  3 RESIDUAL TOT: 2.50949D-05
 ROOT:  4 RESIDUAL TOT: 3.82085D-05
 ROOT:  5 RESIDUAL TOT: 2.50752D-03
     12       5         0.00     0.25E-02

 Lowest eigenvalues in this iteration: 

               Column   1
       1       0.39986218
       2       1.08969317
       3       1.32821601
       4       1.37008086
       5       1.49305623
    ==== End of matrix output ====
 Dimension of the reduced space:    64
 >>> TIME USED IN THIS MICRO ITERATION        0.05



 Time used in     CC_RHTR in total   :       0.01 seconds
 Time used in   CC part              :       0.01 seconds
 Time used in   Int. calc. & read    :       0.00 seconds
 Time used in   IO of vectors/I.M.   :       0.00 seconds
  


 Time used in     CC_RHTR in total   :       0.01 seconds
 Time used in   CC part              :       0.01 seconds
 Time used in   Int. calc. & read    :       0.00 seconds
 Time used in   IO of vectors/I.M.   :       0.00 seconds
  


 Time used in     CC_RHTR in total   :       0.01 seconds
 Time used in   CC part              :       0.01 seconds
 Time used in   Int. calc. & read    :       0.00 seconds
 Time used in   IO of vectors/I.M.   :       0.00 seconds
  


 Time used in     CC_RHTR in total   :       0.01 seconds
 Time used in   CC part              :       0.01 seconds
 Time used in   Int. calc. & read    :       0.00 seconds
 Time used in   IO of vectors/I.M.   :       0.00 seconds
  

 REDUCED EIGENVALUES real part:

               Column   1
       1       0.39986218
       2       1.08969317
       3       1.32821598
       4       1.37008106
       5       1.49305167
    ==== End of matrix output ====
  
 ROOT:  1 RESIDUAL TOT: 2.15380D-09
 ROOT:  1 HAS CONVERGED. RESIDUAL TOT: 2.15380D-09
 ROOT:  2 RESIDUAL TOT: 6.93911D-07
 ROOT:  3 RESIDUAL TOT: 9.15599D-06
 ROOT:  4 RESIDUAL TOT: 1.39233D-05
 ROOT:  5 RESIDUAL TOT: 1.02970D-03
     13       4         0.00     0.10E-02

 Lowest eigenvalues in this iteration: 

               Column   1
       1       0.39986218
       2       1.08969317
       3       1.32821598
       4       1.37008106
       5       1.49305167
    ==== End of matrix output ====
 Dimension of the reduced space:    68
[...]
 | 2 1 1 1 |   1   1   2   4 |        5       31 |          785 |    0.000984  |
 | 2 1 1 1 |   3   1   3   4 |       11       31 |          791 |   -0.000984  |
 | 2 1 1 1 |   2   2   1   4 |        2       32 |          808 |   -0.001285  |
 | 2 1 1 1 |   4   2   3   4 |       12       32 |          818 |   -0.001452  |
 | 2 1 1 1 |   2   2   4   4 |       14       32 |          820 |    0.000996  |
 | 2 1 1 1 |   4   2   4   4 |       16       32 |          822 |    0.001113  |
 | 2 1 1 1 |   1   3   1   4 |        1       33 |          833 |    0.001553  |
 | 2 1 1 1 |   3   5   2   4 |        7       35 |          891 |   -0.001390  |
 | 2 1 1 1 |   1   6   2   4 |        5       36 |          915 |   -0.001103  |
 | 2 1 1 1 |   4   6   3   4 |       12       36 |          922 |    0.001103  |
 | 2 1 1 1 |   1   7   4   4 |       13       37 |          949 |    0.001429  |
 | 2 1 1 1 |   1   8   2   4 |        5       38 |          967 |   -0.001306  |
 | 2 1 1 1 |   1   9   2   4 |        5       39 |          993 |   -0.001005  |
 | 2 1 1 1 |   4   9   3   4 |       12       39 |         1000 |    0.000984  |
 | 2 1 1 1 |   4   9   4   4 |       16       39 |         1004 |    0.001306  |
 | 1 1 2 1 |   1   7   1   2 |       17       17 |          433 |    0.001005  |
 | 1 1 2 1 |   7   7   1   2 |       23       17 |          439 |   -0.001005  |
 | 1 1 2 1 |   4   1   1   3 |       20       21 |          540 |   -0.000939  |
 | 1 1 2 1 |   6   1   1   3 |       22       21 |          542 |    0.000922  |
 | 1 1 2 1 |   8   1   1   3 |       24       21 |          544 |   -0.001285  |
 | 1 1 2 1 |   7   2   1   3 |       23       22 |          569 |    0.001553  |
 | 1 1 2 1 |   6   3   1   3 |       22       23 |          594 |   -0.001634  |
 | 1 1 2 1 |  10   3   1   3 |       26       23 |          598 |   -0.000949  |
 | 1 1 2 1 |   1   5   1   3 |       17       25 |          641 |   -0.001005  |
 | 1 1 2 1 |   8   5   1   3 |       24       25 |          648 |    0.000984  |
 | 1 1 2 1 |   8   1   1   4 |       24       31 |          804 |   -0.000939  |
 | 1 1 2 1 |  10   1   1   4 |       26       31 |          806 |    0.000922  |
 | 1 1 2 1 |   3   2   1   4 |       19       32 |          825 |   -0.001553  |
 | 1 1 2 1 |   2   5   1   4 |       18       35 |          902 |   -0.001634  |
 | 1 1 2 1 |   6   5   1   4 |       22       35 |          906 |   -0.000949  |
 | 1 1 2 1 |   9   7   1   4 |       25       37 |          961 |    0.001306  |
 +=============================================================================+


          Norm of Printed Amplitude Vector :             0.0433

          Printed all single excitations greater than 0.019559

          Printed all double excitations greater than 0.000835
            Norm of singles part:        0.4267878401E-01
            Norm of doubles part:        0.9113338378E-02


 Testing M1  list with  5 elements on it:
 List Nr.  State     Symmetry     Eigenvalue      T1-norm        T2-norm
     1        1       2         0.3998621848   0.0016604141   0.0001288438
     2        2       2         1.0896931647   0.0015247146   0.0001101048
     3        3       2         1.3282159986   0.0000028511   0.0001110102
     4        4       2         1.3700811569   0.0000279343   0.0003807694
     5        5       2         1.4930540573   0.0018214786   0.0000830529





 List BE  is empty.


 List E0  is empty.


 List BR  is empty.


 List N2  is empty.


 List RC  is empty.


 List LC  is empty.


 List O2  is empty.


 List R2  is empty.


 List CR2 is empty.


 List CO2 is empty.


 List L2  is empty.


 List CL2 is empty.


 List ER1 is empty.


 List EL1 is empty.
 Operator: :   XDIPLEN 
 Average contribution:       0.0028617108
 Response contribution:      0.0000000000
 Total expectation value:    0.0028617108

 Solution of CC response equations completed.


 ******************************************************************
 *                                                                *
 *<<<<<<    OUTPUT FROM COUPLED CLUSTER LINEAR RESPONSE    >>>>>>>*
 *                                                                *
 *<<<<<<  CALCULATION OF ONE-PHOTON AABSORPTION STRENGHTS  >>>>>>>*
 *                                                                *
 ******************************************************************



   For the requested  5 transition moments
         -   0 F matrix transformations with R1 vectors
         -   1 ETA and XKSI vector calculations 
         -   1 extra XKSI vector calculations 
   will be performed.



>>> Time used for    1 O1/X1 vector calculation:        0.00 seconds.

>>> Time used for    1 O1/X1 vector calculation:        0.00 seconds.

>>> Total time for  30 quadratic response func.:        0.00 seconds.


          +-------------------------------------------------------------+
          !      FINAL CCSD RESULTS FOR ONE-PHOTON ABSORPTION STRENGTHS !
          +-------------------------------------------------------------+

 CCOPAPRT: RAU2CGS =    471.44358235695097     


     Transition from ground state to:
     number, multiplicity, symmetry :    1  ^1A" 
     frequency :   0.3998621848 a.u.    10.88080 e.V.     87759.6 cm^-1

     +-----------+-----------------+-----------------+---------------------+
     | operator  |   left moment   |  right moment   | transition strength |
     +-----------+-----------------+-----------------+---------------------+
     | XDIPLEN   |      0.00000000 |      0.00000000 |       0.00000000    |
     | YDIPLEN   |      0.15872979 |      0.31278441 |       0.04964820    |
     | ZDIPLEN   |      0.00000000 |      0.00000000 |       0.00000000    |
     +-----------+-----------------+-----------------+---------------------+
       oscillator strength (length gauge)   :      0.01323496


     Transition from ground state to:
     number, multiplicity, symmetry :    2  ^1A" 
     frequency :   1.0896931647 a.u.    29.65206 e.V.    239160.0 cm^-1

     +-----------+-----------------+-----------------+---------------------+
     | operator  |   left moment   |  right moment   | transition strength |
     +-----------+-----------------+-----------------+---------------------+
     | XDIPLEN   |      0.00000000 |      0.00000000 |       0.00000000    |
     | YDIPLEN   |     -0.19877195 |     -0.39283089 |       0.07808376    |
     | ZDIPLEN   |      0.00000000 |      0.00000000 |       0.00000000    |
     +-----------+-----------------+-----------------+---------------------+
       oscillator strength (length gauge)   :      0.05672490


     Transition from ground state to:
     number, multiplicity, symmetry :    3  ^1A" 
     frequency :   1.3282159986 a.u.    36.14260 e.V.    291509.7 cm^-1

     +-----------+-----------------+-----------------+---------------------+
     | operator  |   left moment   |  right moment   | transition strength |
     +-----------+-----------------+-----------------+---------------------+
     | XDIPLEN   |      0.00000000 |      0.00000000 |       0.00000000    |
     | YDIPLEN   |     -0.00000000 |      0.00000000 |      -0.00000000    |
     | ZDIPLEN   |      0.00000000 |      0.00000000 |       0.00000000    |
     +-----------+-----------------+-----------------+---------------------+
       oscillator strength (length gauge)   :     -0.00000000


     Transition from ground state to:
     number, multiplicity, symmetry :    4  ^1A" 
     frequency :   1.3700811569 a.u.    37.28180 e.V.    300698.1 cm^-1

     +-----------+-----------------+-----------------+---------------------+
     | operator  |   left moment   |  right moment   | transition strength |
     +-----------+-----------------+-----------------+---------------------+
     | XDIPLEN   |      0.00000000 |      0.00000000 |       0.00000000    |
     | YDIPLEN   |     -0.01434019 |     -0.03874610 |       0.00055563    |
     | ZDIPLEN   |      0.00000000 |      0.00000000 |       0.00000000    |
     +-----------+-----------------+-----------------+---------------------+
       oscillator strength (length gauge)   :      0.00050750


     Transition from ground state to:
     number, multiplicity, symmetry :    5  ^1A" 
     frequency :   1.4930540573 a.u.    40.62807 e.V.    327687.5 cm^-1

     +-----------+-----------------+-----------------+---------------------+
     | operator  |   left moment   |  right moment   | transition strength |
     +-----------+-----------------+-----------------+---------------------+
     | XDIPLEN   |      0.00000000 |      0.00000000 |       0.00000000    |
     | YDIPLEN   |     -0.00000000 |      0.00000000 |      -0.00000000    |
     | ZDIPLEN   |      0.00000000 |      0.00000000 |       0.00000000    |
     +-----------+-----------------+-----------------+---------------------+
       oscillator strength (length gauge)   :     -0.00000000

 ******************************************************************
 *                                                                *
 *<<<<<<    OUTPUT FROM COUPLED CLUSTER LINEAR RESPONSE    >>>>>>>*
 *                                                                *
 *<<<<<<  CALCULATION OF TWO-PHOTON AABSORPTION STRENGHTS  >>>>>>>*
 *                                                                *
 ******************************************************************



   For the requested  2 two-photon transition moments
         -   2 generalized F matrix transf. M1 x B x R1
         -   2 generalized Eta vector calc. M1 x A{O}
         -   2 generalized F matrix transf. LE x B x R1
         -   2 generalized Eta vector calc. LE x A{O}
         -   2 G matrix transformations     G  x R1 x R1
         -   2 F{O} matrix transformations  F{O} x RE
         -   4 generalized F matrix transf. L1 x B x RE
         -   4 generalized Eta vector calc. L1 x A{O}
         -   0 M1 x O2 dot products
         -   0 LE x O2 dot products
         -   0 RE x X2 dot products
   will be performed.




 +==================================================+
 |        G MATRIX TRANSFORMATION SECTION           |
 |    (result used to calculate dot products)       |
 +--------------------------------------------------+
 | L vec. | R vec. | R vec. |  # prod. |            |
 | L0  No.| R1  No.| R1  No.| with RE  | time/secs  |
 +--------------------------------------------------+
 |     0  |     5  |     2  |      1  |       0.01  |
 |     0  |     1  |     6  |      1  |       0.00  |
 +--------------------------------------------------+
 | total time for   2 G transforms.:      0.01 secs.|
 +==================================================+



>>> Time used for    2 G matrix transformations:           0.01 seconds.

>>> Time used for    2 F{O} matrix transformations:        0.00 seconds.


 +==================================================+
 |        F MATRIX TRANSFORMATION SECTION           |
 |    (result used to calculate dot products)       |
 +--------------------------------------------------+
 | time for zero order intermediat.:      0.00 secs.|
 | time for  1 sets of left interm.:      0.00 secs.|
 | time for  2 sets of right inter.:      0.01 secs.|
 | time for  2 sets of 2. ord. int.:      0.00 secs.|
 | intermediates calculated in   1 batches          |
 +--------------------------------------------------+
 | L vector | R vector |  # products  |             |
 |  M1  No. |  R1  No. |   with R1    |  time/secs  |
 +--------------------------------------------------+
 |     3    |     5    |      1       |       0.00  |
 |     3    |     1    |      1       |       0.00  |
 +--------------------------------------------------+
 | total time for   2 F transforms.:      0.02 secs.|
 +==================================================+




 +==================================================+
 |        F MATRIX TRANSFORMATION SECTION           |
 |    (result used to calculate dot products)       |
 +--------------------------------------------------+
 | time for zero order intermediat.:      0.00 secs.|
 | time for  1 sets of left interm.:      0.00 secs.|
 | time for  2 sets of right inter.:      0.00 secs.|
 | time for  2 sets of 2. ord. int.:      0.01 secs.|
 | intermediates calculated in   1 batches          |
 +--------------------------------------------------+
 | L vector | R vector |  # products  |             |
 |  LE  No. |  R1  No. |   with R1    |  time/secs  |
 +--------------------------------------------------+
 |     3    |     8    |      1       |       0.00  |
 |     3    |     4    |      1       |       0.00  |
 +--------------------------------------------------+
 | total time for   2 F transforms.:      0.02 secs.|
 +==================================================+




 +==================================================+
 |        F MATRIX TRANSFORMATION SECTION           |
 |    (result used to calculate dot products)       |
 +--------------------------------------------------+
 | time for zero order intermediat.:      0.00 secs.|
 | time for  4 sets of left interm.:      0.00 secs.|
 | time for  1 sets of right inter.:      0.00 secs.|
 | time for  4 sets of 2. ord. int.:      0.01 secs.|
 | intermediates calculated in   1 batches          |
 +--------------------------------------------------+
 | L vector | R vector |  # products  |             |
 |  L1  No. |  RE  No. |   with R1    |  time/secs  |
 +--------------------------------------------------+
 |     3    |     3    |      1       |       0.00  |
 |     2    |     3    |      1       |       0.00  |
 |     1    |     3    |      1       |       0.00  |
 |     4    |     3    |      1       |       0.00  |
 +--------------------------------------------------+
 | total time for   4 F transforms.:      0.03 secs.|
 +==================================================+



>>> Time used for    8 F matrix transformations:        0.06 seconds.

>>> Time used for    8 Eta{O} vector calculation:        0.01 seconds.

>>> Total time for   4 quadratic response func.:        0.08 seconds.


          +-------------------------------------------------------------+
          !      FINAL CCSD RESULTS FOR TWO-PHOTON ABSORPTION STRENGTHS !
          +-------------------------------------------------------------+



   transition         :   X ^1A'   <--    3^1A" 
   excitation energy  :   1.3282159986 a.u.    36.143 e.V.    291510. cm^-1
   photon energy for A:   0.0100000000 a.u.     0.272 e.V.      2195. cm^-1
   photon energy for B:   1.3182159986 a.u.    35.870 e.V.    289315. cm^-1

   +-------------------+----------------+----------------+----------------+
   |    A        B     | M_0f( -0.0100) | M_f0(  0.0100) | S^0f(  0.0100) |
   +-------------------+----------------+----------------+----------------+
   | YDIPLEN  XDIPLEN  |     0.16529871 |     0.04922992 |     0.00813764 |
   | XDIPLEN  YDIPLEN  |     0.16529871 |     0.04922992 |     0.00813764 |
   +-------------------+----------------+----------------+----------------+
 
       Rotationally averaged two-photon transition strengths
                       and rate constants
 
       +-------------------+----------------+----------------+
       |   Polarization    |    DELTA_TP    |   K (0 -> f)   |
       +-------------------+----------------+----------------+
       |  linear (para)    |   0.00000000   |  0.000000E+00  |
       +-------------------+----------------+----------------+
       |  linear (perp)    |   0.00000000   |  0.000000E+00  |
       +-------------------+----------------+----------------+
       |    circular       |   0.00000000   |  0.000000E+00  |
       +-------------------+----------------+----------------+
  

 *******************************************************************************
 *******************************************************************************
 *                                                                             *
 *                                                                             *
 *                   SUMMARY OF COUPLED CLUSTER CALCULATION                    *
 *                                                                             *
 *                                                                             *
 *******************************************************************************
 *******************************************************************************

                                                                                
                                                                                
            Total SCF   energy:                  -100.0089198959                
            Total MP2   energy:                  -100.1936625719                
            Total CCSD  energy:                  -100.1977909068                
                                                                                
                                                                                
 +=============================================================================+
 |  sym. | Exci.  |        CCSD       Excitation energies            | ||T1||  |
 |(spin, |        +------------------------------------------------------------+
 | spat) |        |     Hartree    |       eV.      |     cm-1       |    %    |
 +=============================================================================+
 | ^1A"  |    1   |     0.3998622  |      10.88080  |     87759.605  |  96.03  |
 | ^1A"  |    2   |     1.0896932  |      29.65206  |    239160.003  |  94.91  |
 | ^1A"  |    3   |     1.3282160  |      36.14260  |    291509.714  |   0.35  |
 | ^1A"  |    4   |     1.3700812  |      37.28180  |    300698.054  |   2.40  |
 | ^1A"  |    5   |     1.4930541  |      40.62807  |    327687.486  |  98.58  |
 +=============================================================================+
                                                                                
                                                                                
     Total energies in Hartree:                                                 
             1 ^1A"       -99.7979287220                                        
             2 ^1A"       -99.1080977422                                        
             3 ^1A"       -98.8695749082                                        
             4 ^1A"       -98.8277097499                                        
             5 ^1A"       -98.7047368495                                        

  1 a.u. =        27.21138 eV.  
  1 a.u. =    219474.62934 cm-1.
  

 *******************************************************************************
 *******************************************************************************
 *                                                                             *
 *                                                                             *
 *                      END OF COUPLED CLUSTER CALCULATION                     *
 *                                                                             *
 *                                                                             *
 *******************************************************************************
 *******************************************************************************


 >>>> CPU and wall time for CC :       4.111       6.015

 
     Date and time (Linux)  : Sun Sep  8 20:42:35 2013
     Host name              : lpqlx131.ups-tlse.fr                    


                      .-------------------------------------.
                      | End of Coupled Cluster Section (CC) |
                      `-------------------------------------'

 >>>> Total CPU  time used in DALTON:   4.14 seconds
 >>>> Total wall time used in DALTON:   6.04 seconds

 
     Date and time (Linux)  : Sun Sep  8 20:42:35 2013
     Host name              : lpqlx131.ups-tlse.fr                    
