

     ************************************************************************
     *************** Dalton - An Electronic Structure Program ***************
     ************************************************************************

    This is output from DALTON (Release Dalton2013 patch 0)
   ----------------------------------------------------------------------------
    NOTE:
     
    Dalton is an experimental code for the evaluation of molecular
    properties using (MC)SCF, DFT, CI, and CC wave functions.
    The authors accept no responsibility for the performance of
    the code or for the correctness of the results.
     
    The code (in whole or part) is provided under a licence and
    is not to be reproduced for further distribution without
    the written permission of the authors or their representatives.
     
    See the home page "http://daltonprogram.org" for further information.
     
    If results obtained with this code are published,
    the appropriate citations would be both of:
     
       K. Aidas, C. Angeli, K. L. Bak, V. Bakken, R. Bast,
       L. Boman, O. Christiansen, R. Cimiraglia, S. Coriani,
       P. Dahle, E. K. Dalskov, U. Ekstroem, T. Enevoldsen,
       J. J. Eriksen, P. Ettenhuber, B. Fernandez, L. Ferrighi,
       H. Fliegl, L. Frediani, K. Hald, A. Halkier, C. Haettig,
       H. Heiberg, T. Helgaker, A. C. Hennum, H. Hettema,
       E. Hjertenaes, S. Hoest, I.-M. Hoeyvik, M. F. Iozzi,
       B. Jansik, H. J. Aa. Jensen, D. Jonsson, P. Joergensen,
       J. Kauczor, S. Kirpekar, T. Kjaergaard, W. Klopper,
       S. Knecht, R. Kobayashi, H. Koch, J. Kongsted, A. Krapp,
       K. Kristensen, A. Ligabue, O. B. Lutnaes, J. I. Melo,
       K. V. Mikkelsen, R. H. Myhre, C. Neiss, C. B. Nielsen,
       P. Norman, J. Olsen, J. M. H. Olsen, A. Osted,
       M. J. Packer, F. Pawlowski, T. B. Pedersen, P. F. Provasi,
       S. Reine, Z. Rinkevicius, T. A. Ruden, K. Ruud, V. Rybkin,
       P. Salek, C. C. M. Samson, A. Sanchez de Meras, T. Saue,
       S. P. A. Sauer, B. Schimmelpfennig, K. Sneskov,
       A. H. Steindal, K. O. Sylvester-Hvid, P. R. Taylor,
       A. M. Teale, E. I. Tellgren, D. P. Tew, A. J. Thorvaldsen,
       L. Thoegersen, O. Vahtras, M. A. Watson, D. J. D. Wilson,
       M. Ziolkowski and H. Agren.
       The Dalton quantum chemistry program system.
       WIREs Comput. Mol. Sci. 2013. doi: 10.1002/wcms.1172
    
    and
    
       Dalton, a Molecular Electronic Structure Program,
       Release DALTON2013.0 (2013), see http://daltonprogram.org
   ----------------------------------------------------------------------------

    Authors in alphabetical order (major contribution(s) in parenthesis):

  Kestutis Aidas,           Vilnius University,           Lithuania   (QM/MM)
  Celestino Angeli,         University of Ferrara,        Italy       (NEVPT2)
  Keld L. Bak,              UNI-C,                        Denmark     (AOSOPPA, non-adiabatic coupling, magnetic properties)
  Vebjoern Bakken,          University of Oslo,           Norway      (DALTON; geometry optimizer, symmetry detection)
  Radovan Bast,             KTH Stockholm                 Sweden      (DALTON installation and execution frameworks)
  Linus Boman,              NTNU,                         Norway      (Cholesky decomposition and subsystems)
  Ove Christiansen,         Aarhus University,            Denmark     (CC module)
  Renzo Cimiraglia,         University of Ferrara,        Italy       (NEVPT2)
  Sonia Coriani,            University of Trieste,        Italy       (CC module, MCD in RESPONS)
  Paal Dahle,               University of Oslo,           Norway      (Parallelization)
  Erik K. Dalskov,          UNI-C,                        Denmark     (SOPPA)
  Thomas Enevoldsen,        Univ. of Southern Denmark,    Denmark     (SOPPA)
  Janus J. Eriksen,         Aarhus University,            Denmark     (PE-MP2/SOPPA, TDA)
  Berta Fernandez,          U. of Santiago de Compostela, Spain       (doublet spin, ESR in RESPONS)
  Lara Ferrighi,            Aarhus University,            Denmark     (PCM Cubic response)
  Heike Fliegl,             University of Oslo,           Norway      (CCSD(R12))
  Luca Frediani,            UiT The Arctic U. of Norway,  Norway      (PCM)
  Bin Gao,                  UiT The Arctic U. of Norway,  Norway      (Gen1Int library)
  Christof Haettig,         Ruhr-University Bochum,       Germany     (CC module)
  Kasper Hald,              Aarhus University,            Denmark     (CC module)
  Asger Halkier,            Aarhus University,            Denmark     (CC module)
  Hanne Heiberg,            University of Oslo,           Norway      (geometry analysis, selected one-electron integrals)
  Trygve Helgaker,          University of Oslo,           Norway      (DALTON; ABACUS, ERI, DFT modules, London, and much more)
  Alf Christian Hennum,     University of Oslo,           Norway      (Parity violation)
  Hinne Hettema,            University of Auckland,       New Zealand (quadratic response in RESPONS; SIRIUS supersymmetry)
  Eirik Hjertenaes,         NTNU,                         Norway      (Cholesky decomposition)
  Maria Francesca Iozzi,    University of Oslo,           Norway      (RPA)
  Brano Jansik              Technical Univ. of Ostrava    Czech Rep.  (DFT cubic response)
  Hans Joergen Aa. Jensen,  Univ. of Southern Denmark,    Denmark     (DALTON; SIRIUS, RESPONS, ABACUS modules, London, and much more)
  Dan Jonsson,              UiT The Arctic U. of Norway,  Norway      (cubic response in RESPONS module)
  Poul Joergensen,          Aarhus University,            Denmark     (RESPONS, ABACUS, and CC modules)
  Joanna Kauczor,           Linkoeping University,        Sweden      (Complex polarization propagator (CPP) module)
  Sheela Kirpekar,          Univ. of Southern Denmark,    Denmark     (Mass-velocity & Darwin integrals)
  Wim Klopper,              KIT Karlsruhe,                Germany     (R12 code in CC, SIRIUS, and ABACUS modules)
  Stefan Knecht,            ETH Zurich,                   Switzerland (Parallel CI and MCSCF)
  Rika Kobayashi,           Australian National Univ.,    Australia   (DIIS in CC, London in MCSCF)
  Henrik Koch,              NTNU,                         Norway      (CC module, Cholesky decomposition)
  Jacob Kongsted,           Univ. of Southern Denmark,    Denmark     (Polarizable embedding, QM/MM)
  Andrea Ligabue,           University of Modena,         Italy       (CTOCD, AOSOPPA)
  Ola B. Lutnaes,           University of Oslo,           Norway      (DFT Hessian)
  Juan I. Melo,             University of Buenos Aires,   Argentina   (LRESC, Relativistic Effects on NMR Shieldings)
  Kurt V. Mikkelsen,        University of Copenhagen,     Denmark     (MC-SCRF and QM/MM)
  Rolf H. Myhre,            NTNU,                         Norway      (Cholesky, subsystems and ECC2)
  Christian Neiss,          Univ. Erlangen-Nuernberg,     Germany     (CCSD(R12))
  Christian B. Nielsen,     University of Copenhagen,     Denmark     (QM/MM)
  Patrick Norman,           Linkoeping University,        Sweden      (Cubic response and complex response in RESPONS)
  Jeppe Olsen,              Aarhus University,            Denmark     (SIRIUS CI/density modules)
  Jogvan Magnus H. Olsen,   Univ. of Southern Denmark,    Denmark     (Polarizable embedding, PE library, QM/MM)
  Anders Osted,             Copenhagen University,        Denmark     (QM/MM)
  Martin J. Packer,         University of Sheffield,      UK          (SOPPA)
  Filip Pawlowski,          Kazimierz Wielki University   Poland      (CC3)
  Thomas B. Pedersen,       University of Oslo,           Norway      (Cholesky decomposition)
  Patricio F. Provasi,      University of Northeastern,   Argentina   (Analysis of coupling constants in localized orbitals)
  Zilvinas Rinkevicius,     KTH Stockholm,                Sweden      (open-shell DFT, ESR)
  Elias Rudberg,            KTH Stockholm,                Sweden      (DFT grid and basis info)
  Torgeir A. Ruden,         University of Oslo,           Norway      (Numerical derivatives in ABACUS)
  Kenneth Ruud,             UiT The Arctic U. of Norway,  Norway      (DALTON; ABACUS magnetic properties and  much more)
  Pawel Salek,              KTH Stockholm,                Sweden      (DALTON; DFT code)
  Claire C. M. Samson       University of Karlsruhe       Germany     (Boys localization, r12 integrals in ERI)
  Alfredo Sanchez de Meras, University of Valencia,       Spain       (CC module, Cholesky decomposition)
  Trond Saue,               Paul Sabatier University,     France      (direct Fock matrix construction)
  Stephan P. A. Sauer,      University of Copenhagen,     Denmark     (SOPPA(CCSD), SOPPA prop., AOSOPPA, vibrational g-factors)
  Bernd Schimmelpfennig,    Forschungszentrum Karlsruhe,  Germany     (AMFI module)
  Kristian Sneskov,         Aarhus University,            Denmark     (QM/MM, PE-CC)
  Arnfinn H. Steindal,      UiT The Arctic U. of Norway,  Norway      (parallel QM/MM)
  K. O. Sylvester-Hvid,     University of Copenhagen,     Denmark     (MC-SCRF)
  Peter R. Taylor,          VLSCI/Univ. of Melbourne,     Australia   (Symmetry handling ABACUS, integral transformation)
  Andrew M. Teale,          University of Nottingham,     England     (DFT-AC, DFT-D)
  David P. Tew,             University of Bristol,        England     (CCSD(R12))
  Olav Vahtras,             KTH Stockholm,                Sweden      (triplet response, spin-orbit, ESR, TDDFT, open-shell DFT)
  David J. Wilson,          La Trobe University,          Australia   (DFT Hessian and DFT magnetizabilities)
  Hans Agren,               KTH Stockholm,                Sweden      (SIRIUS module, RESPONS, MC-SCRF solvation model)
 --------------------------------------------------------------------------------

     Date and time (Linux)  : Sun Sep  8 20:43:34 2013
     Host name              : lpqlx131.ups-tlse.fr                    

 * Work memory size             :    64000000 =  488.28 megabytes.

 * Directories for basis set searches:
   1) /home/bast/DALTON-2013.0-Source/build/test_cc_rsp_gammadirect
   2) /home/bast/DALTON-2013.0-Source/build/basis


Compilation information
-----------------------

 Who compiled             | bast
 Host                     | lpqlx131.ups-tlse.fr
 System                   | Linux-3.8.5-201.fc18.x86_64
 CMake generator          | Unix Makefiles
 Processor                | x86_64
 64-bit integers          | OFF
 MPI                      | OFF
 Fortran compiler         | /usr/bin/gfortran
 Fortran compiler version | GNU Fortran (GCC) 4.7.2 20121109 (Red Hat 4.7.2-8)
 C compiler               | /usr/bin/gcc
 C compiler version       | gcc (GCC) 4.7.2 20121109 (Red Hat 4.7.2-8)
 C++ compiler             | /usr/bin/g++
 C++ compiler version     | g++ (GCC) 4.7.2 20121109 (Red Hat 4.7.2-8)
 Static linking           | OFF
 Last Git revision        | f34203295a86316e27f9e7b44f9b6769c4a046c0
 Configuration time       | 2013-09-08 20:31:27.952056


   Content of the .dal input file
 ----------------------------------

**DALTON INPUT                                    
.RUN WAVE FUNCTIONS                               
.DIRECT                                           
**INTEGRAL                                        
.DIPLEN                                           
**WAVE FUNCTIONS                                  
.TITLE                                            
  second hyperpolarizability for the HF molecule  
  for a CCS wavefunction compute:                 
  - parallel isotropic average (gamma_||)         
  - A & B coefficients  (2. and 4. order disp. coe
  - use explicitly symmetry of linear molecules   
.CC                                               
*SCF INPUT                                        
.THRESH                                           
 1.0d-12                                          
*CC INPUT                                         
.CCSD                                             
.THRENR                                           
 1.0d-10                                          
.THRLEQ                                           
 1.0d-10                                          
*CCLR                                             
.OLD_LR                                           
.DIPOLE                                           
*CCQR                                             
.AVERAGE                                          
HYPERPOLARIZABILITY                               
*CCCR                                             
.AVERAGE                                          
GAMMA_PAR                                         
LINEAR                                            
.DISPCF                                           
  2                                               
**END OF DALTON INPUT                             


   Content of the .mol file
 ----------------------------

BASIS                                                                          
6-31G**                                                                        
Hydrogen flourid                                                               
small test basis                                                               
    2    1  Y  X      1.00D-15                                                 
        9.0   1                                                                
F     0.0000000000000000  0.0000000000000000 1.76320000000000000               
        1.0   1                                                                
H     0.0000000000000000  0.0000000000000000 0.00000000000000000               


       *******************************************************************
       *********** Output from DALTON general input processing ***********
       *******************************************************************

 --------------------------------------------------------------------------------
   Overall default print level:    0
   Print level for DALTON.STAT:    1

    AO-direct calculation (in sections where implemented)
    HERMIT 1- and 2-electron integral sections will be executed
    "Old" integral transformation used (limited to max 255 basis functions)
    Wave function sections will be executed (SIRIUS module)
 --------------------------------------------------------------------------------


   ****************************************************************************
   *************** Output of molecule and basis set information ***************
   ****************************************************************************


    The two title cards from your ".mol" input:
    ------------------------------------------------------------------------
 1: Hydrogen flourid                                                        
 2: small test basis                                                        
    ------------------------------------------------------------------------

  Atomic type no.    1
  --------------------
  Nuclear charge:   9.00000
  Number of symmetry independent centers:    1
  Number of basis sets to read;    2
  Basis set file used for this atomic type with Z =   9 :
     "/home/bast/DALTON-2013.0-Source/build/basis/6-31G**"

  Info about the basis set file: your basis has no documentation.
  Basis set: 6-31G**                                                                         

  Atomic type no.    2
  --------------------
  Nuclear charge:   1.00000
  Number of symmetry independent centers:    1
  Number of basis sets to read;    2
  Basis set file used for this atomic type with Z =   1 :
     "/home/bast/DALTON-2013.0-Source/build/basis/6-31G**"

  Info about the basis set file: your basis has no documentation.
  Basis set: 6-31G**                                                                         


                         SYMGRP: Point group information
                         -------------------------------

Point group: Cs 

   * The point group was generated by:

      Reflection in the xz-plane

   * Group multiplication table

        |  E   Oxz
   -----+----------
     E  |  E   Oxz
    Oxz | Oxz   E 

   * Character table

        |  E   Oxz
   -----+----------
    A'  |   1    1
    A"  |   1   -1

   * Direct product table

        | A'   A" 
   -----+----------
    A'  | A'   A" 
    A"  | A"   A' 


                                 Isotopic Masses
                                 ---------------

                           F          18.998403
                           H           1.007825

                       Total mass:    20.006228 amu
                       Natural abundance:  99.985 %

 Center-of-mass coordinates (a.u.):    0.000000    0.000000    1.674378


  Atoms and basis sets
  --------------------

  Number of atom types :    2
  Total number of atoms:    2

  Basis set used is "6-31G**" from the basis set library.

  label    atoms   charge   prim   cont     basis
  ----------------------------------------------------------------------
  F           1    9.0000    27    14      [10s4p1d|3s2p1d]                                   
  H           1    1.0000     7     5      [4s1p|2s1p]                                        
  ----------------------------------------------------------------------
  total:      2   10.0000    34    19
  ----------------------------------------------------------------------
  Spherical harmonic basis used.

  Threshold for neglecting AO integrals:  1.00D-15


  Cartesian Coordinates (a.u.)
  ----------------------------

  Total number of coordinates:    6
  F       :     1  x   0.0000000000    2  y   0.0000000000    3  z   1.7632000000
  H       :     4  x   0.0000000000    5  y   0.0000000000    6  z   0.0000000000


  Symmetry Coordinates
  --------------------

  Number of coordinates in each symmetry:     4    2

  Symmetry  A'  ( 1)

    1   F     x    1
    2   F     z    3
    3   H     x    4
    4   H     z    6

  Symmetry  A"  ( 2)

    5   F     y    2
    6   H     y    5


   Interatomic separations (in Angstrom):
   --------------------------------------

            F           H     
            ------      ------
 F     :    0.000000
 H     :    0.933045    0.000000


  Max    interatomic separation is    0.9330 Angstrom (    1.7632 Bohr)
  between atoms    2 and    1, "H     " and "F     ".

  Min HX interatomic separation is    0.9330 Angstrom (    1.7632 Bohr)


  Bond distances (Angstrom):
  --------------------------

                  atom 1     atom 2       distance
                  ------     ------       --------
  bond distance:  H          F            0.933045




 Principal moments of inertia (u*A**2) and principal axes
 --------------------------------------------------------

   IA       0.000000          0.000000    0.000000    1.000000
   IB       0.833187          0.000000    1.000000    0.000000
   IC       0.833187          1.000000    0.000000    0.000000


 Rotational constants
 --------------------

 The molecule is linear.

               B =       606561.40 MHz     (   20.232710 cm-1)


@  Nuclear repulsion energy :    5.104355716878 Hartree


  Symmetry Orbitals
  -----------------

  Number of orbitals in each symmetry:          14    5


  Symmetry  A' ( 1)

    1     F        1s         1
    2     F        1s         2
    3     F        1s         3
    4     F        2px        4
    5     F        2pz        6
    6     F        2px        7
    7     F        2pz        9
    8     F        3d0       12
    9     F        3d1+      13
   10     F        3d2+      14
   11     H        1s        15
   12     H        1s        16
   13     H        2px       17
   14     H        2pz       19


  Symmetry  A" ( 2)

   15     F        2py        5
   16     F        2py        8
   17     F        3d2-      10
   18     F        3d1-      11
   19     H        2py       18

  Symmetries of electric field:  A' (1)  A" (2)  A' (1)

  Symmetries of magnetic field:  A" (2)  A' (1)  A" (2)


                     .---------------------------------------.
                     | Starting in Integral Section (HERMIT) |
                     `---------------------------------------'



    *************************************************************************
    ****************** Output from HERMIT input processing ******************
    *************************************************************************


 Default print level:        1

 * Nuclear model: Point charge

 Calculation of one-electron Hamiltonian integrals.

 The following one-electron property integrals are calculated as requested:
          - overlap integrals
          - dipole length integrals

 Center of mass  (bohr):      0.000000000000      0.000000000000      1.674377807231
 Operator center (bohr):      0.000000000000      0.000000000000      0.000000000000
 Gauge origin    (bohr):      0.000000000000      0.000000000000      0.000000000000
 Dipole origin   (bohr):      0.000000000000      0.000000000000      0.000000000000


     ************************************************************************
     ************************** Output from HERINT **************************
     ************************************************************************

 >>>> Total CPU  time used in HERMIT:   0.01 seconds
 >>>> Total wall time used in HERMIT:   0.01 seconds


                        .----------------------------------.
                        | End of Integral Section (HERMIT) |
                        `----------------------------------'



                   .--------------------------------------------.
                   | Starting in Wave Function Section (SIRIUS) |
                   `--------------------------------------------'


 *** Output from Huckel module :

     Using EWMO model:          T
     Using EHT  model:          F
     Number of Huckel orbitals each symmetry:    5    1

 EWMO - Energy Weighted Maximum Overlap - is a Huckel type method,
        which normally is better than Extended Huckel Theory.
 Reference: Linderberg and Ohrn, Propagators in Quantum Chemistry (Wiley, 1973)

 Huckel EWMO eigenvalues for symmetry :  1
          -26.384238      -1.721955      -0.830116      -0.730000      -0.248892

 Huckel EWMO eigenvalues for symmetry :  2
           -0.730000

 **********************************************************************
 *SIRIUS* a direct, restricted step, second order MCSCF program       *
 **********************************************************************

 
     Date and time (Linux)  : Sun Sep  8 20:43:34 2013
     Host name              : lpqlx131.ups-tlse.fr                    

 Title     :   second hyperpolarizability for the HF molecule            
               for a CCS wavefunction compute:                           
               - parallel isotropic average (gamma_||)                   
               - A & B coefficients  (2. and 4. order disp. coefficients)
               - use explicitly symmetry of linear molecules             

 Title lines from ".mol" input file:
     Hydrogen flourid                                                        
     small test basis                                                        

 Print level on unit LUPRI =   2 is   0
 Print level on unit LUW4  =   2 is   5

@    (Integral direct) CC calculation.

@    This is a combination run starting with
@              a restricted, closed shell Hartree-Fock calculation

 Fock matrices are calculated directly without use of integrals on disk.

 Initial molecular orbitals are obtained according to
 ".MOSTART EWMO  " input option

     Wave function specification
     ============================

     For the specification of the Coupled Cluster: see later.

@    For the wave function of type :      >>> CC <<<
@    Number of closed shell electrons          10
@    Number of electrons in active shells       0
@    Total charge of the molecule               0

@    Spin multiplicity and 2 M_S                1         0
     Total number of symmetries                 2
@    Reference state symmetry                   1

     Orbital specifications
     ======================
     Abelian symmetry species          All |    1    2
                                       --- |  ---  ---
     Total number of orbitals           19 |   14    5
     Number of basis functions          19 |   14    5

      ** Automatic occupation of RHF orbitals **

      -- Initial occupation of symmetries is determined from extended Huckel guess.           
      -- Initial occupation of symmetries is :
@    Occupied SCF orbitals               5 |    4    1

     Maximum number of Fock   iterations      0
     Maximum number of DIIS   iterations     60
     Maximum number of QC-SCF iterations     60
     Threshold for SCF convergence     1.00D-12


 Changes of defaults for CC:
 ---------------------------


 -This is a direct atomic orbital integral based
  calculation for coupled cluster wave function
 -Linear response properties calculated
 -Quadratic response properties calculated
 -Cubic response properties calculated
  


 >>>>> DIIS optimization of Hartree-Fock <<<<<

 C1-DIIS algorithm; max error vectors =   10

 Automatic occupation of symmetries with  10 electrons.

 Iter     Total energy    Error norm  Delta(E)    SCF occupation
 -----------------------------------------------------------------------------
   1  Screening settings (-IFTHRS, DIFDEN)   -6    T
@  1  -99.9159496472       1.29D+00  -9.99D+01     4   1
      Virial theorem: -V/T =      1.997399
@      MULPOP F      -0.44; H       0.44; 
 -----------------------------------------------------------------------------
   2  Screening settings (-IFTHRS, DIFDEN)   -6    T
@  2  -100.006061861       2.26D-01  -9.01D-02     4   1
      Virial theorem: -V/T =      2.002657
@      MULPOP F      -0.38; H       0.38; 
 -----------------------------------------------------------------------------
   3  Screening settings (-IFTHRS, DIFDEN)   -6    T
@  3  -100.008563866       8.51D-02  -2.50D-03     4   1
      Virial theorem: -V/T =      1.999075
@      MULPOP F      -0.41; H       0.41; 
 -----------------------------------------------------------------------------
   4  Screening settings (-IFTHRS, DIFDEN)   -8    F
@  4  -100.008886254       2.15D-02  -3.22D-04     4   1
      Virial theorem: -V/T =      2.000623
@      MULPOP F      -0.41; H       0.41; 
 -----------------------------------------------------------------------------
   5  Screening settings (-IFTHRS, DIFDEN)   -8    T
@  5  -100.008918308       3.56D-03  -3.21D-05     4   1
      Virial theorem: -V/T =      2.000296
@      MULPOP F      -0.42; H       0.42; 
 -----------------------------------------------------------------------------
   6  Screening settings (-IFTHRS, DIFDEN)   -8    T
@  6  -100.008919841       7.37D-04  -1.53D-06     4   1
      Virial theorem: -V/T =      2.000320
@      MULPOP F      -0.42; H       0.42; 
 -----------------------------------------------------------------------------
   7  Screening settings (-IFTHRS, DIFDEN)  -10    F
@  7  -100.008919896       5.25D-05  -5.49D-08     4   1
      Virial theorem: -V/T =      2.000327
@      MULPOP F      -0.42; H       0.42; 
 -----------------------------------------------------------------------------
   8  Screening settings (-IFTHRS, DIFDEN)  -10    T
@  8  -100.008919896       4.65D-06  -2.58D-10     4   1
      Virial theorem: -V/T =      2.000326
@      MULPOP F      -0.42; H       0.42; 
 -----------------------------------------------------------------------------
   9  Screening settings (-IFTHRS, DIFDEN)  -12    F
@  9  -100.008919896       4.39D-07  -7.25D-13     4   1
      Virial theorem: -V/T =      2.000327
@      MULPOP F      -0.42; H       0.42; 
 -----------------------------------------------------------------------------
  10  Screening settings (-IFTHRS, DIFDEN)  -12    T
@ 10  -100.008919896       2.49D-08  -5.68D-14     4   1
      Virial theorem: -V/T =      2.000327
@      MULPOP F      -0.42; H       0.42; 
 -----------------------------------------------------------------------------
  11  Screening settings (-IFTHRS, DIFDEN)  -14    F
@ 11  -100.008919896       2.56D-09   1.42D-14     4   1
      Virial theorem: -V/T =      2.000327
@      MULPOP F      -0.42; H       0.42; 
 -----------------------------------------------------------------------------
  12  Screening settings (-IFTHRS, DIFDEN)  -17    F
@ 12  -100.008919896       6.66D-11   4.26D-14     4   1
      Virial theorem: -V/T =      2.000327
@      MULPOP F      -0.42; H       0.42; 
 -----------------------------------------------------------------------------
  13  Screening settings (-IFTHRS, DIFDEN)  -17    T
@ 13  -100.008919896       8.93D-12  -8.53D-14     4   1
      Virial theorem: -V/T =      2.000327
@      MULPOP F      -0.42; H       0.42; 
 -----------------------------------------------------------------------------
  14  Screening settings (-IFTHRS, DIFDEN)  -17    T
@ 14  -100.008919896       3.51D-13   8.53D-14     4   1

@ *** DIIS converged in  14 iterations !
@     Converged SCF energy, gradient:   -100.008919895850    3.51D-13
    - total time used in SIRFCK :              0.00 seconds


 *** SCF orbital energy analysis ***

 Only the five lowest virtual orbital energies printed in each symmetry.

 Number of electrons :   10
 Orbital occupations :    4    1

 Sym       Hartree-Fock orbital energies

  1    -26.27306629    -1.57292658    -0.73710501    -0.62549523     0.21639320
         1.01969778     1.48848713     1.53899963     1.89379537

  2     -0.62549523     1.48848713     1.89379537     2.15801858     3.02038759


    E(LUMO) :     0.21639320 au (symmetry 1)
  - E(HOMO) :    -0.62549523 au (symmetry 2)
  ------------------------------------------
    gap     :     0.84188843 au

 >>> Writing SIRIFC interface file <<<

 >>>> CPU and wall time for SCF :       0.081       0.082


                       .-----------------------------------.
                       | >>> Final results from SIRIUS <<< |
                       `-----------------------------------'


@    Spin multiplicity:           1
@    Spatial symmetry:            1
@    Total charge of molecule:    0

@    Final HF energy:            -100.008919895850                 
@    Nuclear repulsion:             5.104355716878
@    Electronic energy:          -105.113275612729

@    Final gradient norm:           0.000000000000

 
     Date and time (Linux)  : Sun Sep  8 20:43:35 2013
     Host name              : lpqlx131.ups-tlse.fr                    

 (Only coefficients >0.0100 are printed.)

 Molecular orbitals for symmetry species  1
 ------------------------------------------

    Orbital         1        2        3        4        5        6
   1 F   :1s    -0.9955  -0.2308  -0.0555   0.0000   0.0644   0.0183
   2 F   :1s    -0.0212   0.5025   0.1234  -0.0000  -0.0741  -0.1606
   3 F   :1s     0.0052   0.5082   0.2358  -0.0000  -0.7503   0.3606
   4 F   :2px   -0.0000  -0.0000  -0.0000  -0.6587   0.0000  -0.0000
   5 F   :2pz    0.0013  -0.0602   0.5496  -0.0000   0.2591   0.3919
   6 F   :2px    0.0000  -0.0000  -0.0000  -0.4859   0.0000  -0.0000
   7 F   :2pz   -0.0009  -0.0224   0.3522  -0.0000   0.4759  -0.1052
   8 F   :3d0    0.0000   0.0013  -0.0237   0.0000  -0.0259   0.2926
   9 F   :3d1+  -0.0000   0.0000   0.0000   0.0223  -0.0000   0.0000
  11 H   :1s    -0.0001   0.1311  -0.2709   0.0000   0.1124   0.9672
  12 H   :1s    -0.0013   0.0073  -0.1255   0.0000   1.3668  -0.9276
  13 H   :2px    0.0000   0.0000   0.0000  -0.0198  -0.0000   0.0000
  14 H   :2pz    0.0006   0.0312  -0.0288   0.0000   0.0206  -0.2828

 Molecular orbitals for symmetry species  2
 ------------------------------------------

    Orbital         1        2        3
   1 F   :2py    0.6587  -0.9416   0.1036
   2 F   :2py    0.4859   1.0109  -0.2903
   4 F   :3d1-  -0.0223  -0.0635  -0.6960
   5 H   :2py    0.0198   0.0764   0.4878



 >>>> Total CPU  time used in SIRIUS :      0.08 seconds
 >>>> Total wall time used in SIRIUS :      0.08 seconds

 
     Date and time (Linux)  : Sun Sep  8 20:43:35 2013
     Host name              : lpqlx131.ups-tlse.fr                    


                     .---------------------------------------.
                     | End of Wave Function Section (SIRIUS) |
                     `---------------------------------------'



                    .------------------------------------------.
                    | Starting in Coupled Cluster Section (CC) |
                    `------------------------------------------'

  

 *******************************************************************************
 *******************************************************************************
 *                                                                             *
 *                                                                             *
 *                    START OF COUPLED CLUSTER CALCULATION                     *
 *                                                                             *
 *                                                                             *
 *******************************************************************************
 *******************************************************************************



 CCR12 ANSATZ =   0

 CCR12 APPROX =   0

   

 *******************************************************************
 *                                                                 *
 *<<<<<<<<<<                                             >>>>>>>>>>*
 *<<<<<<<<<< OUTPUT FROM COUPLED CLUSTER ENERGY PROGRAM  >>>>>>>>>>*
 *<<<<<<<<<<                                             >>>>>>>>>>*
 *                                                                 *
 *******************************************************************


             The Direct Coupled Cluster Energy Program
             -----------------------------------------


          Number of t1 amplitudes                 :        44
          Number of t2 amplitudes                 :      1341
          Total number of amplitudes in ccsd      :      1385

 Iter.  1: Coupled cluster MP2   energy :    -100.1936625719336718
 Iter.  1: Coupled cluster CCSD  energy :    -100.1943060627138209
 Iter.  2: Coupled cluster CCSD  energy :    -100.1971585883489837
 Iter.  3: Coupled cluster CCSD  energy :    -100.1977954495179262
 Iter.  4: Coupled cluster CCSD  energy :    -100.1977970718307489
 Iter.  5: Coupled cluster CCSD  energy :    -100.1977935669968076
 Iter.  6: Coupled cluster CCSD  energy :    -100.1977918794591602
 Iter.  7: Coupled cluster CCSD  energy :    -100.1977908485724100
 Iter.  8: Coupled cluster CCSD  energy :    -100.1977909127282800
 Iter.  9: Coupled cluster CCSD  energy :    -100.1977909096269457
 Iter. 10: Coupled cluster CCSD  energy :    -100.1977909077532871
 Iter. 11: Coupled cluster CCSD  energy :    -100.1977909069588151
 Iter. 12: Coupled cluster CCSD  energy :    -100.1977909068214387
 Iter. 13: Coupled cluster CCSD  energy :    -100.1977909068225756

 CCSD  energy converged to within   0.10D-09 is         -100.197790906823
 Final 2-norm of the CC vector function:  8.84302203D-10





             +-------------------------------------------------------+
             ! Final results from the Coupled Cluster energy program !
             +-------------------------------------------------------+



            Total SCF   energy:                  -100.0089198959

            Total MP2   energy:                  -100.1936625719

            Total CCSD  energy:                  -100.1977909068




                   +--------------------------------------------+
                   ! Calculating singlet intermediates for CCLR !
                   +--------------------------------------------+



            E-intermediates calculated 
            Fock-intermediate calculated 
            Gamma-intermediate calculated 
            BF-intermediate calculated 
            C-intermediate calculated 
            D-intermediate calculated 


   

 *******************************************************************
 *                                                                 *
 *<<<<<<<<<<<<< OUTPUT FROM COUPLED CLUSTER RESPONSE  >>>>>>>>>>>>>*
 *                                                                 *
 *******************************************************************



                         +--------------------------------+
                         ! Coupled Cluster model is: CCSD !
                         +--------------------------------+

 RPA: call cceq_str
 RPA: exit cceq_str
  
     

   *******************************************************************
   *                                                                 *
   *<<<<<<<<   OUTPUT FROM PROPERTY AND SYMMETRY ANALYSIS   >>>>>>>>>*
   *                                                                 *
   *******************************************************************


  PUT TRIPLE: ZDIPLEN  ZDIPLEN  ZDIPLEN  ON THE LIST.

  PUT TRIPLE: ZDIPLEN  XDIPLEN  XDIPLEN  ON THE LIST.

  PUT TRIPLE: XDIPLEN  ZDIPLEN  XDIPLEN  ON THE LIST.

  PUT TRIPLE: XDIPLEN  XDIPLEN  ZDIPLEN  ON THE LIST.

  PUT TRIPLE: ZDIPLEN  YDIPLEN  YDIPLEN  ON THE LIST.

  PUT TRIPLE: YDIPLEN  ZDIPLEN  YDIPLEN  ON THE LIST.

  PUT TRIPLE: YDIPLEN  YDIPLEN  ZDIPLEN  ON THE LIST.


                         +-------------------------------+
                         ! REQUESTED PROPERTY OPERATORS: !
                         +-------------------------------+

             Index   Oper. Label  Symmetry  Transp.  PDBS  Atom
             --------------------------------------------------
                1     HAM0            1        1      T      0
                2     XDIPLEN         1        1      F      0
                3     ZDIPLEN         1        1      F      0
                4     YDIPLEN         2        1      F      0
             --------------------------------------------------




                         +-------------------------------+
                         ! REQUESTED EXPECTATION VALUES: !
                         +-------------------------------+

                       Index   Oper. Label  Symmetry
                       -----------------------------
                       -----------------------------




                       +------------------------------------+
                       ! REQUESTED EFFECTIVE FOCK MATRICES: !
                       +------------------------------------+

                       Index   Oper. Label  Symmetry
                       -----------------------------
                       -----------------------------




                       +-----------------------------------+
                       ! REQUESTED FIRST ORDER XI VECTORS: !
                       +-----------------------------------+

             Index   Oper. Label  relaxed  Sym.     Frequency
             --------------------------------------------------
                1      XDIPLEN        F     1      0.000000D+00
                2      ZDIPLEN        F     1      0.000000D+00
                3      YDIPLEN        F     2      0.000000D+00
             --------------------------------------------------




                        +----------------------------------+
                        ! REQUESTED FIRST ORDER T VECTORS: !
                        +----------------------------------+

             Index   Oper. Label  relaxed  Sym.     Frequency
             --------------------------------------------------
                1      XDIPLEN        F     1      0.000000D+00
                2      ZDIPLEN        F     1      0.000000D+00
                3      YDIPLEN        F     2      0.000000D+00
             --------------------------------------------------




                       +------------------------------------+
                       ! REQUESTED FIRST ORDER ETA VECTORS: !
                       +------------------------------------+

             Index   Oper. Label  relaxed  Sym.     Frequency
             --------------------------------------------------
                1      XDIPLEN        F     1      0.000000D+00
                2      ZDIPLEN        F     1      0.000000D+00
                3      YDIPLEN        F     2      0.000000D+00
             --------------------------------------------------




                      +-------------------------------------+
                      ! REQUESTED FIRST ORDER ZETA VECTORS: !
                      +-------------------------------------+

             Index   Oper. Label  relaxed  Sym.     Frequency
             --------------------------------------------------
                1      XDIPLEN        F     1      0.000000D+00
                2      ZDIPLEN        F     1     -0.000000D+00
                3      YDIPLEN        F     2      0.000000D+00
             --------------------------------------------------




                  +---------------------------------------------+
                  ! REQUESTED FIRST-ORDER RIGHT CAUCHY VECTORS: !
                  +---------------------------------------------+

               Index   Oper. Label  Symmetry  Cauchy Order
               --------------------------------------------------
                  1      XDIPLEN     1      1
                  2      ZDIPLEN     1      1
                  3      XDIPLEN     1      2
                  4      ZDIPLEN     1      2
               --------------------------------------------------




                   +--------------------------------------------+
                   ! REQUESTED FIRST-ORDER LEFT CAUCHY VECTORS: !
                   +--------------------------------------------+

               Index   Oper. Label  Symmetry  Cauchy Order
               --------------------------------------------------
                  1      XDIPLEN     1      1
                  2      ZDIPLEN     1      1
                  3      XDIPLEN     1      2
                  4      ZDIPLEN     1      2
               --------------------------------------------------




                      +--------------------------------------+
                      ! REQUESTED SECOND-ORDER XKSI VECTORS: !
                      +--------------------------------------+

     Index    Oper. Label  Symmetry  Frequency   Oper. Label  Symmetry  Frequency  Symmetry
     ----------------------------------------------------------------------
    1   XDIPLEN   1     0.000000D+00   XDIPLEN   1     0.000000D+00  1
    2   ZDIPLEN   1     0.000000D+00   XDIPLEN   1     0.000000D+00  1
    3   ZDIPLEN   1     0.000000D+00   ZDIPLEN   1     0.000000D+00  1
     ----------------------------------------------------------------------




                      +-------------------------------------+
                      ! REQUESTED SECOND-ORDER ETA VECTORS: !
                      +-------------------------------------+

     Index    Oper. Label  Symmetry  Frequency   Oper. Label  Symmetry  Frequency  Symmetry
     ----------------------------------------------------------------------
    1   XDIPLEN   1     0.000000D+00   XDIPLEN   1     0.000000D+00  1
    2   ZDIPLEN   1     0.000000D+00   XDIPLEN   1     0.000000D+00  1
    3   ZDIPLEN   1     0.000000D+00   ZDIPLEN   1     0.000000D+00  1
     ----------------------------------------------------------------------




                       +-----------------------------------+
                       ! REQUESTED SECOND-ORDER T VECTORS: !
                       +-----------------------------------+

     Index    Oper. Label  Symmetry  Frequency   Oper. Label  Symmetry  Frequency  Symmetry
     ----------------------------------------------------------------------
    1   XDIPLEN   1     0.000000D+00   XDIPLEN   1     0.000000D+00  1
    2   ZDIPLEN   1     0.000000D+00   XDIPLEN   1     0.000000D+00  1
    3   ZDIPLEN   1     0.000000D+00   ZDIPLEN   1     0.000000D+00  1
     ----------------------------------------------------------------------




                      +--------------------------------------+
                      ! REQUESTED SECOND-ORDER ZETA VECTORS: !
                      +--------------------------------------+

     Index    Oper. Label  Symmetry  Frequency   Oper. Label  Symmetry  Frequency  Symmetry
     ----------------------------------------------------------------------
    1   XDIPLEN   1     0.000000D+00   XDIPLEN   1     0.000000D+00  1
    2   XDIPLEN   1     0.000000D+00   ZDIPLEN   1     0.000000D+00  1
    3   ZDIPLEN   1     0.000000D+00   ZDIPLEN   1     0.000000D+00  1
     ----------------------------------------------------------------------




                  +----------------------------------------------+
                  ! REQUESTED SECOND-ORDER RIGHT CAUCHY VECTORS: !
                  +----------------------------------------------+

     Index   Oper. Label  Symmetry  Cauchy Order   Oper. Label  Symmetry  Cauchy Order  Symmetry  Cauchy Order
     ----------------------------------------------------------------------
    1   XDIPLEN   1      1   XDIPLEN   1      0  1
    2   XDIPLEN   1      1   ZDIPLEN   1      0  1
    3   ZDIPLEN   1      1   XDIPLEN   1      0  1
    4   ZDIPLEN   1      1   ZDIPLEN   1      0  1
     ----------------------------------------------------------------------




                  +---------------------------------------------+
                  ! REQUESTED SECOND-ORDER CAUCHY XKSI VECTORS: !
                  +---------------------------------------------+

     Index   Oper. Label  Symmetry  Cauchy Order   Oper. Label  Symmetry  Cauchy Order  Symmetry  Cauchy Order
     ----------------------------------------------------------------------
    1   XDIPLEN   1      1   XDIPLEN   1      0  1
    2   XDIPLEN   1      1   ZDIPLEN   1      0  1
    3   ZDIPLEN   1      1   XDIPLEN   1      0  1
    4   ZDIPLEN   1      1   ZDIPLEN   1      0  1
    5   XDIPLEN   1      1   XDIPLEN   1      1  1
    6   XDIPLEN   1      2   XDIPLEN   1      0  1
    7   ZDIPLEN   1      0   XDIPLEN   1      2  1
    8   ZDIPLEN   1      1   XDIPLEN   1      1  1
    9   ZDIPLEN   1      2   XDIPLEN   1      0  1
   10   ZDIPLEN   1      1   ZDIPLEN   1      1  1
   11   ZDIPLEN   1      2   ZDIPLEN   1      0  1
     ----------------------------------------------------------------------




                   +--------------------------------------------+
                   ! REQUESTED SECOND-ORDER CAUCHY ETA VECTORS: !
                   +--------------------------------------------+

     Index   Oper. Label  Symmetry  Cauchy Order   Oper. Label  Symmetry  Cauchy Order  Symmetry  Cauchy Order
     ----------------------------------------------------------------------
    1   XDIPLEN   1      1   XDIPLEN   1      0  1
    2   XDIPLEN   1      1   ZDIPLEN   1      0  1
    3   ZDIPLEN   1      1   XDIPLEN   1      0  1
    4   ZDIPLEN   1      1   ZDIPLEN   1      0  1
    5   XDIPLEN   1      1   XDIPLEN   1      1  1
    6   XDIPLEN   1      2   XDIPLEN   1      0  1
    7   ZDIPLEN   1      0   XDIPLEN   1      2  1
    8   ZDIPLEN   1      1   XDIPLEN   1      1  1
    9   ZDIPLEN   1      2   XDIPLEN   1      0  1
   10   ZDIPLEN   1      1   ZDIPLEN   1      1  1
   11   ZDIPLEN   1      2   ZDIPLEN   1      0  1
     ----------------------------------------------------------------------


      

    *******************************************************************
    *          SOLVING COUPLED CLUSTER RESPONSE EQUATIONS             *
    *******************************************************************



 
 +======================================================================+
 !                     RHS & ETA VECTORS TO COMPUTE:                    !
 +======================================================================+
 | TYPE | # VEC. |  NEEDED FOR:                                         |
 +----------------------------------------------------------------------+
 |  O1  |    3   |  first-order amplitude equations                     |
 |  X1  |    3   |  first-order multipliers equations                   |
 |  O2  |    3   |  second-order amplitude equations                    |
 |  X2  |    3   |  second-order multipliers equations                  |
 |  CO2 |   11   |  second-order right Cauchy equations                 |
 |  CX2 |   11   |  second-order left Cauchy equations                  |
 +======================================================================+



 +======================================================================+
 !                       LINEAR EQUATIONS TO SOLVE:                     !
 +======================================================================+
 | TYPE | # VEC. |  EQUATION:                                           |
 +----------------------------------------------------------------------+
 |  R1  |    3   |  first-order amplitude response                      |
 |  L1  |    3   |  first-order multiplier response                     |
 |  RC  |    4   |  first-order right Cauchy vectors                    |
 |  LC  |    4   |  first-order left Cauchy vectors                     |
 |  R2  |    3   |  second-order amplitude response                     |
 |  CR2 |    4   |  second-order right Cauchy vectors                   |
 |  L2  |    3   |  second-order multiplier response                    |
 +======================================================================+



 +======================================================================+
 !                F MATRIX TRANSFORMATIONS TO COMPUTE:                  !
 +======================================================================+
 | TYPE | # VEC. |  TRANSFORMED:                                        |
 +----------------------------------------------------------------------+
 |  F1  |    3   |  first-order amplitude response (R1) vector          |
 |  FC  |    4   |  first-order right Cauchy (RC) vector                |
 |  F2  |    3   |  second-order amplitude response (R2) vector         |
 +======================================================================+




 -------------------------------------------------------------------
 |          OUTPUT FROM AMPLITUDE RHS VECTOR SECTION               |
 -------------------------------------------------------------------



   For the requested  3 1th.-order amplitude rhs vectors "O1 ".
         -   0 D matrix transformations 
         -   0 C matrix transformations 
         -   0 B matrix transformations 
         -   0 C{O} matrix transformations 
         -   0 B{O} matrix transformations 
         -   0 A{O} matrix transformations 
         -   3Xi{O} vector calculations    
   will be performed.


 RPA: call cceq_str
 RPA: exit cceq_str
 RPA: call cceq_str
 RPA: exit cceq_str
 RPA: call cceq_str
 RPA: exit cceq_str
 RPA: call cceq_str
 RPA: exit cceq_str
 RPA: call cceq_str
 RPA: exit cceq_str
 RPA: call cceq_str
 RPA: exit cceq_str
 RPA: call cceq_str
 RPA: exit cceq_str
 RPA: call cceq_str
 RPA: exit cceq_str

 -------------------------------------------------------------------
 |          OUTPUT FROM AMPLITUDE RHS VECTOR SECTION               |
 -------------------------------------------------------------------



   For the requested  3 2th.-order amplitude rhs vectors "O2 ".
         -   0 D matrix transformations 
         -   0 C matrix transformations 
         -   3 B matrix transformations 
         -   0 C{O} matrix transformations 
         -   0 B{O} matrix transformations 
         -   6 A{O} matrix transformations 
         -   0Xi{O} vector calculations    
              (A{O} matrix included in B matrix)
   will be performed.


 +--------------------------------------------------+
 | total time for   3 B transforms.:      0.10 secs.|
 +==================================================+


 RPA: call cceq_str
 RPA: exit cceq_str

 -------------------------------------------------------------------
 |          OUTPUT FROM AMPLITUDE RHS VECTOR SECTION               |
 -------------------------------------------------------------------



   For the requested 11 2th.-order amplitude rhs vectors "CO2".
         -   0 D matrix transformations 
         -   0 C matrix transformations 
         -  11 B matrix transformations 
         -   0 C{O} matrix transformations 
         -   0 B{O} matrix transformations 
         -   8 A{O} matrix transformations 
         -   0Xi{O} vector calculations    
   will be performed.


 +--------------------------------------------------+
 | total time for  11 B transforms.:      0.14 secs.|
 +==================================================+


 RPA: call cceq_str
 RPA: exit cceq_str

 -------------------------------------------------------------------
 |                 OUTPUT FROM ETA/RHS VECTOR SECTION              |
 -------------------------------------------------------------------



   For the requested  3 X2 eta  vectors
         -   0 H matrix transformations 
         -   3 G matrix transformations 
         -   0 generalized G matrix transformations 
         -   6 generalized F matrix transformations 
         -   6 F{O} matrix transformations 
         -   0 generalized F{O} matrix transformations 
         -   6 generalized ETA{O} vector calculations 
   will be performed.


 +--------------------------------------------------+
 | total time for   3 G transforms.:      0.09 secs.|
 +==================================================+


 RPA: call cceq_str
 RPA: exit cceq_str

 -------------------------------------------------------------------
 |                 OUTPUT FROM ETA/RHS VECTOR SECTION              |
 -------------------------------------------------------------------



   For the requested 11 CX2 eta  vectors
         -   0 H matrix transformations 
         -  11 G matrix transformations 
         -   0 generalized G matrix transformations 
         -  22 generalized F matrix transformations 
         -   8 F{O} matrix transformations 
         -   0 generalized F{O} matrix transformations 
         -   8 generalized ETA{O} vector calculations 
   will be performed.


 +--------------------------------------------------+
 | total time for  11 G transforms.:      0.14 secs.|
 +==================================================+



 Solution of CC response equations completed.

   

 *******************************************************************
 *                                                                 *
 *<<<<<<<<<< OUTPUT FROM COUPLED CLUSTER LINEAR RESPONSE >>>>>>>>>>*
 *                                                                 *
 *<<<<<<<<<<      CALCULATION OF CC POLARIZABILITIES     >>>>>>>>>>*
 *                                                                 *
 *******************************************************************



              +------------------------------------------------------+
              ! Calculation of CCSD       linear response properties !
              +------------------------------------------------------+



 CCSD  linear response properties in atomic units:
 -------------------------------------------------

 <<XDIPLEN ,XDIPLEN >>( 0.000000) =    -1.93065699
 <<XDIPLEN ,YDIPLEN >>( 0.000000) =     0.00000000 BY SYMMETRY !
 <<XDIPLEN ,ZDIPLEN >>( 0.000000) =     0.00000000
 <<YDIPLEN ,XDIPLEN >>( 0.000000) =     0.00000000 BY SYMMETRY !
 <<YDIPLEN ,YDIPLEN >>( 0.000000) =    -1.93065699
 <<YDIPLEN ,ZDIPLEN >>( 0.000000) =     0.00000000 BY SYMMETRY !
 <<ZDIPLEN ,XDIPLEN >>( 0.000000) =     0.00000000
 <<ZDIPLEN ,YDIPLEN >>( 0.000000) =     0.00000000 BY SYMMETRY !
 <<ZDIPLEN ,ZDIPLEN >>( 0.000000) =    -4.57091150


 CCSD  polarizability for frequency:   0.000000


               Column   1     Column   2     Column   3
       1       1.93065699    -0.00000000    -0.00000000
       2      -0.00000000     1.93065699    -0.00000000
       3      -0.00000000    -0.00000000     4.57091150
    ==== End of matrix output ====

 Alfa**2 Invariant:                          7.900270
 Beta**2 Invariant:                          6.970944

 Isotropic Polarizability:                   2.810742 a.u.
 Polarizability anisotropy invariant:        2.640255 a.u.

 Polarizability has cylinder symmetry: 

 Parallel component:        4.570911 a.u.      0.753642E-40 S.I.
 Perpendicular component:   1.930657 a.u.      0.318322E-40 S.I.

 Dimensionless polarizability anisotropy:      0.313115

 Conversion factor (a.u. - S.I.):    0.16487780E-40 (C^2m^2J^-1)


 *******************************************************************
 *                                                                 *
 *<<<<<<<< OUTPUT FROM COUPLED CLUSTER QUADRATIC RESPONSE >>>>>>>>>*
 *                                                                 *
 *<<<<<<<<     CALCULATION OF CC HYPERPOLARIZABILITIES    >>>>>>>>>*
 *                                                                 *
 *******************************************************************



   For the requested  7 quadratic response functions 
         -   3 G matrix transformations 
         -   5 B matrix transformations 
         -   0 K matrix transformations 
         -   0 F matrix transformations 
         -   5 F{O} matrix transformations 
         -   7 ETA{O} vector calculations 
         -   0 Xksi{O2} x L1 and Eta{O2} x R1 dot products
         -   0 X1 x R2 dot products 
   will be performed.


 +--------------------------------------------------+
 | total time for   3 G transforms.:      0.09 secs.|
 +==================================================+



>>> Time used for    3 G matrix transformations:        0.09 seconds.
 +--------------------------------------------------+
 | total time for   5 B transforms.:      0.10 secs.|
 +==================================================+



>>> Time used for    5 B matrix transformations:        0.10 seconds.

>>> Time used for    5 F{O} matrix transform.:          0.00 seconds.

>>> Time used for    7 ETA{O} vector calculat.:         0.01 seconds.

>>> Time used for    0 Xksi{O} and Eta{O2} vector calculat.:         0.00 seconds.

>>> Total time for   7 quadratic response func.:        0.20 seconds.


                 +---------------------------------------------------------------------------------------+
                 !                FINAL CCSD RESULTS FOR THE FIRST HYPERPOLARIZABILITIES                 !
                 +---------------------------------------------------------------------------------------+


  A operator                  B operator                  C operator                     property 
------------------------------------------------------------------------------------------------------

 ZDIPLEN  (unrel.) -0.0000   ZDIPLEN  (unrel.)  0.0000   ZDIPLEN  (unrel.)  0.0000      15.380853    

 ZDIPLEN  (unrel.) -0.0000   XDIPLEN  (unrel.)  0.0000   XDIPLEN  (unrel.)  0.0000     0.90273796    

 XDIPLEN  (unrel.) -0.0000   ZDIPLEN  (unrel.)  0.0000   XDIPLEN  (unrel.)  0.0000     0.90273796    

 XDIPLEN  (unrel.) -0.0000   XDIPLEN  (unrel.)  0.0000   ZDIPLEN  (unrel.)  0.0000     0.90273796    

 ZDIPLEN  (unrel.) -0.0000   YDIPLEN  (unrel.)  0.0000   YDIPLEN  (unrel.)  0.0000     0.90273796    

 YDIPLEN  (unrel.) -0.0000   ZDIPLEN  (unrel.)  0.0000   YDIPLEN  (unrel.)  0.0000     0.90273796    

 YDIPLEN  (unrel.) -0.0000   YDIPLEN  (unrel.)  0.0000   ZDIPLEN  (unrel.)  0.0000     0.90273796    





  average         frequencies
-------------------------------------------------------

  beta_||   -0.0000   0.0000   0.0000     10.311797    

  beta^K    -0.0000   0.0000   0.0000     10.311797    

  beta_|_   -0.0000   0.0000   0.0000     3.4372658    

  beta_ms   -0.0000   0.0000   0.0000    0.55511151E-16


------------------------------------------------------------------------------------------------------




 *******************************************************************
 *                                                                 *
 *<<<<<<<<<  OUTPUT FROM COUPLED CLUSTER CUBIC RESPONSE   >>>>>>>>>*
 *                                                                 *
 *<<<<<<<<     CALCULATION OF CC HYPERPOLARIZABILITIES    >>>>>>>>>*
 *                                                                 *
 *******************************************************************






   For the requested   88 expansion coefficients for cubic response functions 
         -   9 H^0 matrix transformations 
         -   0 G^0 matrix transformations 
         -  22 G^A matrix transformations 
         -   7 F^0 matrix transformations 
         -   0 F^A matrix transformations 
         -   0 F^0{O} matrix transformations 
         -  28 F^A{O} matrix transformations 
         -   0 ETA^A{O} vector calculations 
         -  14 CX2 x CR2 dot product calculations 
         -   7 CL2 x CO2 dot product calculations 
   will be performed.



>>> Time used for    9 H matrix transformations:           0.01 seconds.
 +--------------------------------------------------+
 | total time for  22 G transforms.:      0.19 secs.|
 +==================================================+



>>> Time used for   22 G matrix transformations:           0.19 seconds.

>>> Time used for    7 F matrix transformations:           0.13 seconds.

>>> Time used for   28 F{O} matrix transformations:        0.01 seconds.

>>> Time used for    0 ETA{O} vector calculations :        0.00 seconds.

>>> Time used for   14 CX2 x CR2 dot products:             0.00 seconds.

>>> Time used for    3 CL2 x CR2 dot products:             0.00 seconds.

>>> Time used for    7 CL2 x CO2 dot products:             0.00 seconds.

>>> Total time for   88 expansion coefficients:            0.34 seconds.


              +-----------------------------------------------------+
              !      FINAL CCSD RESULTS FOR DISPERSION COEFFICIENTS !
              +-----------------------------------------------------+


 A op.      B op.      C op.      D op.          L    M    N    D_ABCD
--------------------------------------------------------------------------

 ZDIPLEN    ZDIPLEN    ZDIPLEN    ZDIPLEN        0    0    0    105.32913    
                                                 2    0    0    959.42776    
                                                 1    1    0    959.42776    
                                                 1    0    1    959.42776    
                                                 0    2    0    959.42776    
                                                 0    1    1    959.42776    
                                                 0    0    2    959.42776    

 ZDIPLEN    XDIPLEN    XDIPLEN    ZDIPLEN        0    0    0    7.4195407    
                                                 2    0    0    106.91129    
                                                 1    1    0   -95.807580    
                                                 1    0    1    49.381914    
                                                 0    2    0    106.91129    
                                                 0    1    1    49.381914    
                                                 0    0    2    49.381914    

 XDIPLEN    XDIPLEN    ZDIPLEN    ZDIPLEN        0    0    0    7.4195407    
                                                 2    0    0    309.63016    
                                                 1    1    0    309.63016    
                                                 1    0    1    309.63016    
                                                 0    2    0    106.91129    
                                                 0    1    1    164.44066    
                                                 0    0    2    106.91129    

 XDIPLEN    ZDIPLEN    XDIPLEN    ZDIPLEN        0    0    0    7.4195407    
                                                 2    0    0    106.91129    
                                                 1    1    0    309.63016    
                                                 1    0    1    164.44066    
                                                 0    2    0    309.63016    
                                                 0    1    1    309.63016    
                                                 0    0    2    106.91129    

 XDIPLEN    ZDIPLEN    ZDIPLEN    XDIPLEN        0    0    0    7.4195407    
                                                 2    0    0    106.91129    
                                                 1    1    0    164.44066    
                                                 1    0    1    309.63016    
                                                 0    2    0    106.91129    
                                                 0    1    1    309.63016    
                                                 0    0    2    309.63016    

 ZDIPLEN    ZDIPLEN    XDIPLEN    XDIPLEN        0    0    0    7.4195407    
                                                 2    0    0    49.381914    
                                                 1    1    0    49.381914    
                                                 1    0    1    49.381914    
                                                 0    2    0    106.91129    
                                                 0    1    1   -95.807580    
                                                 0    0    2    106.91129    

 ZDIPLEN    XDIPLEN    ZDIPLEN    XDIPLEN        0    0    0    7.4195407    
                                                 2    0    0    106.91129    
                                                 1    1    0    49.381914    
                                                 1    0    1   -95.807580    
                                                 0    2    0    49.381914    
                                                 0    1    1    49.381914    
                                                 0    0    2    106.91129    

 XDIPLEN    XDIPLEN    XDIPLEN    XDIPLEN        0    0    0  -0.65892329    
                                                 2    0    0  -0.62096832    
                                                 1    1    0  -0.62096832    
                                                 1    0    1  -0.62096832    
                                                 0    2    0  -0.62096832    
                                                 0    1    1  -0.62096832    
                                                 0    0    2  -0.62096832    

 gamma_{||}                                      0    0    0    26.650033    
                                                 2    0    0    296.44200    
                                                 1    1    0    296.44200    
                                                 1    0    1    296.44200    
                                                 0    2    0    296.44200    
                                                 0    1    1    296.44200    
                                                 0    0    2    296.44200    
--------------------------------------------------------------------------






 A op.      B op.      C op.      D op.          N    D^THG           D^ESHG          D^DFWM          D^KERR
----------------------------------------------------------------------------------------------------------------

 ZDIPLEN    ZDIPLEN    ZDIPLEN    ZDIPLEN        0    105.32913       105.32913       105.32913       105.32913    
                                                 2    5756.5665       2878.2833       1918.8555       959.42776    

 ZDIPLEN    XDIPLEN    XDIPLEN    ZDIPLEN        0    7.4195407       7.4195407       7.4195407       7.4195407    
                                                 2    266.16074       118.01500       68.633082       49.381914    

 XDIPLEN    XDIPLEN    ZDIPLEN    ZDIPLEN        0    7.4195407       7.4195407       7.4195407       7.4195407    
                                                 2    1307.1537       726.17160       359.01207       106.91129    

 XDIPLEN    ZDIPLEN    XDIPLEN    ZDIPLEN        0    7.4195407       7.4195407       7.4195407       7.4195407    
                                                 2    1307.1537       726.17160       359.01207       106.91129    

 XDIPLEN    ZDIPLEN    ZDIPLEN    XDIPLEN        0    7.4195407       7.4195407       7.4195407       7.4195407    
                                                 2    1307.1537       378.26324       68.633082       309.63016    

 ZDIPLEN    ZDIPLEN    XDIPLEN    XDIPLEN        0    7.4195407       7.4195407       7.4195407       7.4195407    
                                                 2    266.16074       205.67512       359.01207       106.91129    

 ZDIPLEN    XDIPLEN    ZDIPLEN    XDIPLEN        0    7.4195407       7.4195407       7.4195407       7.4195407    
                                                 2    266.16074       205.67512       359.01207       106.91129    

 XDIPLEN    XDIPLEN    XDIPLEN    XDIPLEN        0  -0.65892329     -0.65892329     -0.65892329     -0.65892329    
                                                 2   -3.7258099      -1.8629050      -1.2419366     -0.62096832    

 gamma_{||}                                      0    26.650033       26.650033       26.650033       26.650033    
                                                 2    1778.6520       889.32599       592.88400       296.44200    
----------------------------------------------------------------------------------------------------------------






 Process independent dispersion coefficients for gamma_{||}:
------------------------------------------------------------------------------
 gamma_0   26.650033    
 A         5.5617567    
------------------------------------------------------------------------------




  

 *******************************************************************************
 *******************************************************************************
 *                                                                             *
 *                                                                             *
 *                   SUMMARY OF COUPLED CLUSTER CALCULATION                    *
 *                                                                             *
 *                                                                             *
 *******************************************************************************
 *******************************************************************************

                                                                                
                                                                                
            Total SCF   energy:                  -100.0089198959                
            Total MP2   energy:                  -100.1936625719                
            Total CCSD  energy:                  -100.1977909068                
  

 *******************************************************************************
 *******************************************************************************
 *                                                                             *
 *                                                                             *
 *                      END OF COUPLED CLUSTER CALCULATION                     *
 *                                                                             *
 *                                                                             *
 *******************************************************************************
 *******************************************************************************


 >>>> CPU and wall time for CC :      18.904      20.441

 
     Date and time (Linux)  : Sun Sep  8 20:43:55 2013
     Host name              : lpqlx131.ups-tlse.fr                    


                      .-------------------------------------.
                      | End of Coupled Cluster Section (CC) |
                      `-------------------------------------'

 >>>> Total CPU  time used in DALTON:  19.00 seconds
 >>>> Total wall time used in DALTON:  20.54 seconds

 
     Date and time (Linux)  : Sun Sep  8 20:43:55 2013
     Host name              : lpqlx131.ups-tlse.fr                    
