

     ************************************************************************
     *************** Dalton - An Electronic Structure Program ***************
     ************************************************************************

    This is output from DALTON (Release Dalton2013 patch 0)
   ----------------------------------------------------------------------------
    NOTE:
     
    Dalton is an experimental code for the evaluation of molecular
    properties using (MC)SCF, DFT, CI, and CC wave functions.
    The authors accept no responsibility for the performance of
    the code or for the correctness of the results.
     
    The code (in whole or part) is provided under a licence and
    is not to be reproduced for further distribution without
    the written permission of the authors or their representatives.
     
    See the home page "http://daltonprogram.org" for further information.
     
    If results obtained with this code are published,
    the appropriate citations would be both of:
     
       K. Aidas, C. Angeli, K. L. Bak, V. Bakken, R. Bast,
       L. Boman, O. Christiansen, R. Cimiraglia, S. Coriani,
       P. Dahle, E. K. Dalskov, U. Ekstroem, T. Enevoldsen,
       J. J. Eriksen, P. Ettenhuber, B. Fernandez, L. Ferrighi,
       H. Fliegl, L. Frediani, K. Hald, A. Halkier, C. Haettig,
       H. Heiberg, T. Helgaker, A. C. Hennum, H. Hettema,
       E. Hjertenaes, S. Hoest, I.-M. Hoeyvik, M. F. Iozzi,
       B. Jansik, H. J. Aa. Jensen, D. Jonsson, P. Joergensen,
       J. Kauczor, S. Kirpekar, T. Kjaergaard, W. Klopper,
       S. Knecht, R. Kobayashi, H. Koch, J. Kongsted, A. Krapp,
       K. Kristensen, A. Ligabue, O. B. Lutnaes, J. I. Melo,
       K. V. Mikkelsen, R. H. Myhre, C. Neiss, C. B. Nielsen,
       P. Norman, J. Olsen, J. M. H. Olsen, A. Osted,
       M. J. Packer, F. Pawlowski, T. B. Pedersen, P. F. Provasi,
       S. Reine, Z. Rinkevicius, T. A. Ruden, K. Ruud, V. Rybkin,
       P. Salek, C. C. M. Samson, A. Sanchez de Meras, T. Saue,
       S. P. A. Sauer, B. Schimmelpfennig, K. Sneskov,
       A. H. Steindal, K. O. Sylvester-Hvid, P. R. Taylor,
       A. M. Teale, E. I. Tellgren, D. P. Tew, A. J. Thorvaldsen,
       L. Thoegersen, O. Vahtras, M. A. Watson, D. J. D. Wilson,
       M. Ziolkowski and H. Agren.
       The Dalton quantum chemistry program system.
       WIREs Comput. Mol. Sci. 2013. doi: 10.1002/wcms.1172
    
    and
    
       Dalton, a Molecular Electronic Structure Program,
       Release DALTON2013.0 (2013), see http://daltonprogram.org
   ----------------------------------------------------------------------------

    Authors in alphabetical order (major contribution(s) in parenthesis):

  Kestutis Aidas,           Vilnius University,           Lithuania   (QM/MM)
  Celestino Angeli,         University of Ferrara,        Italy       (NEVPT2)
  Keld L. Bak,              UNI-C,                        Denmark     (AOSOPPA, non-adiabatic coupling, magnetic properties)
  Vebjoern Bakken,          University of Oslo,           Norway      (DALTON; geometry optimizer, symmetry detection)
  Radovan Bast,             KTH Stockholm                 Sweden      (DALTON installation and execution frameworks)
  Linus Boman,              NTNU,                         Norway      (Cholesky decomposition and subsystems)
  Ove Christiansen,         Aarhus University,            Denmark     (CC module)
  Renzo Cimiraglia,         University of Ferrara,        Italy       (NEVPT2)
  Sonia Coriani,            University of Trieste,        Italy       (CC module, MCD in RESPONS)
  Paal Dahle,               University of Oslo,           Norway      (Parallelization)
  Erik K. Dalskov,          UNI-C,                        Denmark     (SOPPA)
  Thomas Enevoldsen,        Univ. of Southern Denmark,    Denmark     (SOPPA)
  Janus J. Eriksen,         Aarhus University,            Denmark     (PE-MP2/SOPPA, TDA)
  Berta Fernandez,          U. of Santiago de Compostela, Spain       (doublet spin, ESR in RESPONS)
  Lara Ferrighi,            Aarhus University,            Denmark     (PCM Cubic response)
  Heike Fliegl,             University of Oslo,           Norway      (CCSD(R12))
  Luca Frediani,            UiT The Arctic U. of Norway,  Norway      (PCM)
  Bin Gao,                  UiT The Arctic U. of Norway,  Norway      (Gen1Int library)
  Christof Haettig,         Ruhr-University Bochum,       Germany     (CC module)
  Kasper Hald,              Aarhus University,            Denmark     (CC module)
  Asger Halkier,            Aarhus University,            Denmark     (CC module)
  Hanne Heiberg,            University of Oslo,           Norway      (geometry analysis, selected one-electron integrals)
  Trygve Helgaker,          University of Oslo,           Norway      (DALTON; ABACUS, ERI, DFT modules, London, and much more)
  Alf Christian Hennum,     University of Oslo,           Norway      (Parity violation)
  Hinne Hettema,            University of Auckland,       New Zealand (quadratic response in RESPONS; SIRIUS supersymmetry)
  Eirik Hjertenaes,         NTNU,                         Norway      (Cholesky decomposition)
  Maria Francesca Iozzi,    University of Oslo,           Norway      (RPA)
  Brano Jansik              Technical Univ. of Ostrava    Czech Rep.  (DFT cubic response)
  Hans Joergen Aa. Jensen,  Univ. of Southern Denmark,    Denmark     (DALTON; SIRIUS, RESPONS, ABACUS modules, London, and much more)
  Dan Jonsson,              UiT The Arctic U. of Norway,  Norway      (cubic response in RESPONS module)
  Poul Joergensen,          Aarhus University,            Denmark     (RESPONS, ABACUS, and CC modules)
  Joanna Kauczor,           Linkoeping University,        Sweden      (Complex polarization propagator (CPP) module)
  Sheela Kirpekar,          Univ. of Southern Denmark,    Denmark     (Mass-velocity & Darwin integrals)
  Wim Klopper,              KIT Karlsruhe,                Germany     (R12 code in CC, SIRIUS, and ABACUS modules)
  Stefan Knecht,            ETH Zurich,                   Switzerland (Parallel CI and MCSCF)
  Rika Kobayashi,           Australian National Univ.,    Australia   (DIIS in CC, London in MCSCF)
  Henrik Koch,              NTNU,                         Norway      (CC module, Cholesky decomposition)
  Jacob Kongsted,           Univ. of Southern Denmark,    Denmark     (Polarizable embedding, QM/MM)
  Andrea Ligabue,           University of Modena,         Italy       (CTOCD, AOSOPPA)
  Ola B. Lutnaes,           University of Oslo,           Norway      (DFT Hessian)
  Juan I. Melo,             University of Buenos Aires,   Argentina   (LRESC, Relativistic Effects on NMR Shieldings)
  Kurt V. Mikkelsen,        University of Copenhagen,     Denmark     (MC-SCRF and QM/MM)
  Rolf H. Myhre,            NTNU,                         Norway      (Cholesky, subsystems and ECC2)
  Christian Neiss,          Univ. Erlangen-Nuernberg,     Germany     (CCSD(R12))
  Christian B. Nielsen,     University of Copenhagen,     Denmark     (QM/MM)
  Patrick Norman,           Linkoeping University,        Sweden      (Cubic response and complex response in RESPONS)
  Jeppe Olsen,              Aarhus University,            Denmark     (SIRIUS CI/density modules)
  Jogvan Magnus H. Olsen,   Univ. of Southern Denmark,    Denmark     (Polarizable embedding, PE library, QM/MM)
  Anders Osted,             Copenhagen University,        Denmark     (QM/MM)
  Martin J. Packer,         University of Sheffield,      UK          (SOPPA)
  Filip Pawlowski,          Kazimierz Wielki University   Poland      (CC3)
  Thomas B. Pedersen,       University of Oslo,           Norway      (Cholesky decomposition)
  Patricio F. Provasi,      University of Northeastern,   Argentina   (Analysis of coupling constants in localized orbitals)
  Zilvinas Rinkevicius,     KTH Stockholm,                Sweden      (open-shell DFT, ESR)
  Elias Rudberg,            KTH Stockholm,                Sweden      (DFT grid and basis info)
  Torgeir A. Ruden,         University of Oslo,           Norway      (Numerical derivatives in ABACUS)
  Kenneth Ruud,             UiT The Arctic U. of Norway,  Norway      (DALTON; ABACUS magnetic properties and  much more)
  Pawel Salek,              KTH Stockholm,                Sweden      (DALTON; DFT code)
  Claire C. M. Samson       University of Karlsruhe       Germany     (Boys localization, r12 integrals in ERI)
  Alfredo Sanchez de Meras, University of Valencia,       Spain       (CC module, Cholesky decomposition)
  Trond Saue,               Paul Sabatier University,     France      (direct Fock matrix construction)
  Stephan P. A. Sauer,      University of Copenhagen,     Denmark     (SOPPA(CCSD), SOPPA prop., AOSOPPA, vibrational g-factors)
  Bernd Schimmelpfennig,    Forschungszentrum Karlsruhe,  Germany     (AMFI module)
  Kristian Sneskov,         Aarhus University,            Denmark     (QM/MM, PE-CC)
  Arnfinn H. Steindal,      UiT The Arctic U. of Norway,  Norway      (parallel QM/MM)
  K. O. Sylvester-Hvid,     University of Copenhagen,     Denmark     (MC-SCRF)
  Peter R. Taylor,          VLSCI/Univ. of Melbourne,     Australia   (Symmetry handling ABACUS, integral transformation)
  Andrew M. Teale,          University of Nottingham,     England     (DFT-AC, DFT-D)
  David P. Tew,             University of Bristol,        England     (CCSD(R12))
  Olav Vahtras,             KTH Stockholm,                Sweden      (triplet response, spin-orbit, ESR, TDDFT, open-shell DFT)
  David J. Wilson,          La Trobe University,          Australia   (DFT Hessian and DFT magnetizabilities)
  Hans Agren,               KTH Stockholm,                Sweden      (SIRIUS module, RESPONS, MC-SCRF solvation model)
 --------------------------------------------------------------------------------

     Date and time (Linux)  : Sun Sep  8 20:42:08 2013
     Host name              : lpqlx131.ups-tlse.fr                    

 * Work memory size             :    64000000 =  488.28 megabytes.

 * Directories for basis set searches:
   1) /home/bast/DALTON-2013.0-Source/build/test_cc_rsp_beta2
   2) /home/bast/DALTON-2013.0-Source/build/basis


Compilation information
-----------------------

 Who compiled             | bast
 Host                     | lpqlx131.ups-tlse.fr
 System                   | Linux-3.8.5-201.fc18.x86_64
 CMake generator          | Unix Makefiles
 Processor                | x86_64
 64-bit integers          | OFF
 MPI                      | OFF
 Fortran compiler         | /usr/bin/gfortran
 Fortran compiler version | GNU Fortran (GCC) 4.7.2 20121109 (Red Hat 4.7.2-8)
 C compiler               | /usr/bin/gcc
 C compiler version       | gcc (GCC) 4.7.2 20121109 (Red Hat 4.7.2-8)
 C++ compiler             | /usr/bin/g++
 C++ compiler version     | g++ (GCC) 4.7.2 20121109 (Red Hat 4.7.2-8)
 Static linking           | OFF
 Last Git revision        | f34203295a86316e27f9e7b44f9b6769c4a046c0
 Configuration time       | 2013-09-08 20:31:27.952056


   Content of the .dal input file
 ----------------------------------

**DALTON INPUT                                    
.RUN WAVE FUNCTIONS                               
**INTEGRAL                                        
.DIPLEN                                           
**WAVE FUNCTIONS                                  
.TITLE                                            
  first hyperpolarizability for the HF molecule   
  for CCS and CCSD wavefunctions compute:         
  - parallel (beta_||) and orthogonal averages (be
  - A & B coefficients  (2. and 4. order dispersio
  - core orbital frozen                           
.CC                                               
*SCF INPUT                                        
.THRESH                                           
 1.0d-12                                          
*CC INPUT                                         
.CCS                                              
.CCSD                                             
.THRENR                                           
 1.0d-8                                           
.THRLEQ                                           
 1.0d-8                                           
.NSYM                                             
 2                                                
.FROIMP                                           
 1 0 0 0                                          
 0 0 0 0                                          
*CCQR                                             
.AVERAGE                                          
HYPERPOLARIZABILITY                               
.DISPCF                                           
  4                                               
**END OF DALTON INPUT                             


   Content of the .mol file
 ----------------------------

BASIS                                                                          
6-31G**                                                                        
Hydrogen flourid                                                               
small test basis                                                               
    2    1  Y         1.00D-15                                                 
        9.0   1                                                                
F     0.0000000000000000  0.0000000000000000 1.76320000000000000               
        1.0   1                                                                
H     0.0000000000000000  0.0000000000000000 0.00000000000000000               


       *******************************************************************
       *********** Output from DALTON general input processing ***********
       *******************************************************************

 --------------------------------------------------------------------------------
   Overall default print level:    0
   Print level for DALTON.STAT:    1

    HERMIT 1- and 2-electron integral sections will be executed
    "Old" integral transformation used (limited to max 255 basis functions)
    Wave function sections will be executed (SIRIUS module)
 --------------------------------------------------------------------------------


   ****************************************************************************
   *************** Output of molecule and basis set information ***************
   ****************************************************************************


    The two title cards from your ".mol" input:
    ------------------------------------------------------------------------
 1: Hydrogen flourid                                                        
 2: small test basis                                                        
    ------------------------------------------------------------------------

  Atomic type no.    1
  --------------------
  Nuclear charge:   9.00000
  Number of symmetry independent centers:    1
  Number of basis sets to read;    2
  Basis set file used for this atomic type with Z =   9 :
     "/home/bast/DALTON-2013.0-Source/build/basis/6-31G**"

  Info about the basis set file: your basis has no documentation.
  Basis set: 6-31G**                                                                         

  Atomic type no.    2
  --------------------
  Nuclear charge:   1.00000
  Number of symmetry independent centers:    1
  Number of basis sets to read;    2
  Basis set file used for this atomic type with Z =   1 :
     "/home/bast/DALTON-2013.0-Source/build/basis/6-31G**"

  Info about the basis set file: your basis has no documentation.
  Basis set: 6-31G**                                                                         


                         SYMGRP: Point group information
                         -------------------------------

Point group: Cs 

   * The point group was generated by:

      Reflection in the xz-plane

   * Group multiplication table

        |  E   Oxz
   -----+----------
     E  |  E   Oxz
    Oxz | Oxz   E 

   * Character table

        |  E   Oxz
   -----+----------
    A'  |   1    1
    A"  |   1   -1

   * Direct product table

        | A'   A" 
   -----+----------
    A'  | A'   A" 
    A"  | A"   A' 


                                 Isotopic Masses
                                 ---------------

                           F          18.998403
                           H           1.007825

                       Total mass:    20.006228 amu
                       Natural abundance:  99.985 %

 Center-of-mass coordinates (a.u.):    0.000000    0.000000    1.674378


  Atoms and basis sets
  --------------------

  Number of atom types :    2
  Total number of atoms:    2

  Basis set used is "6-31G**" from the basis set library.

  label    atoms   charge   prim   cont     basis
  ----------------------------------------------------------------------
  F           1    9.0000    27    14      [10s4p1d|3s2p1d]                                   
  H           1    1.0000     7     5      [4s1p|2s1p]                                        
  ----------------------------------------------------------------------
  total:      2   10.0000    34    19
  ----------------------------------------------------------------------
  Spherical harmonic basis used.

  Threshold for neglecting AO integrals:  1.00D-15


  Cartesian Coordinates (a.u.)
  ----------------------------

  Total number of coordinates:    6
  F       :     1  x   0.0000000000    2  y   0.0000000000    3  z   1.7632000000
  H       :     4  x   0.0000000000    5  y   0.0000000000    6  z   0.0000000000


  Symmetry Coordinates
  --------------------

  Number of coordinates in each symmetry:     4    2

  Symmetry  A'  ( 1)

    1   F     x    1
    2   F     z    3
    3   H     x    4
    4   H     z    6

  Symmetry  A"  ( 2)

    5   F     y    2
    6   H     y    5


   Interatomic separations (in Angstrom):
   --------------------------------------

            F           H     
            ------      ------
 F     :    0.000000
 H     :    0.933045    0.000000


  Max    interatomic separation is    0.9330 Angstrom (    1.7632 Bohr)
  between atoms    2 and    1, "H     " and "F     ".

  Min HX interatomic separation is    0.9330 Angstrom (    1.7632 Bohr)


  Bond distances (Angstrom):
  --------------------------

                  atom 1     atom 2       distance
                  ------     ------       --------
  bond distance:  H          F            0.933045




 Principal moments of inertia (u*A**2) and principal axes
 --------------------------------------------------------

   IA       0.000000          0.000000    0.000000    1.000000
   IB       0.833187          0.000000    1.000000    0.000000
   IC       0.833187          1.000000    0.000000    0.000000


 Rotational constants
 --------------------

 The molecule is linear.

               B =       606561.40 MHz     (   20.232710 cm-1)


@  Nuclear repulsion energy :    5.104355716878 Hartree


  Symmetry Orbitals
  -----------------

  Number of orbitals in each symmetry:          14    5


  Symmetry  A' ( 1)

    1     F        1s         1
    2     F        1s         2
    3     F        1s         3
    4     F        2px        4
    5     F        2pz        6
    6     F        2px        7
    7     F        2pz        9
    8     F        3d0       12
    9     F        3d1+      13
   10     F        3d2+      14
   11     H        1s        15
   12     H        1s        16
   13     H        2px       17
   14     H        2pz       19


  Symmetry  A" ( 2)

   15     F        2py        5
   16     F        2py        8
   17     F        3d2-      10
   18     F        3d1-      11
   19     H        2py       18

  Symmetries of electric field:  A' (1)  A" (2)  A' (1)

  Symmetries of magnetic field:  A" (2)  A' (1)  A" (2)


                     .---------------------------------------.
                     | Starting in Integral Section (HERMIT) |
                     `---------------------------------------'



    *************************************************************************
    ****************** Output from HERMIT input processing ******************
    *************************************************************************


 Default print level:        1

 * Nuclear model: Point charge

 Calculation of one- and two-electron Hamiltonian integrals.

 The following one-electron property integrals are calculated as requested:
          - overlap integrals
          - dipole length integrals

 Center of mass  (bohr):      0.000000000000      0.000000000000      1.674377807231
 Operator center (bohr):      0.000000000000      0.000000000000      0.000000000000
 Gauge origin    (bohr):      0.000000000000      0.000000000000      0.000000000000
 Dipole origin   (bohr):      0.000000000000      0.000000000000      0.000000000000


     ************************************************************************
     ************************** Output from HERINT **************************
     ************************************************************************


 Threshold for neglecting two-electron integrals:  1.00D-15
 Number of two-electron integrals written:        4125 ( 22.7% )
 Megabytes written:                              0.048

 >>>> Total CPU  time used in HERMIT:   0.01 seconds
 >>>> Total wall time used in HERMIT:   0.01 seconds


                        .----------------------------------.
                        | End of Integral Section (HERMIT) |
                        `----------------------------------'



                   .--------------------------------------------.
                   | Starting in Wave Function Section (SIRIUS) |
                   `--------------------------------------------'


 *** Output from Huckel module :

     Using EWMO model:          T
     Using EHT  model:          F
     Number of Huckel orbitals each symmetry:    5    1

 EWMO - Energy Weighted Maximum Overlap - is a Huckel type method,
        which normally is better than Extended Huckel Theory.
 Reference: Linderberg and Ohrn, Propagators in Quantum Chemistry (Wiley, 1973)

 Huckel EWMO eigenvalues for symmetry :  1
          -26.384238      -1.721955      -0.830116      -0.730000      -0.248892

 Huckel EWMO eigenvalues for symmetry :  2
           -0.730000

 **********************************************************************
 *SIRIUS* a direct, restricted step, second order MCSCF program       *
 **********************************************************************

 
     Date and time (Linux)  : Sun Sep  8 20:42:08 2013
     Host name              : lpqlx131.ups-tlse.fr                    

 Title     :   first hyperpolarizability for the HF molecule             
               for CCS and CCSD wavefunctions compute:                   
               - parallel (beta_||) and orthogonal averages (beta_|_)    
               - A & B coefficients  (2. and 4. order dispersion coeffici
               - core orbital frozen                                     

 Title lines from ".mol" input file:
     Hydrogen flourid                                                        
     small test basis                                                        

 Print level on unit LUPRI =   2 is   0
 Print level on unit LUW4  =   2 is   5

@    (Integral direct) CC calculation.

@    This is a combination run starting with
@              a restricted, closed shell Hartree-Fock calculation


 Initial molecular orbitals are obtained according to
 ".MOSTART EWMO  " input option

     Wave function specification
     ============================

     For the specification of the Coupled Cluster: see later.

@    For the wave function of type :      >>> CC <<<
@    Number of closed shell electrons          10
@    Number of electrons in active shells       0
@    Total charge of the molecule               0

@    Spin multiplicity and 2 M_S                1         0
     Total number of symmetries                 2
@    Reference state symmetry                   1

     Orbital specifications
     ======================
     Abelian symmetry species          All |    1    2
                                       --- |  ---  ---
     Total number of orbitals           19 |   14    5
     Number of basis functions          19 |   14    5

      ** Automatic occupation of RHF orbitals **

      -- Initial occupation of symmetries is determined from extended Huckel guess.           
      -- Initial occupation of symmetries is :
@    Occupied SCF orbitals               5 |    4    1

     Maximum number of Fock   iterations      0
     Maximum number of DIIS   iterations     60
     Maximum number of QC-SCF iterations     60
     Threshold for SCF convergence     1.00D-12


 Changes of defaults for CC:
 ---------------------------


 -Implicit frozen core calculation
 -Quadratic response properties calculated
  


 >>>>> DIIS optimization of Hartree-Fock <<<<<

 C1-DIIS algorithm; max error vectors =   10

 Automatic occupation of symmetries with  10 electrons.

 Iter     Total energy    Error norm  Delta(E)    SCF occupation
 -----------------------------------------------------------------------------
     (Precalculated two-electron integrals are transformed to P-supermatrix elements.
      Threshold for discarding integrals :  1.00D-15 )
@  1  -99.9159496472       1.29D+00  -9.99D+01     4   1
      Virial theorem: -V/T =      1.997399
@      MULPOP F      -0.44; H       0.44; 
 -----------------------------------------------------------------------------
@  2  -100.006061881       2.26D-01  -9.01D-02     4   1
      Virial theorem: -V/T =      2.002657
@      MULPOP F      -0.38; H       0.38; 
 -----------------------------------------------------------------------------
@  3  -100.008563846       8.51D-02  -2.50D-03     4   1
      Virial theorem: -V/T =      1.999075
@      MULPOP F      -0.41; H       0.41; 
 -----------------------------------------------------------------------------
@  4  -100.008886254       2.15D-02  -3.22D-04     4   1
      Virial theorem: -V/T =      2.000623
@      MULPOP F      -0.41; H       0.41; 
 -----------------------------------------------------------------------------
@  5  -100.008918307       3.56D-03  -3.21D-05     4   1
      Virial theorem: -V/T =      2.000296
@      MULPOP F      -0.42; H       0.42; 
 -----------------------------------------------------------------------------
@  6  -100.008919840       7.37D-04  -1.53D-06     4   1
      Virial theorem: -V/T =      2.000320
@      MULPOP F      -0.42; H       0.42; 
 -----------------------------------------------------------------------------
@  7  -100.008919896       5.25D-05  -5.51D-08     4   1
      Virial theorem: -V/T =      2.000327
@      MULPOP F      -0.42; H       0.42; 
 -----------------------------------------------------------------------------
@  8  -100.008919896       4.66D-06  -2.57D-10     4   1
      Virial theorem: -V/T =      2.000326
@      MULPOP F      -0.42; H       0.42; 
 -----------------------------------------------------------------------------
@  9  -100.008919896       4.39D-07  -1.08D-12     4   1
      Virial theorem: -V/T =      2.000327
@      MULPOP F      -0.42; H       0.42; 
 -----------------------------------------------------------------------------
@ 10  -100.008919896       2.49D-08   1.42D-14     4   1
      Virial theorem: -V/T =      2.000327
@      MULPOP F      -0.42; H       0.42; 
 -----------------------------------------------------------------------------
@ 11  -100.008919896       2.56D-09  -5.68D-14     4   1
      Virial theorem: -V/T =      2.000327
@      MULPOP F      -0.42; H       0.42; 
 -----------------------------------------------------------------------------
@ 12  -100.008919896       6.66D-11   5.68D-14     4   1
      Virial theorem: -V/T =      2.000327
@      MULPOP F      -0.42; H       0.42; 
 -----------------------------------------------------------------------------
@ 13  -100.008919896       8.93D-12  -5.68D-14     4   1
      Virial theorem: -V/T =      2.000327
@      MULPOP F      -0.42; H       0.42; 
 -----------------------------------------------------------------------------
@ 14  -100.008919896       3.45D-13   0.00D+00     4   1

@ *** DIIS converged in  14 iterations !
@     Converged SCF energy, gradient:   -100.008919895850    3.45D-13
    - total time used in SIRFCK :              0.00 seconds


 *** SCF orbital energy analysis ***

 Only the five lowest virtual orbital energies printed in each symmetry.

 Number of electrons :   10
 Orbital occupations :    4    1

 Sym       Hartree-Fock orbital energies

  1    -26.27306629    -1.57292658    -0.73710501    -0.62549523     0.21639320
         1.01969778     1.48848713     1.53899963     1.89379537

  2     -0.62549523     1.48848713     1.89379537     2.15801858     3.02038759


    E(LUMO) :     0.21639320 au (symmetry 1)
  - E(HOMO) :    -0.62549523 au (symmetry 2)
  ------------------------------------------
    gap     :     0.84188843 au

 >>> Writing SIRIFC interface file <<<

 >>>> CPU and wall time for SCF :       0.007       0.008


                       .-----------------------------------.
                       | >>> Final results from SIRIUS <<< |
                       `-----------------------------------'


@    Spin multiplicity:           1
@    Spatial symmetry:            1
@    Total charge of molecule:    0

@    Final HF energy:            -100.008919895850                 
@    Nuclear repulsion:             5.104355716878
@    Electronic energy:          -105.113275612729

@    Final gradient norm:           0.000000000000

 
     Date and time (Linux)  : Sun Sep  8 20:42:08 2013
     Host name              : lpqlx131.ups-tlse.fr                    

 (Only coefficients >0.0100 are printed.)

 Molecular orbitals for symmetry species  1
 ------------------------------------------

    Orbital         1        2        3        4        5        6
   1 F   :1s    -0.9955  -0.2308  -0.0555   0.0000   0.0644   0.0183
   2 F   :1s    -0.0212   0.5025   0.1234  -0.0000  -0.0741  -0.1606
   3 F   :1s     0.0052   0.5082   0.2358  -0.0000  -0.7503   0.3606
   4 F   :2px   -0.0000  -0.0000  -0.0000  -0.6587   0.0000  -0.0000
   5 F   :2pz    0.0013  -0.0602   0.5496  -0.0000   0.2591   0.3919
   6 F   :2px    0.0000  -0.0000  -0.0000  -0.4859   0.0000  -0.0000
   7 F   :2pz   -0.0009  -0.0224   0.3522  -0.0000   0.4759  -0.1052
   8 F   :3d0    0.0000   0.0013  -0.0237   0.0000  -0.0259   0.2926
   9 F   :3d1+  -0.0000   0.0000   0.0000   0.0223  -0.0000   0.0000
  11 H   :1s    -0.0001   0.1311  -0.2709   0.0000   0.1124   0.9672
  12 H   :1s    -0.0013   0.0073  -0.1255   0.0000   1.3668  -0.9276
  13 H   :2px    0.0000   0.0000   0.0000  -0.0198  -0.0000   0.0000
  14 H   :2pz    0.0006   0.0312  -0.0288   0.0000   0.0206  -0.2828

 Molecular orbitals for symmetry species  2
 ------------------------------------------

    Orbital         1        2        3
   1 F   :2py    0.6587  -0.9416   0.1036
   2 F   :2py    0.4859   1.0109  -0.2903
   4 F   :3d1-  -0.0223  -0.0635  -0.6960
   5 H   :2py    0.0198   0.0764   0.4878



 >>>> Total CPU  time used in SIRIUS :      0.01 seconds
 >>>> Total wall time used in SIRIUS :      0.01 seconds

 
     Date and time (Linux)  : Sun Sep  8 20:42:08 2013
     Host name              : lpqlx131.ups-tlse.fr                    


                     .---------------------------------------.
                     | End of Wave Function Section (SIRIUS) |
                     `---------------------------------------'



                    .------------------------------------------.
                    | Starting in Coupled Cluster Section (CC) |
                    `------------------------------------------'

  

 *******************************************************************************
 *******************************************************************************
 *                                                                             *
 *                                                                             *
 *                    START OF COUPLED CLUSTER CALCULATION                     *
 *                                                                             *
 *                                                                             *
 *******************************************************************************
 *******************************************************************************



 CCR12 ANSATZ =   0

 CCR12 APPROX =   0

   

 *******************************************************************
 *                                                                 *
 *<<<<<<<<<<                                             >>>>>>>>>>*
 *<<<<<<<<<< OUTPUT FROM COUPLED CLUSTER ENERGY PROGRAM  >>>>>>>>>>*
 *<<<<<<<<<<                                             >>>>>>>>>>*
 *                                                                 *
 *******************************************************************


             The Direct Coupled Cluster Energy Program
             -----------------------------------------


          Number of t1 amplitudes                 :        34
          Number of t2 amplitudes                 :       848
          Total number of amplitudes in ccsd      :       882



          CCS CALC. - NO WAVEFUNCTION OPTIMIZATION
   

 *******************************************************************
 *                                                                 *
 *<<<<<<<<<<<<< OUTPUT FROM COUPLED CLUSTER RESPONSE  >>>>>>>>>>>>>*
 *                                                                 *
 *******************************************************************



                         +-------------------------------+
                         ! Coupled Cluster model is: CCS !
                         +-------------------------------+

  
     

   *******************************************************************
   *                                                                 *
   *<<<<<<<<   OUTPUT FROM PROPERTY AND SYMMETRY ANALYSIS   >>>>>>>>>*
   *                                                                 *
   *******************************************************************


  PUT TRIPLE: ZDIPLEN  ZDIPLEN  ZDIPLEN  ON THE LIST.

  PUT TRIPLE: ZDIPLEN  XDIPLEN  XDIPLEN  ON THE LIST.

  PUT TRIPLE: XDIPLEN  ZDIPLEN  XDIPLEN  ON THE LIST.

  PUT TRIPLE: XDIPLEN  XDIPLEN  ZDIPLEN  ON THE LIST.

  PUT TRIPLE: ZDIPLEN  YDIPLEN  YDIPLEN  ON THE LIST.

  PUT TRIPLE: YDIPLEN  ZDIPLEN  YDIPLEN  ON THE LIST.

  PUT TRIPLE: YDIPLEN  YDIPLEN  ZDIPLEN  ON THE LIST.


                         +-------------------------------+
                         ! REQUESTED PROPERTY OPERATORS: !
                         +-------------------------------+

             Index   Oper. Label  Symmetry  Transp.  PDBS  Atom
             --------------------------------------------------
                1     HAM0            1        1      T      0
                2     XDIPLEN         1        1      F      0
                3     ZDIPLEN         1        1      F      0
                4     YDIPLEN         2        1      F      0
             --------------------------------------------------




                         +-------------------------------+
                         ! REQUESTED EXPECTATION VALUES: !
                         +-------------------------------+

                       Index   Oper. Label  Symmetry
                       -----------------------------
                       -----------------------------




                       +------------------------------------+
                       ! REQUESTED EFFECTIVE FOCK MATRICES: !
                       +------------------------------------+

                       Index   Oper. Label  Symmetry
                       -----------------------------
                       -----------------------------




                       +-----------------------------------+
                       ! REQUESTED FIRST ORDER XI VECTORS: !
                       +-----------------------------------+

             Index   Oper. Label  relaxed  Sym.     Frequency
             --------------------------------------------------
                1      XDIPLEN        F     1      0.000000D+00
                2      ZDIPLEN        F     1      0.000000D+00
                3      YDIPLEN        F     2      0.000000D+00
             --------------------------------------------------




                        +----------------------------------+
                        ! REQUESTED FIRST ORDER T VECTORS: !
                        +----------------------------------+

             Index   Oper. Label  relaxed  Sym.     Frequency
             --------------------------------------------------
                1      XDIPLEN        F     1      0.000000D+00
                2      ZDIPLEN        F     1     -0.000000D+00
                3      YDIPLEN        F     2      0.000000D+00
             --------------------------------------------------




                       +------------------------------------+
                       ! REQUESTED FIRST ORDER ETA VECTORS: !
                       +------------------------------------+

             Index   Oper. Label  relaxed  Sym.     Frequency
             --------------------------------------------------
                1      XDIPLEN        F     1      0.000000D+00
                2      ZDIPLEN        F     1      0.000000D+00
                3      YDIPLEN        F     2      0.000000D+00
             --------------------------------------------------




                      +-------------------------------------+
                      ! REQUESTED FIRST ORDER ZETA VECTORS: !
                      +-------------------------------------+

             Index   Oper. Label  relaxed  Sym.     Frequency
             --------------------------------------------------
                1      XDIPLEN        F     1      0.000000D+00
                2      ZDIPLEN        F     1     -0.000000D+00
                3      YDIPLEN        F     2      0.000000D+00
             --------------------------------------------------




                  +---------------------------------------------+
                  ! REQUESTED FIRST-ORDER RIGHT CAUCHY VECTORS: !
                  +---------------------------------------------+

               Index   Oper. Label  Symmetry  Cauchy Order
               --------------------------------------------------
                  1      XDIPLEN     1      1
                  2      ZDIPLEN     1      1
                  3      XDIPLEN     1      2
                  4      ZDIPLEN     1      2
                  5      XDIPLEN     1      3
                  6      ZDIPLEN     1      3
                  7      XDIPLEN     1      4
                  8      ZDIPLEN     1      4
                  9      YDIPLEN     2      1
                 10      YDIPLEN     2      2
                 11      YDIPLEN     2      3
                 12      YDIPLEN     2      4
               --------------------------------------------------




                   +--------------------------------------------+
                   ! REQUESTED FIRST-ORDER LEFT CAUCHY VECTORS: !
                   +--------------------------------------------+

               Index   Oper. Label  Symmetry  Cauchy Order
               --------------------------------------------------
                  1      XDIPLEN     1      1
                  2      ZDIPLEN     1      1
                  3      XDIPLEN     1      2
                  4      ZDIPLEN     1      2
                  5      XDIPLEN     1      3
                  6      ZDIPLEN     1      3
                  7      XDIPLEN     1      4
                  8      ZDIPLEN     1      4
                  9      YDIPLEN     2      1
                 10      YDIPLEN     2      2
                 11      YDIPLEN     2      3
                 12      YDIPLEN     2      4
               --------------------------------------------------


      

    *******************************************************************
    *          SOLVING COUPLED CLUSTER RESPONSE EQUATIONS             *
    *******************************************************************



 
 +======================================================================+
 !                     RHS & ETA VECTORS TO COMPUTE:                    !
 +======================================================================+
 | TYPE | # VEC. |  NEEDED FOR:                                         |
 +----------------------------------------------------------------------+
 |  O1  |    3   |  first-order amplitude equations                     |
 |  X1  |    3   |  first-order multipliers equations                   |
 +======================================================================+



 +======================================================================+
 !                       LINEAR EQUATIONS TO SOLVE:                     !
 +======================================================================+
 | TYPE | # VEC. |  EQUATION:                                           |
 +----------------------------------------------------------------------+
 |  R1  |    3   |  first-order amplitude response                      |
 |  L1  |    3   |  first-order multiplier response                     |
 |  RC  |   12   |  first-order right Cauchy vectors                    |
 |  LC  |   12   |  first-order left Cauchy vectors                     |
 +======================================================================+



 +======================================================================+
 !                F MATRIX TRANSFORMATIONS TO COMPUTE:                  !
 +======================================================================+
 | TYPE | # VEC. |  TRANSFORMED:                                        |
 +----------------------------------------------------------------------+
 |  F1  |    3   |  first-order amplitude response (R1) vector          |
 |  FC  |   12   |  first-order right Cauchy (RC) vector                |
 +======================================================================+




 -------------------------------------------------------------------
 |          OUTPUT FROM AMPLITUDE RHS VECTOR SECTION               |
 -------------------------------------------------------------------



   For the requested  3 1th.-order amplitude rhs vectors "O1 ".
         -   0 D matrix transformations 
         -   0 C matrix transformations 
         -   0 B matrix transformations 
         -   0 C{O} matrix transformations 
         -   0 B{O} matrix transformations 
         -   0 A{O} matrix transformations 
         -   3Xi{O} vector calculations    
   will be performed.


 RPA: call cceq_str
 RPA: exit cceq_str
 RPA: call cceq_str
 RPA: exit cceq_str
 RPA: call cceq_str
 RPA: exit cceq_str
 RPA: call cceq_str
 RPA: exit cceq_str
 RPA: call cceq_str
 RPA: exit cceq_str
 RPA: call cceq_str
 RPA: exit cceq_str
 RPA: call cceq_str
 RPA: exit cceq_str
 RPA: call cceq_str
 RPA: exit cceq_str
 RPA: call cceq_str
 RPA: exit cceq_str
 RPA: call cceq_str
 RPA: exit cceq_str
 RPA: call cceq_str
 RPA: exit cceq_str
 RPA: call cceq_str
 RPA: exit cceq_str
 RPA: call cceq_str
 RPA: exit cceq_str
 RPA: call cceq_str
 RPA: exit cceq_str
 RPA: call cceq_str
 RPA: exit cceq_str
 RPA: call cceq_str
 RPA: exit cceq_str
 RPA: call cceq_str
 RPA: exit cceq_str
 RPA: call cceq_str
 RPA: exit cceq_str
 RPA: call cceq_str
 RPA: exit cceq_str
 RPA: call cceq_str
 RPA: exit cceq_str

 Solution of CC response equations completed.


 *******************************************************************
 *                                                                 *
 *<<<<<<<< OUTPUT FROM COUPLED CLUSTER QUADRATIC RESPONSE >>>>>>>>>*
 *                                                                 *
 *<<<<<<<<     CALCULATION OF CC HYPERPOLARIZABILITIES    >>>>>>>>>*
 *                                                                 *
 *******************************************************************



   For the requested  7 quadratic response functions 
         -   3 G matrix transformations 
         -   5 B matrix transformations 
         -   0 K matrix transformations 
         -   0 F matrix transformations 
         -   5 F{O} matrix transformations 
         -   7 ETA{O} vector calculations 
         -   0 Xksi{O2} x L1 and Eta{O2} x R1 dot products
         -   0 X1 x R2 dot products 
   will be performed.


 +--------------------------------------------------+
 | total time for   3 G transforms.:      0.00 secs.|
 +==================================================+



>>> Time used for    3 G matrix transformations:        0.00 seconds.
 +--------------------------------------------------+
 | total time for   5 B transforms.:      0.00 secs.|
 +==================================================+



>>> Time used for    5 B matrix transformations:        0.00 seconds.

>>> Time used for    5 F{O} matrix transform.:          0.00 seconds.

>>> Time used for    7 ETA{O} vector calculat.:         0.00 seconds.

>>> Time used for    0 Xksi{O} and Eta{O2} vector calculat.:         0.00 seconds.

>>> Total time for   7 quadratic response func.:        0.00 seconds.


                  +--------------------------------------------------------------------------------------+
                  !                FINAL CCS RESULTS FOR THE FIRST HYPERPOLARIZABILITIES                 !
                  +--------------------------------------------------------------------------------------+


  A operator                  B operator                  C operator                     property 
------------------------------------------------------------------------------------------------------

 ZDIPLEN  (unrel.) -0.0000   ZDIPLEN  (unrel.)  0.0000   ZDIPLEN  (unrel.)  0.0000      16.574446    

 ZDIPLEN  (unrel.) -0.0000   XDIPLEN  (unrel.)  0.0000   XDIPLEN  (unrel.)  0.0000     0.67551272    

 XDIPLEN  (unrel.) -0.0000   ZDIPLEN  (unrel.)  0.0000   XDIPLEN  (unrel.)  0.0000     0.67551272    

 XDIPLEN  (unrel.) -0.0000   XDIPLEN  (unrel.)  0.0000   ZDIPLEN  (unrel.)  0.0000     0.67551272    

 ZDIPLEN  (unrel.) -0.0000   YDIPLEN  (unrel.)  0.0000   YDIPLEN  (unrel.)  0.0000     0.67551272    

 YDIPLEN  (unrel.) -0.0000   ZDIPLEN  (unrel.)  0.0000   YDIPLEN  (unrel.)  0.0000     0.67551272    

 YDIPLEN  (unrel.) -0.0000   YDIPLEN  (unrel.)  0.0000   ZDIPLEN  (unrel.)  0.0000     0.67551272    





  average         frequencies
-------------------------------------------------------

  beta_||   -0.0000   0.0000   0.0000     10.755283    

  beta^K    -0.0000   0.0000   0.0000     10.755283    

  beta_|_   -0.0000   0.0000   0.0000     3.5850943    

  beta_ms   -0.0000   0.0000   0.0000     0.0000000    


------------------------------------------------------------------------------------------------------





   For the requested 154 expansion coefficients for quadratic response functions
         -  22 G matrix transformations 
         -  57 B matrix transformations 
         -   0 F matrix transformations 
         -  19 F{O} matrix transformations 
         -  35 ETA{O} vector calculations 
         -   0 XC x CR2 dot products 
   will be performed.


 +--------------------------------------------------+
 | total time for  22 G transforms.:      0.00 secs.|
 +==================================================+



>>> Time used for   22 G matrix transformations:        0.00 seconds.
 +--------------------------------------------------+
 | total time for  57 B transforms.:      0.02 secs.|
 +==================================================+



>>> Time used for   57 B matrix transformations:        0.02 seconds.

>>> Time used for   19 F{O} matrix transform.:          0.00 seconds.

>>> Time used for   35 ETA{O} vector calculat.:         0.00 seconds.

>>> Total time for 245 expansion coeffients:            0.03 seconds.


               +----------------------------------------------------+
               !      FINAL CCS RESULTS FOR DISPERSION COEFFICIENTS !
               +----------------------------------------------------+


 A operator   B operator   C operator       N    M    D_ABC
--------------------------------------------------------------------

 ZDIPLEN      ZDIPLEN      ZDIPLEN          0    0    16.574446    
                                            2    0    79.209921    
                                            1    1    79.209921    
                                            0    2    79.209921    
                                            4    0    300.25855    
                                            3    1    600.51709    
                                            2    2    900.77564    
                                            1    3    600.51709    
                                            0    4    300.25855    

 ZDIPLEN      XDIPLEN      XDIPLEN          0    0   0.67551272    
                                            2    0    3.8606810    
                                            1    1   -5.1183261    
                                            0    2    3.8606810    
                                            4    0    20.919943    
                                            3    1   -24.781414    
                                            2    2    18.948141    
                                            1    3   -24.781414    
                                            0    4    20.919943    

 XDIPLEN      ZDIPLEN      XDIPLEN          0    0   0.67551272    
                                            2    0    12.839688    
                                            1    1    12.839688    
                                            0    2    3.8606810    
                                            4    0    110.35085    
                                            3    1    220.70171    
                                            2    2    218.81204    
                                            1    3    108.46119    
                                            0    4    20.919943    

 XDIPLEN      XDIPLEN      ZDIPLEN          0    0   0.67551272    
                                            2    0    3.8606810    
                                            1    1    12.839688    
                                            0    2    12.839688    
                                            4    0    20.919943    
                                            3    1    108.46119    
                                            2    2    218.81204    
                                            1    3    220.70171    
                                            0    4    110.35085    

 ZDIPLEN      YDIPLEN      YDIPLEN          0    0   0.67551272    
                                            2    0    3.8606810    
                                            1    1   -5.1183261    
                                            0    2    3.8606810    
                                            4    0    20.919943    
                                            3    1   -24.781414    
                                            2    2    18.948141    
                                            1    3   -24.781414    
                                            0    4    20.919943    

 YDIPLEN      ZDIPLEN      YDIPLEN          0    0   0.67551272    
                                            2    0    12.839688    
                                            1    1    12.839688    
                                            0    2    3.8606810    
                                            4    0    110.35085    
                                            3    1    220.70171    
                                            2    2    218.81204    
                                            1    3    108.46119    
                                            0    4    20.919943    

 YDIPLEN      YDIPLEN      ZDIPLEN          0    0   0.67551272    
                                            2    0    3.8606810    
                                            1    1    12.839688    
                                            0    2    12.839688    
                                            4    0    20.919943    
                                            3    1    108.46119    
                                            2    2    218.81204    
                                            1    3    220.70171    
                                            0    4    110.35085    

 beta_{||}                                  0    0    10.755283    
                                            2    0    55.750373    
                                            1    1    55.750373    
                                            0    2    55.750373    
                                            4    0    241.03142    
                                            3    1    482.06285    
                                            2    2    723.09427    
                                            1    3    482.06285    
                                            0    4    241.03142    

 beta^K                                     0    0    10.755283    
                                            2    0    46.771366    
                                            1    1    73.708387    
                                            0    2    73.708387    
                                            4    0    151.60051    
                                            3    1    503.06493    
                                            2    2    922.95818    
                                            1    3    839.78650    
                                            0    4    419.89325    

 beta_{_|_}                                 0    0    3.5850943    
                                            2    0    24.569462    
                                            1    1    6.6114482    
                                            0    2    6.6114482    
                                            4    0    139.96442    
                                            3    1    146.68623    
                                            2    2    107.78882    
                                            1    3   -77.794814    
                                            0    4   -38.897407    

 beta_ms                                    0    0   -0.0000000    
                                            2    0    8.9790071    
                                            1    1   -17.958014    
                                            0    2   -17.958014    
                                            4    0    89.430912    
                                            3    1   -21.002079    
                                            2    2   -199.86390    
                                            1    3   -357.72365    
                                            0    4   -178.86182    
--------------------------------------------------------------------






 A operator   B operator   C operator       N    D^SHG           D^OR            D^EOPE
-------------------------------------------------------------------------------------------

 ZDIPLEN      ZDIPLEN      ZDIPLEN          0    16.574446       16.574446       16.574446    
                                            2    237.62976       79.209921       79.209921    
                                            4    2702.3269       300.25855       300.25855    

 ZDIPLEN      XDIPLEN      XDIPLEN          0   0.67551272      0.67551272      0.67551272    
                                            2    2.6030360       12.839688       3.8606810    
                                            4    11.225200       110.35085       20.919943    

 XDIPLEN      ZDIPLEN      XDIPLEN          0   0.67551272      0.67551272      0.67551272    
                                            2    29.540057       3.8606810       3.8606810    
                                            4    679.24574       20.919943       20.919943    

 XDIPLEN      XDIPLEN      ZDIPLEN          0   0.67551272      0.67551272      0.67551272    
                                            2    29.540057       3.8606810       12.839688    
                                            4    679.24574       20.919943       110.35085    

 ZDIPLEN      YDIPLEN      YDIPLEN          0   0.67551272      0.67551272      0.67551272    
                                            2    2.6030360       12.839688       3.8606810    
                                            4    11.225200       110.35085       20.919943    

 YDIPLEN      ZDIPLEN      YDIPLEN          0   0.67551272      0.67551272      0.67551272    
                                            2    29.540057       3.8606810       3.8606810    
                                            4    679.24574       20.919943       20.919943    

 YDIPLEN      YDIPLEN      ZDIPLEN          0   0.67551272      0.67551272      0.67551272    
                                            2    29.540057       3.8606810       12.839688    
                                            4    679.24574       20.919943       110.35085    

 beta_{||}                                  0    10.755283       10.755283       10.755283    
                                            2    167.25112       55.750373       55.750373    
                                            4    2169.2828       241.03142       241.03142    

 beta^K                                     0    10.755283       10.755283       10.755283    
                                            2    194.18814       46.771366       46.771366    
                                            4    2837.3034       151.60051       151.60051    

 beta_{_|_}                                 0    3.5850943       3.5850943       3.5850943    
                                            2    37.792359       24.569462       24.569462    
                                            4    277.74725       139.96442       139.96442    

 beta_ms                                    0   -0.0000000      -0.0000000      -0.0000000    
                                            2   -26.937021       8.9790071       8.9790071    
                                            4   -668.02054       89.430912       89.430912    
-------------------------------------------------------------------------------------------








 PROCESS INDEPENDENT COEFFICIENTS FOR beta_{||}:
-------------------------------------------------
 beta(0)   10.755283    
 A         2.5917669    
 B         5.6026287    
-------------------------------------------------





 PROCESS INDEPENDENT COEFFICIENTS FOR beta_ms:
-----------------------------------------------------------------------------------------------------
 A       0.83484621    
 B        4.1575341         B'     -0.70692736    
-----------------------------------------------------------------------------------------------------





>>> Total time used in quadratic response section:        0.03 seconds.


 CCR12 ANSATZ =   0

 CCR12 APPROX =   0

   

 *******************************************************************
 *                                                                 *
 *<<<<<<<<<<                                             >>>>>>>>>>*
 *<<<<<<<<<< OUTPUT FROM COUPLED CLUSTER ENERGY PROGRAM  >>>>>>>>>>*
 *<<<<<<<<<<                                             >>>>>>>>>>*
 *                                                                 *
 *******************************************************************


             The Direct Coupled Cluster Energy Program
             -----------------------------------------


          Number of t1 amplitudes                 :        34
          Number of t2 amplitudes                 :       848
          Total number of amplitudes in ccsd      :       882

 Iter.  1: Coupled cluster MP2   energy :    -100.1921479939414468
 Iter.  1: Coupled cluster CCSD  energy :    -100.1930120928021637
 Iter.  2: Coupled cluster CCSD  energy :    -100.1958482910929149
 Iter.  3: Coupled cluster CCSD  energy :    -100.1964818584529269
 Iter.  4: Coupled cluster CCSD  energy :    -100.1964842834622971
 Iter.  5: Coupled cluster CCSD  energy :    -100.1964803847563132
 Iter.  6: Coupled cluster CCSD  energy :    -100.1964787263451768
 Iter.  7: Coupled cluster CCSD  energy :    -100.1964777209557695
 Iter.  8: Coupled cluster CCSD  energy :    -100.1964777800108237
 Iter.  9: Coupled cluster CCSD  energy :    -100.1964777769903918

 CCSD  energy converged to within   0.10D-07 is         -100.196477776990
 Final 2-norm of the CC vector function:  4.29299990D-07





             +-------------------------------------------------------+
             ! Final results from the Coupled Cluster energy program !
             +-------------------------------------------------------+



            Total SCF   energy:                  -100.0089198959

            Total MP2   energy:                  -100.1921479939

            Total CCSD  energy:                  -100.1964777770




                   +--------------------------------------------+
                   ! Calculating singlet intermediates for CCLR !
                   +--------------------------------------------+



            E-intermediates calculated 
            Fock-intermediate calculated 
            Gamma-intermediate calculated 
            BF-intermediate calculated 
            C-intermediate calculated 
            D-intermediate calculated 


   

 *******************************************************************
 *                                                                 *
 *<<<<<<<<<<<<< OUTPUT FROM COUPLED CLUSTER RESPONSE  >>>>>>>>>>>>>*
 *                                                                 *
 *******************************************************************



                         +--------------------------------+
                         ! Coupled Cluster model is: CCSD !
                         +--------------------------------+

 RPA: call cceq_str
 RPA: exit cceq_str
  
     

   *******************************************************************
   *                                                                 *
   *<<<<<<<<   OUTPUT FROM PROPERTY AND SYMMETRY ANALYSIS   >>>>>>>>>*
   *                                                                 *
   *******************************************************************



                         +-------------------------------+
                         ! REQUESTED PROPERTY OPERATORS: !
                         +-------------------------------+

             Index   Oper. Label  Symmetry  Transp.  PDBS  Atom
             --------------------------------------------------
                1     HAM0            1        1      T      0
                2     XDIPLEN         1        1      F      0
                3     ZDIPLEN         1        1      F      0
                4     YDIPLEN         2        1      F      0
             --------------------------------------------------




                         +-------------------------------+
                         ! REQUESTED EXPECTATION VALUES: !
                         +-------------------------------+

                       Index   Oper. Label  Symmetry
                       -----------------------------
                       -----------------------------




                       +------------------------------------+
                       ! REQUESTED EFFECTIVE FOCK MATRICES: !
                       +------------------------------------+

                       Index   Oper. Label  Symmetry
                       -----------------------------
                       -----------------------------




                       +-----------------------------------+
                       ! REQUESTED FIRST ORDER XI VECTORS: !
                       +-----------------------------------+

             Index   Oper. Label  relaxed  Sym.     Frequency
             --------------------------------------------------
                1      XDIPLEN        F     1      0.000000D+00
                2      ZDIPLEN        F     1      0.000000D+00
                3      YDIPLEN        F     2      0.000000D+00
             --------------------------------------------------




                        +----------------------------------+
                        ! REQUESTED FIRST ORDER T VECTORS: !
                        +----------------------------------+

             Index   Oper. Label  relaxed  Sym.     Frequency
             --------------------------------------------------
                1      XDIPLEN        F     1      0.000000D+00
                2      ZDIPLEN        F     1     -0.000000D+00
                3      YDIPLEN        F     2      0.000000D+00
             --------------------------------------------------




                       +------------------------------------+
                       ! REQUESTED FIRST ORDER ETA VECTORS: !
                       +------------------------------------+

             Index   Oper. Label  relaxed  Sym.     Frequency
             --------------------------------------------------
                1      XDIPLEN        F     1      0.000000D+00
                2      ZDIPLEN        F     1      0.000000D+00
                3      YDIPLEN        F     2      0.000000D+00
             --------------------------------------------------




                      +-------------------------------------+
                      ! REQUESTED FIRST ORDER ZETA VECTORS: !
                      +-------------------------------------+

             Index   Oper. Label  relaxed  Sym.     Frequency
             --------------------------------------------------
                1      XDIPLEN        F     1      0.000000D+00
                2      ZDIPLEN        F     1     -0.000000D+00
                3      YDIPLEN        F     2      0.000000D+00
             --------------------------------------------------




                  +---------------------------------------------+
                  ! REQUESTED FIRST-ORDER RIGHT CAUCHY VECTORS: !
                  +---------------------------------------------+

               Index   Oper. Label  Symmetry  Cauchy Order
               --------------------------------------------------
                  1      XDIPLEN     1      1
                  2      ZDIPLEN     1      1
                  3      XDIPLEN     1      2
                  4      ZDIPLEN     1      2
                  5      XDIPLEN     1      3
                  6      ZDIPLEN     1      3
                  7      XDIPLEN     1      4
                  8      ZDIPLEN     1      4
                  9      YDIPLEN     2      1
                 10      YDIPLEN     2      2
                 11      YDIPLEN     2      3
                 12      YDIPLEN     2      4
               --------------------------------------------------




                   +--------------------------------------------+
                   ! REQUESTED FIRST-ORDER LEFT CAUCHY VECTORS: !
                   +--------------------------------------------+

               Index   Oper. Label  Symmetry  Cauchy Order
               --------------------------------------------------
                  1      XDIPLEN     1      1
                  2      ZDIPLEN     1      1
                  3      XDIPLEN     1      2
                  4      ZDIPLEN     1      2
                  5      XDIPLEN     1      3
                  6      ZDIPLEN     1      3
                  7      XDIPLEN     1      4
                  8      ZDIPLEN     1      4
                  9      YDIPLEN     2      1
                 10      YDIPLEN     2      2
                 11      YDIPLEN     2      3
                 12      YDIPLEN     2      4
               --------------------------------------------------


      

    *******************************************************************
    *          SOLVING COUPLED CLUSTER RESPONSE EQUATIONS             *
    *******************************************************************



 
 +======================================================================+
 !                     RHS & ETA VECTORS TO COMPUTE:                    !
 +======================================================================+
 | TYPE | # VEC. |  NEEDED FOR:                                         |
 +----------------------------------------------------------------------+
 |  O1  |    3   |  first-order amplitude equations                     |
 |  X1  |    3   |  first-order multipliers equations                   |
 +======================================================================+



 +======================================================================+
 !                       LINEAR EQUATIONS TO SOLVE:                     !
 +======================================================================+
 | TYPE | # VEC. |  EQUATION:                                           |
 +----------------------------------------------------------------------+
 |  R1  |    3   |  first-order amplitude response                      |
 |  L1  |    3   |  first-order multiplier response                     |
 |  RC  |   12   |  first-order right Cauchy vectors                    |
 |  LC  |   12   |  first-order left Cauchy vectors                     |
 +======================================================================+



 +======================================================================+
 !                F MATRIX TRANSFORMATIONS TO COMPUTE:                  !
 +======================================================================+
 | TYPE | # VEC. |  TRANSFORMED:                                        |
 +----------------------------------------------------------------------+
 |  F1  |    3   |  first-order amplitude response (R1) vector          |
 |  FC  |   12   |  first-order right Cauchy (RC) vector                |
 +======================================================================+




 -------------------------------------------------------------------
 |          OUTPUT FROM AMPLITUDE RHS VECTOR SECTION               |
 -------------------------------------------------------------------



   For the requested  3 1th.-order amplitude rhs vectors "O1 ".
         -   0 D matrix transformations 
         -   0 C matrix transformations 
         -   0 B matrix transformations 
         -   0 C{O} matrix transformations 
         -   0 B{O} matrix transformations 
         -   0 A{O} matrix transformations 
         -   3Xi{O} vector calculations    
   will be performed.


 RPA: call cceq_str
 RPA: exit cceq_str
 RPA: call cceq_str
 RPA: exit cceq_str
 RPA: call cceq_str
 RPA: exit cceq_str
 RPA: call cceq_str
 RPA: exit cceq_str
 RPA: call cceq_str
 RPA: exit cceq_str
 RPA: call cceq_str
 RPA: exit cceq_str
 RPA: call cceq_str
 RPA: exit cceq_str
 RPA: call cceq_str
 RPA: exit cceq_str
 RPA: call cceq_str
 RPA: exit cceq_str
 RPA: call cceq_str
 RPA: exit cceq_str
 RPA: call cceq_str
 RPA: exit cceq_str
 RPA: call cceq_str
 RPA: exit cceq_str
 RPA: call cceq_str
 RPA: exit cceq_str
 RPA: call cceq_str
 RPA: exit cceq_str
 RPA: call cceq_str
 RPA: exit cceq_str
 RPA: call cceq_str
 RPA: exit cceq_str
 RPA: call cceq_str
 RPA: exit cceq_str
 RPA: call cceq_str
 RPA: exit cceq_str
 RPA: call cceq_str
 RPA: exit cceq_str
 RPA: call cceq_str
 RPA: exit cceq_str

 Solution of CC response equations completed.


 *******************************************************************
 *                                                                 *
 *<<<<<<<< OUTPUT FROM COUPLED CLUSTER QUADRATIC RESPONSE >>>>>>>>>*
 *                                                                 *
 *<<<<<<<<     CALCULATION OF CC HYPERPOLARIZABILITIES    >>>>>>>>>*
 *                                                                 *
 *******************************************************************



   For the requested  7 quadratic response functions 
         -   3 G matrix transformations 
         -   5 B matrix transformations 
         -   0 K matrix transformations 
         -   0 F matrix transformations 
         -   5 F{O} matrix transformations 
         -   7 ETA{O} vector calculations 
         -   0 Xksi{O2} x L1 and Eta{O2} x R1 dot products
         -   0 X1 x R2 dot products 
   will be performed.


 +--------------------------------------------------+
 | total time for   3 G transforms.:      0.01 secs.|
 +==================================================+



>>> Time used for    3 G matrix transformations:        0.01 seconds.
 +--------------------------------------------------+
 | total time for   5 B transforms.:      0.02 secs.|
 +==================================================+



>>> Time used for    5 B matrix transformations:        0.02 seconds.

>>> Time used for    5 F{O} matrix transform.:          0.00 seconds.

>>> Time used for    7 ETA{O} vector calculat.:         0.00 seconds.

>>> Time used for    0 Xksi{O} and Eta{O2} vector calculat.:         0.00 seconds.

>>> Total time for   7 quadratic response func.:        0.04 seconds.


                 +---------------------------------------------------------------------------------------+
                 !                FINAL CCSD RESULTS FOR THE FIRST HYPERPOLARIZABILITIES                 !
                 +---------------------------------------------------------------------------------------+


  A operator                  B operator                  C operator                     property 
------------------------------------------------------------------------------------------------------

 ZDIPLEN  (unrel.) -0.0000   ZDIPLEN  (unrel.)  0.0000   ZDIPLEN  (unrel.)  0.0000      15.382999    

 ZDIPLEN  (unrel.) -0.0000   XDIPLEN  (unrel.)  0.0000   XDIPLEN  (unrel.)  0.0000     0.90284847    

 XDIPLEN  (unrel.) -0.0000   ZDIPLEN  (unrel.)  0.0000   XDIPLEN  (unrel.)  0.0000     0.90284847    

 XDIPLEN  (unrel.) -0.0000   XDIPLEN  (unrel.)  0.0000   ZDIPLEN  (unrel.)  0.0000     0.90284847    

 ZDIPLEN  (unrel.) -0.0000   YDIPLEN  (unrel.)  0.0000   YDIPLEN  (unrel.)  0.0000     0.90284847    

 YDIPLEN  (unrel.) -0.0000   ZDIPLEN  (unrel.)  0.0000   YDIPLEN  (unrel.)  0.0000     0.90284847    

 YDIPLEN  (unrel.) -0.0000   YDIPLEN  (unrel.)  0.0000   ZDIPLEN  (unrel.)  0.0000     0.90284847    





  average         frequencies
-------------------------------------------------------

  beta_||   -0.0000   0.0000   0.0000     10.313217    

  beta^K    -0.0000   0.0000   0.0000     10.313217    

  beta_|_   -0.0000   0.0000   0.0000     3.4377391    

  beta_ms   -0.0000   0.0000   0.0000     0.0000000    


------------------------------------------------------------------------------------------------------





   For the requested 154 expansion coefficients for quadratic response functions
         -  22 G matrix transformations 
         -  57 B matrix transformations 
         -   0 F matrix transformations 
         -  19 F{O} matrix transformations 
         -  35 ETA{O} vector calculations 
         -   0 XC x CR2 dot products 
   will be performed.


 +--------------------------------------------------+
 | total time for  22 G transforms.:      0.07 secs.|
 +==================================================+



>>> Time used for   22 G matrix transformations:        0.07 seconds.
 +--------------------------------------------------+
 | total time for  57 B transforms.:      0.19 secs.|
 +==================================================+



>>> Time used for   57 B matrix transformations:        0.19 seconds.

>>> Time used for   19 F{O} matrix transform.:          0.01 seconds.

>>> Time used for   35 ETA{O} vector calculat.:         0.01 seconds.

>>> Total time for 245 expansion coeffients:            0.28 seconds.


              +-----------------------------------------------------+
              !      FINAL CCSD RESULTS FOR DISPERSION COEFFICIENTS !
              +-----------------------------------------------------+


 A operator   B operator   C operator       N    M    D_ABC
--------------------------------------------------------------------

 ZDIPLEN      ZDIPLEN      ZDIPLEN          0    0    15.382999    
                                            2    0    82.954584    
                                            1    1    82.954584    
                                            0    2    82.954584    
                                            4    0    348.74190    
                                            3    1    697.48381    
                                            2    2    1046.2257    
                                            1    3    697.48381    
                                            0    4    348.74190    

 ZDIPLEN      XDIPLEN      XDIPLEN          0    0   0.90284847    
                                            2    0    6.4389592    
                                            1    1   -6.6436555    
                                            0    2    6.4389592    
                                            4    0    41.952501    
                                            3    1   -35.795644    
                                            2    2    45.672233    
                                            1    3   -35.795644    
                                            0    4    41.952501    

 XDIPLEN      ZDIPLEN      XDIPLEN          0    0   0.90284847    
                                            2    0    19.521574    
                                            1    1    19.521574    
                                            0    2    6.4389592    
                                            4    0    201.16852    
                                            3    1    402.33705    
                                            2    2    404.77417    
                                            1    3    203.60565    
                                            0    4    41.952501    

 XDIPLEN      XDIPLEN      ZDIPLEN          0    0   0.90284847    
                                            2    0    6.4389592    
                                            1    1    19.521574    
                                            0    2    19.521574    
                                            4    0    41.952501    
                                            3    1    203.60565    
                                            2    2    404.77417    
                                            1    3    402.33705    
                                            0    4    201.16852    

 ZDIPLEN      YDIPLEN      YDIPLEN          0    0   0.90284847    
                                            2    0    6.4389592    
                                            1    1   -6.6436555    
                                            0    2    6.4389592    
                                            4    0    41.952501    
                                            3    1   -35.795644    
                                            2    2    45.672233    
                                            1    3   -35.795644    
                                            0    4    41.952501    

 YDIPLEN      ZDIPLEN      YDIPLEN          0    0   0.90284847    
                                            2    0    19.521574    
                                            1    1    19.521574    
                                            0    2    6.4389592    
                                            4    0    201.16852    
                                            3    1    402.33705    
                                            2    2    404.77417    
                                            1    3    203.60565    
                                            0    4    41.952501    

 YDIPLEN      YDIPLEN      ZDIPLEN          0    0   0.90284847    
                                            2    0    6.4389592    
                                            1    1    19.521574    
                                            0    2    19.521574    
                                            4    0    41.952501    
                                            3    1    203.60565    
                                            2    2    404.77417    
                                            1    3    402.33705    
                                            0    4    201.16852    

 beta_{||}                                  0    0    10.313217    
                                            2    0    62.732547    
                                            1    1    62.732547    
                                            0    2    62.732547    
                                            4    0    323.27455    
                                            3    1    646.54910    
                                            2    2    969.82366    
                                            1    3    646.54910    
                                            0    4    323.27455    

 beta^K                                     0    0    10.313217    
                                            2    0    49.649932    
                                            1    1    88.897776    
                                            0    2    88.897776    
                                            4    0    164.05853    
                                            3    1    687.21900    
                                            2    2    1328.9256    
                                            1    3    1283.4132    
                                            0    4    641.70660    

 beta_{_|_}                                 0    0    3.4377391    
                                            2    0    29.632592    
                                            1    1    3.4673628    
                                            0    2    3.4673628    
                                            4    0    213.90220    
                                            3    1    188.40311    
                                            2    2    83.873260    
                                            1    3   -209.05969    
                                            0    4   -104.52985    

 beta_ms                                    0    0   0.16653345E-15
                                            2    0    13.082615    
                                            1    1   -26.165229    
                                            0    2   -26.165229    
                                            4    0    159.21602    
                                            3    1   -40.669893    
                                            2    2   -359.10194    
                                            1    3   -636.86409    
                                            0    4   -318.43204    
--------------------------------------------------------------------






 A operator   B operator   C operator       N    D^SHG           D^OR            D^EOPE
-------------------------------------------------------------------------------------------

 ZDIPLEN      ZDIPLEN      ZDIPLEN          0    15.382999       15.382999       15.382999    
                                            2    248.86375       82.954584       82.954584    
                                            4    3138.6771       348.74190       348.74190    

 ZDIPLEN      XDIPLEN      XDIPLEN          0   0.90284847      0.90284847      0.90284847    
                                            2    6.2342629       19.521574       6.4389592    
                                            4    57.985947       201.16852       41.952501    

 XDIPLEN      ZDIPLEN      XDIPLEN          0   0.90284847      0.90284847      0.90284847    
                                            2    45.482107       6.4389592       6.4389592    
                                            4    1253.8379       41.952501       41.952501    

 XDIPLEN      XDIPLEN      ZDIPLEN          0   0.90284847      0.90284847      0.90284847    
                                            2    45.482107       6.4389592       19.521574    
                                            4    1253.8379       41.952501       201.16852    

 ZDIPLEN      YDIPLEN      YDIPLEN          0   0.90284847      0.90284847      0.90284847    
                                            2    6.2342629       19.521574       6.4389592    
                                            4    57.985947       201.16852       41.952501    

 YDIPLEN      ZDIPLEN      YDIPLEN          0   0.90284847      0.90284847      0.90284847    
                                            2    45.482107       6.4389592       6.4389592    
                                            4    1253.8379       41.952501       41.952501    

 YDIPLEN      YDIPLEN      ZDIPLEN          0   0.90284847      0.90284847      0.90284847    
                                            2    45.482107       6.4389592       19.521574    
                                            4    1253.8379       41.952501       201.16852    

 beta_{||}                                  0    10.313217       10.313217       10.313217    
                                            2    188.19764       62.732547       62.732547    
                                            4    2909.4710       323.27455       323.27455    

 beta^K                                     0    10.313217       10.313217       10.313217    
                                            2    227.44549       49.649932       49.649932    
                                            4    4105.3229       164.05853       164.05853    

 beta_{_|_}                                 0    3.4377391       3.4377391       3.4377391    
                                            2    36.567318       29.632592       29.632592    
                                            4    172.58903       213.90220       213.90220    

 beta_ms                                    0   0.16653345E-15  0.16653345E-15  0.16653345E-15
                                            2   -39.247844       13.082615       13.082615    
                                            4   -1195.8519       159.21602       159.21602    
-------------------------------------------------------------------------------------------








 PROCESS INDEPENDENT COEFFICIENTS FOR beta_{||}:
-------------------------------------------------
 beta(0)   10.313217    
 A         3.0413665    
 B         7.8364138    
-------------------------------------------------





 PROCESS INDEPENDENT COEFFICIENTS FOR beta_ms:
-----------------------------------------------------------------------------------------------------
 A        1.2685289    
 B        7.7190278         B'      -1.2771759    
-----------------------------------------------------------------------------------------------------





>>> Total time used in quadratic response section:        0.32 seconds.
  

 *******************************************************************************
 *******************************************************************************
 *                                                                             *
 *                                                                             *
 *                   SUMMARY OF COUPLED CLUSTER CALCULATION                    *
 *                                                                             *
 *                                                                             *
 *******************************************************************************
 *******************************************************************************

                                                                                
            Total SCF   energy:                  -100.0089198959                
                                                                                
                                                                                
            Total SCF   energy:                  -100.0089198959                
            Total MP2   energy:                  -100.1921479939                
            Total CCSD  energy:                  -100.1964777770                
  

 *******************************************************************************
 *******************************************************************************
 *                                                                             *
 *                                                                             *
 *                      END OF COUPLED CLUSTER CALCULATION                     *
 *                                                                             *
 *                                                                             *
 *******************************************************************************
 *******************************************************************************


 >>>> CPU and wall time for CC :       2.816       4.658

 
     Date and time (Linux)  : Sun Sep  8 20:42:12 2013
     Host name              : lpqlx131.ups-tlse.fr                    


                      .-------------------------------------.
                      | End of Coupled Cluster Section (CC) |
                      `-------------------------------------'

 >>>> Total CPU  time used in DALTON:   2.84 seconds
 >>>> Total wall time used in DALTON:   4.69 seconds

 
     Date and time (Linux)  : Sun Sep  8 20:42:12 2013
     Host name              : lpqlx131.ups-tlse.fr                    
