

     ************************************************************************
     *************** Dalton - An Electronic Structure Program ***************
     ************************************************************************

    This is output from DALTON (Release Dalton2013 patch 0)
   ----------------------------------------------------------------------------
    NOTE:
     
    Dalton is an experimental code for the evaluation of molecular
    properties using (MC)SCF, DFT, CI, and CC wave functions.
    The authors accept no responsibility for the performance of
    the code or for the correctness of the results.
     
    The code (in whole or part) is provided under a licence and
    is not to be reproduced for further distribution without
    the written permission of the authors or their representatives.
     
    See the home page "http://daltonprogram.org" for further information.
     
    If results obtained with this code are published,
    the appropriate citations would be both of:
     
       K. Aidas, C. Angeli, K. L. Bak, V. Bakken, R. Bast,
       L. Boman, O. Christiansen, R. Cimiraglia, S. Coriani,
       P. Dahle, E. K. Dalskov, U. Ekstroem, T. Enevoldsen,
       J. J. Eriksen, P. Ettenhuber, B. Fernandez, L. Ferrighi,
       H. Fliegl, L. Frediani, K. Hald, A. Halkier, C. Haettig,
       H. Heiberg, T. Helgaker, A. C. Hennum, H. Hettema,
       E. Hjertenaes, S. Hoest, I.-M. Hoeyvik, M. F. Iozzi,
       B. Jansik, H. J. Aa. Jensen, D. Jonsson, P. Joergensen,
       J. Kauczor, S. Kirpekar, T. Kjaergaard, W. Klopper,
       S. Knecht, R. Kobayashi, H. Koch, J. Kongsted, A. Krapp,
       K. Kristensen, A. Ligabue, O. B. Lutnaes, J. I. Melo,
       K. V. Mikkelsen, R. H. Myhre, C. Neiss, C. B. Nielsen,
       P. Norman, J. Olsen, J. M. H. Olsen, A. Osted,
       M. J. Packer, F. Pawlowski, T. B. Pedersen, P. F. Provasi,
       S. Reine, Z. Rinkevicius, T. A. Ruden, K. Ruud, V. Rybkin,
       P. Salek, C. C. M. Samson, A. Sanchez de Meras, T. Saue,
       S. P. A. Sauer, B. Schimmelpfennig, K. Sneskov,
       A. H. Steindal, K. O. Sylvester-Hvid, P. R. Taylor,
       A. M. Teale, E. I. Tellgren, D. P. Tew, A. J. Thorvaldsen,
       L. Thoegersen, O. Vahtras, M. A. Watson, D. J. D. Wilson,
       M. Ziolkowski and H. Agren.
       The Dalton quantum chemistry program system.
       WIREs Comput. Mol. Sci. 2013. doi: 10.1002/wcms.1172
    
    and
    
       Dalton, a Molecular Electronic Structure Program,
       Release DALTON2013.0 (2013), see http://daltonprogram.org
   ----------------------------------------------------------------------------

    Authors in alphabetical order (major contribution(s) in parenthesis):

  Kestutis Aidas,           Vilnius University,           Lithuania   (QM/MM)
  Celestino Angeli,         University of Ferrara,        Italy       (NEVPT2)
  Keld L. Bak,              UNI-C,                        Denmark     (AOSOPPA, non-adiabatic coupling, magnetic properties)
  Vebjoern Bakken,          University of Oslo,           Norway      (DALTON; geometry optimizer, symmetry detection)
  Radovan Bast,             KTH Stockholm                 Sweden      (DALTON installation and execution frameworks)
  Linus Boman,              NTNU,                         Norway      (Cholesky decomposition and subsystems)
  Ove Christiansen,         Aarhus University,            Denmark     (CC module)
  Renzo Cimiraglia,         University of Ferrara,        Italy       (NEVPT2)
  Sonia Coriani,            University of Trieste,        Italy       (CC module, MCD in RESPONS)
  Paal Dahle,               University of Oslo,           Norway      (Parallelization)
  Erik K. Dalskov,          UNI-C,                        Denmark     (SOPPA)
  Thomas Enevoldsen,        Univ. of Southern Denmark,    Denmark     (SOPPA)
  Janus J. Eriksen,         Aarhus University,            Denmark     (PE-MP2/SOPPA, TDA)
  Berta Fernandez,          U. of Santiago de Compostela, Spain       (doublet spin, ESR in RESPONS)
  Lara Ferrighi,            Aarhus University,            Denmark     (PCM Cubic response)
  Heike Fliegl,             University of Oslo,           Norway      (CCSD(R12))
  Luca Frediani,            UiT The Arctic U. of Norway,  Norway      (PCM)
  Bin Gao,                  UiT The Arctic U. of Norway,  Norway      (Gen1Int library)
  Christof Haettig,         Ruhr-University Bochum,       Germany     (CC module)
  Kasper Hald,              Aarhus University,            Denmark     (CC module)
  Asger Halkier,            Aarhus University,            Denmark     (CC module)
  Hanne Heiberg,            University of Oslo,           Norway      (geometry analysis, selected one-electron integrals)
  Trygve Helgaker,          University of Oslo,           Norway      (DALTON; ABACUS, ERI, DFT modules, London, and much more)
  Alf Christian Hennum,     University of Oslo,           Norway      (Parity violation)
  Hinne Hettema,            University of Auckland,       New Zealand (quadratic response in RESPONS; SIRIUS supersymmetry)
  Eirik Hjertenaes,         NTNU,                         Norway      (Cholesky decomposition)
  Maria Francesca Iozzi,    University of Oslo,           Norway      (RPA)
  Brano Jansik              Technical Univ. of Ostrava    Czech Rep.  (DFT cubic response)
  Hans Joergen Aa. Jensen,  Univ. of Southern Denmark,    Denmark     (DALTON; SIRIUS, RESPONS, ABACUS modules, London, and much more)
  Dan Jonsson,              UiT The Arctic U. of Norway,  Norway      (cubic response in RESPONS module)
  Poul Joergensen,          Aarhus University,            Denmark     (RESPONS, ABACUS, and CC modules)
  Joanna Kauczor,           Linkoeping University,        Sweden      (Complex polarization propagator (CPP) module)
  Sheela Kirpekar,          Univ. of Southern Denmark,    Denmark     (Mass-velocity & Darwin integrals)
  Wim Klopper,              KIT Karlsruhe,                Germany     (R12 code in CC, SIRIUS, and ABACUS modules)
  Stefan Knecht,            ETH Zurich,                   Switzerland (Parallel CI and MCSCF)
  Rika Kobayashi,           Australian National Univ.,    Australia   (DIIS in CC, London in MCSCF)
  Henrik Koch,              NTNU,                         Norway      (CC module, Cholesky decomposition)
  Jacob Kongsted,           Univ. of Southern Denmark,    Denmark     (Polarizable embedding, QM/MM)
  Andrea Ligabue,           University of Modena,         Italy       (CTOCD, AOSOPPA)
  Ola B. Lutnaes,           University of Oslo,           Norway      (DFT Hessian)
  Juan I. Melo,             University of Buenos Aires,   Argentina   (LRESC, Relativistic Effects on NMR Shieldings)
  Kurt V. Mikkelsen,        University of Copenhagen,     Denmark     (MC-SCRF and QM/MM)
  Rolf H. Myhre,            NTNU,                         Norway      (Cholesky, subsystems and ECC2)
  Christian Neiss,          Univ. Erlangen-Nuernberg,     Germany     (CCSD(R12))
  Christian B. Nielsen,     University of Copenhagen,     Denmark     (QM/MM)
  Patrick Norman,           Linkoeping University,        Sweden      (Cubic response and complex response in RESPONS)
  Jeppe Olsen,              Aarhus University,            Denmark     (SIRIUS CI/density modules)
  Jogvan Magnus H. Olsen,   Univ. of Southern Denmark,    Denmark     (Polarizable embedding, PE library, QM/MM)
  Anders Osted,             Copenhagen University,        Denmark     (QM/MM)
  Martin J. Packer,         University of Sheffield,      UK          (SOPPA)
  Filip Pawlowski,          Kazimierz Wielki University   Poland      (CC3)
  Thomas B. Pedersen,       University of Oslo,           Norway      (Cholesky decomposition)
  Patricio F. Provasi,      University of Northeastern,   Argentina   (Analysis of coupling constants in localized orbitals)
  Zilvinas Rinkevicius,     KTH Stockholm,                Sweden      (open-shell DFT, ESR)
  Elias Rudberg,            KTH Stockholm,                Sweden      (DFT grid and basis info)
  Torgeir A. Ruden,         University of Oslo,           Norway      (Numerical derivatives in ABACUS)
  Kenneth Ruud,             UiT The Arctic U. of Norway,  Norway      (DALTON; ABACUS magnetic properties and  much more)
  Pawel Salek,              KTH Stockholm,                Sweden      (DALTON; DFT code)
  Claire C. M. Samson       University of Karlsruhe       Germany     (Boys localization, r12 integrals in ERI)
  Alfredo Sanchez de Meras, University of Valencia,       Spain       (CC module, Cholesky decomposition)
  Trond Saue,               Paul Sabatier University,     France      (direct Fock matrix construction)
  Stephan P. A. Sauer,      University of Copenhagen,     Denmark     (SOPPA(CCSD), SOPPA prop., AOSOPPA, vibrational g-factors)
  Bernd Schimmelpfennig,    Forschungszentrum Karlsruhe,  Germany     (AMFI module)
  Kristian Sneskov,         Aarhus University,            Denmark     (QM/MM, PE-CC)
  Arnfinn H. Steindal,      UiT The Arctic U. of Norway,  Norway      (parallel QM/MM)
  K. O. Sylvester-Hvid,     University of Copenhagen,     Denmark     (MC-SCRF)
  Peter R. Taylor,          VLSCI/Univ. of Melbourne,     Australia   (Symmetry handling ABACUS, integral transformation)
  Andrew M. Teale,          University of Nottingham,     England     (DFT-AC, DFT-D)
  David P. Tew,             University of Bristol,        England     (CCSD(R12))
  Olav Vahtras,             KTH Stockholm,                Sweden      (triplet response, spin-orbit, ESR, TDDFT, open-shell DFT)
  David J. Wilson,          La Trobe University,          Australia   (DFT Hessian and DFT magnetizabilities)
  Hans Agren,               KTH Stockholm,                Sweden      (SIRIUS module, RESPONS, MC-SCRF solvation model)
 --------------------------------------------------------------------------------

     Date and time (Linux)  : Sun Sep  8 20:42:39 2013
     Host name              : lpqlx131.ups-tlse.fr                    

 * Work memory size             :    64000000 =  488.28 megabytes.

 * Directories for basis set searches:
   1) /home/bast/DALTON-2013.0-Source/build/test_cc_rsp_lanczos_alpha
   2) /home/bast/DALTON-2013.0-Source/build/basis


Compilation information
-----------------------

 Who compiled             | bast
 Host                     | lpqlx131.ups-tlse.fr
 System                   | Linux-3.8.5-201.fc18.x86_64
 CMake generator          | Unix Makefiles
 Processor                | x86_64
 64-bit integers          | OFF
 MPI                      | OFF
 Fortran compiler         | /usr/bin/gfortran
 Fortran compiler version | GNU Fortran (GCC) 4.7.2 20121109 (Red Hat 4.7.2-8)
 C compiler               | /usr/bin/gcc
 C compiler version       | gcc (GCC) 4.7.2 20121109 (Red Hat 4.7.2-8)
 C++ compiler             | /usr/bin/g++
 C++ compiler version     | g++ (GCC) 4.7.2 20121109 (Red Hat 4.7.2-8)
 Static linking           | OFF
 Last Git revision        | f34203295a86316e27f9e7b44f9b6769c4a046c0
 Configuration time       | 2013-09-08 20:31:27.952056


   Content of the .dal input file
 ----------------------------------

**DALTON INPUT                                    
.RUN WAVE FUNCTIONS                               
**INTEGRAL                                        
.DIPLEN                                           
**WAVE FUNCTIONS                                  
.TITLE                                            
  Lanczos cmplx dipole-dipole polarizability with 
  (coupled cluster damped linear response function
.CC                                               
*SCF INPUT                                        
.THRESH                                           
 1.0d-12                                          
*CC INPUT                                         
.CCSD                                             
.PRINT                                            
 1                                                
.THRENR                                           
 1.0d-10                                          
.THRLEQ                                           
 1.0d-8                                           
*CCLRLANCZOS                                      
.CHAINLENGTH                                      
1310                                              
.OPERATOR                                         
XDIPLEN XDIPLEN                                   
.DAMPING                                          
  1                                               
0.004556                                          
.FREQ INTERVAL                                    
0.0 0.2 0.1                                       
**END OF DALTON INPUT                             


   Content of the .mol file
 ----------------------------

ATOMBASIS                                                                      
H2O, Lanczos spectrum                                                          
using 3-21G                                                                    
ATOMTYPES=2 Generators=2 X Z                                                   
    8.0    1    basis=3-21G                                                    
O     0.000000      0.000000      0.000000                                     
    1.0    1    basis=3-21G                                                    
H     1.429937284000 -1.1071751130000000 0.0                                   


       *******************************************************************
       *********** Output from DALTON general input processing ***********
       *******************************************************************

 --------------------------------------------------------------------------------
   Overall default print level:    0
   Print level for DALTON.STAT:    1

    HERMIT 1- and 2-electron integral sections will be executed
    "Old" integral transformation used (limited to max 255 basis functions)
    Wave function sections will be executed (SIRIUS module)
 --------------------------------------------------------------------------------


   ****************************************************************************
   *************** Output of molecule and basis set information ***************
   ****************************************************************************


    The two title cards from your ".mol" input:
    ------------------------------------------------------------------------
 1: H2O, Lanczos spectrum                                                   
 2: using 3-21G                                                             
    ------------------------------------------------------------------------

  Atomic type no.    1
  --------------------
  Nuclear charge:   8.00000
  Number of symmetry independent centers:    1
  Number of basis sets to read;    2
  The basis set is "3-21G" from the basis set library.
  Basis set file used for this atomic type with Z =   8 :
     "/home/bast/DALTON-2013.0-Source/build/basis/3-21G"

  Info about the basis set file: your basis has no documentation.
  Basis set: 3-21G                                                                           

  Atomic type no.    2
  --------------------
  Nuclear charge:   1.00000
  Number of symmetry independent centers:    1
  Number of basis sets to read;    2
  The basis set is "3-21G" from the basis set library.
  Basis set file used for this atomic type with Z =   1 :
     "/home/bast/DALTON-2013.0-Source/build/basis/3-21G"

  Info about the basis set file: your basis has no documentation.
  Basis set: 3-21G                                                                           


                         SYMGRP: Point group information
                         -------------------------------

Point group: C2v

   * The point group was generated by:

      Reflection in the yz-plane
      Reflection in the xy-plane

   * Group multiplication table

        |  E   C2y  Oxy  Oyz
   -----+--------------------
     E  |  E   C2y  Oxy  Oyz
    C2y | C2y   E   Oyz  Oxy
    Oxy | Oxy  Oyz   E   C2y
    Oyz | Oyz  Oxy  C2y   E 

   * Character table

        |  E   C2y  Oxy  Oyz
   -----+--------------------
    A1  |   1    1    1    1
    B2  |   1   -1    1   -1
    B1  |   1   -1   -1    1
    A2  |   1    1   -1   -1

   * Direct product table

        | A1   B2   B1   A2 
   -----+--------------------
    A1  | A1   B2   B1   A2 
    B2  | B2   A1   A2   B1 
    B1  | B1   A2   A1   B2 
    A2  | A2   B1   B2   A1 


                                 Isotopic Masses
                                 ---------------

                           O          15.994915
                           H   _1      1.007825
                           H   _2      1.007825

                       Total mass:    18.010565 amu
                       Natural abundance:  99.730 %

 Center-of-mass coordinates (a.u.):    0.000000   -0.123909    0.000000


  Atoms and basis sets
  --------------------

  Number of atom types :    2
  Total number of atoms:    3

  label    atoms   charge   prim   cont     basis
  ----------------------------------------------------------------------
  O           1    8.0000    15     9      [6s3p|3s2p]                                        
  H           2    1.0000     3     2      [3s|2s]                                            
  ----------------------------------------------------------------------
  total:      3   10.0000    21    13
  ----------------------------------------------------------------------

  Threshold for neglecting AO integrals:  1.00D-12


  Cartesian Coordinates (a.u.)
  ----------------------------

  Total number of coordinates:    9
  O       :     1  x   0.0000000000    2  y   0.0000000000    3  z   0.0000000000
  H   / 1 :     4  x   1.4299372840    5  y  -1.1071751130    6  z   0.0000000000
  H   / 2 :     7  x  -1.4299372840    8  y  -1.1071751130    9  z   0.0000000000


  Symmetry Coordinates
  --------------------

  Number of coordinates in each symmetry:     3    3    2    1

  Symmetry  A1  ( 1)

    1   O     y    2
    2   H     x    [  4  -    7 ]/2
    3   H     y    [  5  +    8 ]/2

  Symmetry  B2  ( 2)

    4   O     x    1
    5   H     x    [  4  +    7 ]/2
    6   H     y    [  5  -    8 ]/2

  Symmetry  B1  ( 3)

    7   O     z    3
    8   H     z    [  6  +    9 ]/2

  Symmetry  A2  ( 4)

    9   H     z    [  6  -    9 ]/2


   Interatomic separations (in Angstrom):
   --------------------------------------

            O           H   _1      H   _2
            ------      ------      ------
 O     :    0.000000
 H   _1:    0.957000    0.000000
 H   _2:    0.957000    1.513380    0.000000


  Max    interatomic separation is    1.5134 Angstrom (    2.8599 Bohr)
  between atoms    3 and    2, "H   _2" and "H   _1".

  Min HX interatomic separation is    0.9570 Angstrom (    1.8085 Bohr)


  Bond distances (Angstrom):
  --------------------------

                  atom 1     atom 2       distance
                  ------     ------       --------
  bond distance:  H   _1     O            0.957000
  bond distance:  H   _2     O            0.957000


  Bond angles (degrees):
  ----------------------

                  atom 1     atom 2     atom 3         angle
                  ------     ------     ------         -----
  bond angle:     H   _1     O          H   _2       104.500




 Principal moments of inertia (u*A**2) and principal axes
 --------------------------------------------------------

   IA       0.614476          1.000000    0.000000    0.000000
   IB       1.154121          0.000000    1.000000    0.000000
   IC       1.768597          0.000000    0.000000    1.000000


 Rotational constants
 --------------------

 The molecule is planar.

               A                   B                   C

         822455.8206         437890.8074         285751.4237 MHz
           27.434173           14.606465            9.531642 cm-1


@  Nuclear repulsion energy :    9.196931932729 Hartree


  Symmetry Orbitals
  -----------------

  Number of orbitals in each symmetry:           7    4    2    0


  Symmetry  A1 ( 1)

    1     O        1s         1
    2     O        1s         2
    3     O        1s         3
    4     O        2py        5
    5     O        2py        8
    6     H        1s        10 +   11
    7     H        1s        12 +   13


  Symmetry  B2 ( 2)

    8     O        2px        4
    9     O        2px        7
   10     H        1s        10 -   11
   11     H        1s        12 -   13


  Symmetry  B1 ( 3)

   12     O        2pz        6
   13     O        2pz        9


  No orbitals in symmetry  A2 ( 4)

  Symmetries of electric field:  B2 (2)  A1 (1)  B1 (3)

  Symmetries of magnetic field:  B1 (3)  A2 (4)  B2 (2)


                     .---------------------------------------.
                     | Starting in Integral Section (HERMIT) |
                     `---------------------------------------'



    *************************************************************************
    ****************** Output from HERMIT input processing ******************
    *************************************************************************


 Default print level:        1

 * Nuclear model: Point charge

 Calculation of one- and two-electron Hamiltonian integrals.

 The following one-electron property integrals are calculated as requested:
          - overlap integrals
          - dipole length integrals

 Center of mass  (bohr):      0.000000000000     -0.123909356343      0.000000000000
 Operator center (bohr):      0.000000000000      0.000000000000      0.000000000000
 Gauge origin    (bohr):      0.000000000000      0.000000000000      0.000000000000
 Dipole origin   (bohr):      0.000000000000      0.000000000000      0.000000000000


     ************************************************************************
     ************************** Output from HERINT **************************
     ************************************************************************


 Threshold for neglecting two-electron integrals:  1.00D-12
 Number of two-electron integrals written:        1270 ( 30.3% )
 Megabytes written:                              0.021

 >>>> Total CPU  time used in HERMIT:   0.00 seconds
 >>>> Total wall time used in HERMIT:   0.00 seconds


                        .----------------------------------.
                        | End of Integral Section (HERMIT) |
                        `----------------------------------'



                   .--------------------------------------------.
                   | Starting in Wave Function Section (SIRIUS) |
                   `--------------------------------------------'

 INPUT SESSION FOR LANCZOS LINEAR RESPONSE

 *** Output from Huckel module :

     Using EWMO model:          F
     Using EHT  model:          T
     Number of Huckel orbitals each symmetry:    4    2    1    0

 Huckel EHT eigenvalues for symmetry :  1
          -20.705656      -1.506643      -0.670531      -0.292100

 Huckel EHT eigenvalues for symmetry :  2
           -0.731300      -0.257471

 Huckel EHT eigenvalues for symmetry :  3
           -0.616200

 **********************************************************************
 *SIRIUS* a direct, restricted step, second order MCSCF program       *
 **********************************************************************

 
     Date and time (Linux)  : Sun Sep  8 20:42:39 2013
     Host name              : lpqlx131.ups-tlse.fr                    

 Title     :   Lanczos cmplx dipole-dipole polarizability with damping   
               (coupled cluster damped linear response function)         

 Title lines from ".mol" input file:
     H2O, Lanczos spectrum                                                   
     using 3-21G                                                             

 Print level on unit LUPRI =   2 is   0
 Print level on unit LUW4  =   2 is   5

@    (Integral direct) CC calculation.

@    This is a combination run starting with
@              a restricted, closed shell Hartree-Fock calculation


 Initial molecular orbitals are obtained according to
 ".MOSTART EHT   " input option

     Wave function specification
     ============================

     For the specification of the Coupled Cluster: see later.

@    For the wave function of type :      >>> CC <<<
@    Number of closed shell electrons          10
@    Number of electrons in active shells       0
@    Total charge of the molecule               0

@    Spin multiplicity and 2 M_S                1         0
     Total number of symmetries                 4
@    Reference state symmetry                   1

     Orbital specifications
     ======================
     Abelian symmetry species          All |    1    2    3    4
                                       --- |  ---  ---  ---  ---
     Total number of orbitals           13 |    7    4    2    0
     Number of basis functions          13 |    7    4    2    0

      ** Automatic occupation of RHF orbitals **

      -- Initial occupation of symmetries is determined from extended Huckel guess.           
      -- Initial occupation of symmetries is :
@    Occupied SCF orbitals               5 |    3    1    1    0

     Maximum number of Fock   iterations      0
     Maximum number of DIIS   iterations     60
     Maximum number of QC-SCF iterations     60
     Threshold for SCF convergence     1.00D-12


 Changes of defaults for CC:
 ---------------------------

 -Damped Linear Response via Lanczos algorithm
  


 >>>>> DIIS optimization of Hartree-Fock <<<<<

 C1-DIIS algorithm; max error vectors =   10

 Automatic occupation of symmetries with  10 electrons.

 Iter     Total energy    Error norm  Delta(E)    SCF occupation
 -----------------------------------------------------------------------------
     (Precalculated two-electron integrals are transformed to P-supermatrix elements.
      Threshold for discarding integrals :  1.00D-12 )
@  1  -75.3896680105       2.19D+00  -7.54D+01     3   1   1   0
      Virial theorem: -V/T =      1.996695
@      MULPOP O      -0.39; H   _1  0.19; H   _2  0.19; 
 -----------------------------------------------------------------------------
@  2  -75.5787861137       2.72D-01  -1.89D-01     3   1   1   0
      Virial theorem: -V/T =      2.003082
@      MULPOP O      -0.66; H   _1  0.33; H   _2  0.33; 
 -----------------------------------------------------------------------------
@  3  -75.5851834538       4.98D-02  -6.40D-03     3   1   1   0
      Virial theorem: -V/T =      2.001778
@      MULPOP O      -0.72; H   _1  0.36; H   _2  0.36; 
 -----------------------------------------------------------------------------
@  4  -75.5853764530       4.86D-03  -1.93D-04     3   1   1   0
      Virial theorem: -V/T =      2.001605
@      MULPOP O      -0.73; H   _1  0.36; H   _2  0.36; 
 -----------------------------------------------------------------------------
@  5  -75.5853777082       1.80D-03  -1.26D-06     3   1   1   0
      Virial theorem: -V/T =      2.001521
@      MULPOP O      -0.73; H   _1  0.36; H   _2  0.36; 
 -----------------------------------------------------------------------------
@  6  -75.5853778793       3.12D-04  -1.71D-07     3   1   1   0
      Virial theorem: -V/T =      2.001552
@      MULPOP O      -0.73; H   _1  0.36; H   _2  0.36; 
 -----------------------------------------------------------------------------
@  7  -75.5853778959       7.25D-05  -1.66D-08     3   1   1   0
      Virial theorem: -V/T =      2.001549
@      MULPOP O      -0.73; H   _1  0.36; H   _2  0.36; 
 -----------------------------------------------------------------------------
@  8  -75.5853778971       6.05D-06  -1.14D-09     3   1   1   0
      Virial theorem: -V/T =      2.001549
@      MULPOP O      -0.73; H   _1  0.36; H   _2  0.36; 
 -----------------------------------------------------------------------------
@  9  -75.5853778971       6.50D-07  -3.27D-12     3   1   1   0
      Virial theorem: -V/T =      2.001549
@      MULPOP O      -0.73; H   _1  0.36; H   _2  0.36; 
 -----------------------------------------------------------------------------
@ 10  -75.5853778971       7.44D-08  -2.84D-14     3   1   1   0
      Virial theorem: -V/T =      2.001549
@      MULPOP O      -0.73; H   _1  0.36; H   _2  0.36; 
 -----------------------------------------------------------------------------
@ 11  -75.5853778971       1.49D-08  -2.84D-14     3   1   1   0
      Virial theorem: -V/T =      2.001549
@      MULPOP O      -0.73; H   _1  0.36; H   _2  0.36; 
 -----------------------------------------------------------------------------
@ 12  -75.5853778971       7.24D-10   2.84D-14     3   1   1   0
      Virial theorem: -V/T =      2.001549
@      MULPOP O      -0.73; H   _1  0.36; H   _2  0.36; 
 -----------------------------------------------------------------------------
@ 13  -75.5853778971       3.00D-11   0.00D+00     3   1   1   0
      Virial theorem: -V/T =      2.001549
@      MULPOP O      -0.73; H   _1  0.36; H   _2  0.36; 
 -----------------------------------------------------------------------------
@ 14  -75.5853778971       1.18D-12   0.00D+00     3   1   1   0
      Virial theorem: -V/T =      2.001549
@      MULPOP O      -0.73; H   _1  0.36; H   _2  0.36; 
 -----------------------------------------------------------------------------
@ 15  -75.5853778971       1.04D-13  -2.84D-14     3   1   1   0

@ *** DIIS converged in  15 iterations !
@     Converged SCF energy, gradient:    -75.585377897084    1.04D-13
    - total time used in SIRFCK :              0.00 seconds


 *** SCF orbital energy analysis ***

 Only the five lowest virtual orbital energies printed in each symmetry.

 Number of electrons :   10
 Orbital occupations :    3    1    1    0

 Sym       Hartree-Fock orbital energies

  1    -20.42809016    -1.32960333    -0.53767567     0.26383412     1.30900655
         1.86666050     3.11374762

  2     -0.68577857     0.36222415     1.19354434     2.01586799

  3     -0.47962871     1.78232970

    E(LUMO) :     0.26383412 au (symmetry 1)
  - E(HOMO) :    -0.47962871 au (symmetry 3)
  ------------------------------------------
    gap     :     0.74346283 au

 >>> Writing SIRIFC interface file <<<

 >>>> CPU and wall time for SCF :       0.005       0.006


                       .-----------------------------------.
                       | >>> Final results from SIRIUS <<< |
                       `-----------------------------------'


@    Spin multiplicity:           1
@    Spatial symmetry:            1
@    Total charge of molecule:    0

@    Final HF energy:             -75.585377897084                 
@    Nuclear repulsion:             9.196931932729
@    Electronic energy:           -84.782309829813

@    Final gradient norm:           0.000000000000

 
     Date and time (Linux)  : Sun Sep  8 20:42:39 2013
     Host name              : lpqlx131.ups-tlse.fr                    

 (Only coefficients >0.0100 are printed.)

 Molecular orbitals for symmetry species  1
 ------------------------------------------

    Orbital         1        2        3        4        5
   1 O   :1s     0.9832  -0.2291  -0.0884   0.1093   0.0686
   2 O   :1s     0.0959   0.2175   0.0822  -0.0348  -0.0987
   3 O   :1s    -0.0380   0.7061   0.4051  -1.0462  -0.1189
   4 O   :2py   -0.0035  -0.0836   0.4421   0.2089   0.2765
   5 O   :2py    0.0068  -0.0935   0.5080   0.4658   0.3033
   6 H   :1s     0.0026   0.1173  -0.1309   0.0462   0.9856
   7 H   :1s     0.0069   0.0190  -0.1049   0.8636  -0.4846

 Molecular orbitals for symmetry species  2
 ------------------------------------------

    Orbital         1        2        3
   1 O   :2px    0.3986  -0.3029   0.1823
   2 O   :2px    0.3696  -0.7749   0.4552
   3 H   :1s     0.2341   0.0359  -0.9653
   4 H   :1s     0.1831   1.1780   0.6826

 Molecular orbitals for symmetry species  3
 ------------------------------------------

    Orbital         1        2
   1 O   :2pz    0.5213   1.0293
   2 O   :2pz    0.6321  -0.9652



 >>>> Total CPU  time used in SIRIUS :      0.01 seconds
 >>>> Total wall time used in SIRIUS :      0.01 seconds

 
     Date and time (Linux)  : Sun Sep  8 20:42:39 2013
     Host name              : lpqlx131.ups-tlse.fr                    


                     .---------------------------------------.
                     | End of Wave Function Section (SIRIUS) |
                     `---------------------------------------'



                    .------------------------------------------.
                    | Starting in Coupled Cluster Section (CC) |
                    `------------------------------------------'

  

 *******************************************************************************
 *******************************************************************************
 *                                                                             *
 *                                                                             *
 *                    START OF COUPLED CLUSTER CALCULATION                     *
 *                                                                             *
 *                                                                             *
 *******************************************************************************
 *******************************************************************************



 CCR12 ANSATZ =   0

 CCR12 APPROX =   0

   

 *******************************************************************
 *                                                                 *
 *<<<<<<<<<<                                             >>>>>>>>>>*
 *<<<<<<<<<< OUTPUT FROM COUPLED CLUSTER ENERGY PROGRAM  >>>>>>>>>>*
 *<<<<<<<<<<                                             >>>>>>>>>>*
 *                                                                 *
 *******************************************************************


             The Direct Coupled Cluster Energy Program
             -----------------------------------------


          Number of t1 amplitudes                 :        16
          Number of t2 amplitudes                 :       265
          Total number of amplitudes in ccsd      :       281

 Iter.  1: Coupled cluster MP2   energy :     -75.7077704916453342
 Iter.  1: Coupled cluster CCSD  energy :     -75.7111196343200703
 Iter.  2: Coupled cluster CCSD  energy :     -75.7147373824852963
 Iter.  3: Coupled cluster CCSD  energy :     -75.7150150055622504
 Iter.  4: Coupled cluster CCSD  energy :     -75.7150404077276136
 Iter.  5: Coupled cluster CCSD  energy :     -75.7150324417910241
 Iter.  6: Coupled cluster CCSD  energy :     -75.7150315446441482
 Iter.  7: Coupled cluster CCSD  energy :     -75.7150316052911450
 Iter.  8: Coupled cluster CCSD  energy :     -75.7150314852131174
 Iter.  9: Coupled cluster CCSD  energy :     -75.7150314832345543
 Iter. 10: Coupled cluster CCSD  energy :     -75.7150314803792384
 Iter. 11: Coupled cluster CCSD  energy :     -75.7150314804885340
 Iter. 12: Coupled cluster CCSD  energy :     -75.7150314808004339
 Iter. 13: Coupled cluster CCSD  energy :     -75.7150314808365437

 CCSD  energy converged to within   0.10D-09 is          -75.715031480837
 Final 2-norm of the CC vector function:  3.04596593D-09





             +-------------------------------------------------------+
             ! Final results from the Coupled Cluster energy program !
             +-------------------------------------------------------+



            Total SCF   energy:                   -75.5853778971

            Total MP2   energy:                   -75.7077704916

            Total CCSD  energy:                   -75.7150314808




                   +--------------------------------------------+
                   ! Calculating singlet intermediates for CCLR !
                   +--------------------------------------------+



            E-intermediates calculated 
            Fock-intermediate calculated 
            Gamma-intermediate calculated 
            BF-intermediate calculated 
            C-intermediate calculated 
            D-intermediate calculated 


   

 *******************************************************************
 *                                                                 *
 *<<<<<<<<<<<<< OUTPUT FROM COUPLED CLUSTER RESPONSE  >>>>>>>>>>>>>*
 *                                                                 *
 *******************************************************************



                         +--------------------------------+
                         ! Coupled Cluster model is: CCSD !
                         +--------------------------------+

 RPA: call cceq_str
     Start vector generated from gradient
 RPA: exit cceq_str



 >>>>> COUPLED CLUSTER RESPONSE SOLVER <<<<<

    Iter  #Vectors  time (min)   residual
    --------------------------------------
      1       1         0.00     0.53E+00
      2       1         0.00     0.93E-01
      3       1         0.00     0.18E-01
      4       1         0.00     0.52E-02
      5       1         0.00     0.14E-02
      6       1         0.00     0.36E-03
      7       1         0.00     0.72E-04
      8       1         0.00     0.17E-04
      9       1         0.00     0.32E-05
     10       1         0.00     0.59E-06
     11       1         0.00     0.95E-07
     12       1         0.00     0.16E-07
     13       1         0.00     0.29E-08
    --------------------------------------
    converged in 13 iterations
    threshold:    0.10E-07


         Routine          Time (min)
         ---------------------------
         CC_TRDRV            0.00
         CCRED               0.00
         CCNEX               0.00
         ---------------------------
         Total time          0.00


 >>>> Total CPU  time used in CCEQ_SOLV:   0.03 seconds
 >>>> Total wall time used in CCEQ_SOLV:   0.09 seconds


 >>>>>>>>>>>>>>>>>>>>> <<<<<<<<<<<<<<<<<<<<<

  
     

   *******************************************************************
   *                                                                 *
   *<<<<<<<<   OUTPUT FROM PROPERTY AND SYMMETRY ANALYSIS   >>>>>>>>>*
   *                                                                 *
   *******************************************************************



                         +-------------------------------+
                         ! REQUESTED PROPERTY OPERATORS: !
                         +-------------------------------+

             Index   Oper. Label  Symmetry  Transp.  PDBS  Atom
             --------------------------------------------------
                1     HAM0            1        1      T      0
                2     XDIPLEN         2        1      F      0
             --------------------------------------------------




                         +-------------------------------+
                         ! REQUESTED EXPECTATION VALUES: !
                         +-------------------------------+

                       Index   Oper. Label  Symmetry
                       -----------------------------
                       -----------------------------




                       +------------------------------------+
                       ! REQUESTED EFFECTIVE FOCK MATRICES: !
                       +------------------------------------+

                       Index   Oper. Label  Symmetry
                       -----------------------------
                       -----------------------------


 CCLRLANCZOS: building theLanczos Chain
 isyhop           2  label=XDIPLEN 
 LANCZOS: Chain length by input, JCHAIN=        1310
 WARNING: JCHAIN EXCEED FULL SPACE DIMENSION
 WE RESET IT TO dim{AMAT} =            249


                   +--------------------------------------------+
                   ! CC_LANCZOS: test of call to CC_XIETA setup !
                   +--------------------------------------------+

 ITEST  =           2
 ISYHOP =           2
 LABEL  =XDIPLEN 
 LTWO   = F
 LORX   = F
 FREQ   =   0.0000000000000000     
 IROPER =           2
 ILEFT  =           0
 IRHSR1 =           1
 IETA1  =           1
 IRELAX =           0
 JCHAIN =        1310
 JKAEDE =         249


                +--------------------------------------------------+
                ! CC_LANCZOS_DRV: test of call to CC_FMATRIX setup !
                +--------------------------------------------------+



                +-------------------------------------------------+
                ! CC_LANCZOS_DRV: call CC_XIETA (both Xi and Eta) !
                +-------------------------------------------------+



                             +-----------------------+
                             ! analytical Xi vector: !
                             +-----------------------+

 q1norm:    1.1181236663287768     


                         +--------------------------------+
                         ! NORMALIZED Q1 vector (= Xi^Z): !
                         +--------------------------------+

 q1norm (2):   0.99999999999999967     
 BEFORE CC_WRRSP: IFILE=           1  & ifqt=           1
 LABEL  =XDIPLEN 
 LORX   = F
 FREQ   =   0.0000000000000000     
 ISYHOP =           2
 >>>AQ vector reread from file<<<
 CC_LANCZOS: IVEC =            1


                     +---------------------------------------+
                     ! P1 vector (eta^X) before biorthonorm: !
                     +---------------------------------------+

 p1*q1 norm:    2.3224890003009455     


                       +-----------------------------------+
                       ! BINORMALIZED P1 vector (= eta^Z): !
                       +-----------------------------------+

 p1*q1 norm (2):   0.99999999999999989     
 LANCZOS: p1*q1 norm  0.99999999999999989     
 LANCZOS: first alpha in chain   1.1389983756762083     
LANCZOS 1 : rxs, beta, gamma:    2.8217231013    1.6797985300    1.6797985300
 BIORT check ortho: <Pnew|Qnew>(           2 )=  0.99999999999999956     
 BIORT check ortho: <Qnew|Qnew>(           2 )=   1.0375929573019378     
 BIORT check ortho: <Pnew|Qnew>(           2 )=   1.0000000000000000     
 BIORT check ortho: <Qnew|Qnew>(           2 )=   1.0375929573019378     
 At ichain:           2  alpha(ichain)=   18.131016702987750     
ichain,rxs, beta, gamma:    2   46.1917003894    6.7964476302    6.7964476302
 BIORT check ortho: <Pnew|Qnew>(           3 )=   1.0000000000000002     
 BIORT check ortho: <Qnew|Qnew>(           3 )=   1.0033753783379868     
 BIORT check ortho: <Pnew|Qnew>(           3 )=   1.0000000000000002     
 BIORT check ortho: <Qnew|Qnew>(           3 )=   1.0033753783379868     
 At ichain:           3  alpha(ichain)=   5.0076303994594422     
ichain,rxs, beta, gamma:    3   10.3796225552    3.2217421615    3.2217421615
 BIORT check ortho: <Pnew|Qnew>(           4 )=   1.0000000000000002     
 BIORT check ortho: <Qnew|Qnew>(           4 )=  0.85197075899163788     
 BIORT check ortho: <Pnew|Qnew>(           4 )=  0.99999999999999967     
 BIORT check ortho: <Qnew|Qnew>(           4 )=  0.85197075899163788     
 At ichain:           4  alpha(ichain)=   28.538050509409494     
ichain,rxs, beta, gamma:    4  161.6679933856   12.7148729205   12.7148729205
 BIORT check ortho: <Pnew|Qnew>(           5 )=  0.99999999999999978     
 BIORT check ortho: <Qnew|Qnew>(           5 )=  0.97496299913287721     
 BIORT check ortho: <Pnew|Qnew>(           5 )=   1.0000000000000000     
 BIORT check ortho: <Qnew|Qnew>(           5 )=  0.97496299913287721     
 At ichain:           5  alpha(ichain)=   29.712119536449649     
ichain,rxs, beta, gamma:    5  199.7549500985   14.1334691459   14.1334691459
 BIORT check ortho: <Pnew|Qnew>(           6 )=  0.99999999999999933     
 BIORT check ortho: <Qnew|Qnew>(           6 )=  0.88577983074818734     
 BIORT check ortho: <Pnew|Qnew>(           6 )=   1.0000000000000002     
 BIORT check ortho: <Qnew|Qnew>(           6 )=  0.88577983074818734     
 At ichain:           6  alpha(ichain)=   13.210861883869972     
ichain,rxs, beta, gamma:    6   28.4350686898    5.3324542839    5.3324542839
 BIORT check ortho: <Pnew|Qnew>(           7 )=   1.0000000000000000     
 BIORT check ortho: <Qnew|Qnew>(           7 )=  0.87109124457671239     
 BIORT check ortho: <Pnew|Qnew>(           7 )=   1.0000000000000000     
 BIORT check ortho: <Qnew|Qnew>(           7 )=  0.87109124457671239     
 At ichain:           7  alpha(ichain)=   31.173924067283476     
ichain,rxs, beta, gamma:    7  182.8532280267   13.5223233221   13.5223233221
 BIORT check ortho: <Pnew|Qnew>(           8 )=  0.99999999999999956     
 BIORT check ortho: <Qnew|Qnew>(           8 )=  0.88218905341321385     
 BIORT check ortho: <Pnew|Qnew>(           8 )=   1.0000000000000002     
 BIORT check ortho: <Qnew|Qnew>(           8 )=  0.88218905341321385     
 At ichain:           8  alpha(ichain)=   29.200535197067744     
ichain,rxs, beta, gamma:    8  130.3595040459   11.4175086620   11.4175086620
 BIORT check ortho: <Pnew|Qnew>(           9 )=  0.99999999999999989     
 BIORT check ortho: <Qnew|Qnew>(           9 )=  0.87546473588499718     
 BIORT check ortho: <Pnew|Qnew>(           9 )=  0.99999999999999989     
 BIORT check ortho: <Qnew|Qnew>(           9 )=  0.87546473588499718     
 At ichain:           9  alpha(ichain)=   11.417562339569624     
ichain,rxs, beta, gamma:    9   47.5569763837    6.8961566386    6.8961566386
 BIORT check ortho: <Pnew|Qnew>(          10 )=   1.0000000000000002     
 BIORT check ortho: <Qnew|Qnew>(          10 )=  0.91635719979367414     
 BIORT check ortho: <Pnew|Qnew>(          10 )=   1.0000000000000002     
 BIORT check ortho: <Qnew|Qnew>(          10 )=  0.91635719979367392     
 At ichain:          10  alpha(ichain)=   36.802661487684993     
ichain,rxs, beta, gamma:   10  157.4945712194   12.5496841084   12.5496841084
 BIORT check ortho: <Pnew|Qnew>(          11 )=   1.0000000000000000     
 BIORT check ortho: <Qnew|Qnew>(          11 )=  0.89876011590523197     
 BIORT check ortho: <Pnew|Qnew>(          11 )=  0.99999999999999989     
 BIORT check ortho: <Qnew|Qnew>(          11 )=  0.89876011590523197     
 At ichain:          11  alpha(ichain)=   19.338649235574916     
ichain,rxs, beta, gamma:   11  136.4003770707   11.6790571996   11.6790571996
 BIORT check ortho: <Pnew|Qnew>(          12 )=  0.99999999999999956     
 BIORT check ortho: <Qnew|Qnew>(          12 )=  0.81765382554526633     
 BIORT check ortho: <Pnew|Qnew>(          12 )=   1.0000000000000002     
 BIORT check ortho: <Qnew|Qnew>(          12 )=  0.81765382554526644     
 At ichain:          12  alpha(ichain)=   15.443409352787025     
ichain,rxs, beta, gamma:   12   20.8569522508    4.5669412357    4.5669412357
 BIORT check ortho: <Pnew|Qnew>(          13 )=  0.99999999999999978     
 BIORT check ortho: <Qnew|Qnew>(          13 )=   1.0563819792724387     
 BIORT check ortho: <Pnew|Qnew>(          13 )=  0.99999999999999989     
 BIORT check ortho: <Qnew|Qnew>(          13 )=   1.0563819792724387     
 At ichain:          13  alpha(ichain)=   33.203398077823238     
ichain,rxs, beta, gamma:   13  317.3976864531   17.8156584625   17.8156584625
 BIORT check ortho: <Pnew|Qnew>(          14 )=   1.0000000000000009     
 BIORT check ortho: <Qnew|Qnew>(          14 )=   1.0889283056122496     
 BIORT check ortho: <Pnew|Qnew>(          14 )=  0.99999999999999967     
 BIORT check ortho: <Qnew|Qnew>(          14 )=   1.0889283056122496     
 At ichain:          14  alpha(ichain)=   16.526185098429512     
ichain,rxs, beta, gamma:   14   52.7795133084    7.2649510190    7.2649510190
 BIORT check ortho: <Pnew|Qnew>(          15 )=   1.0000000000000002     
 BIORT check ortho: <Qnew|Qnew>(          15 )=  0.76278420896105414     
 BIORT check ortho: <Pnew|Qnew>(          15 )=  0.99999999999999989     
 BIORT check ortho: <Qnew|Qnew>(          15 )=  0.76278420896105414     
 At ichain:          15  alpha(ichain)=   19.582487591096204     
ichain,rxs, beta, gamma:   15   32.3177996275    5.6848746360    5.6848746360
 BIORT check ortho: <Pnew|Qnew>(          16 )=   1.0000000000000004     
 BIORT check ortho: <Qnew|Qnew>(          16 )=   1.3396177469925943     
 BIORT check ortho: <Pnew|Qnew>(          16 )=   1.0000000000000000     
 BIORT check ortho: <Qnew|Qnew>(          16 )=   1.3396177469925943     
 At ichain:          16  alpha(ichain)=   14.155664732221410     
ichain,rxs, beta, gamma:   16  262.1752394830   16.1918263171   16.1918263171
 BIORT check ortho: <Pnew|Qnew>(          17 )=   1.0000000000000009     
 BIORT check ortho: <Qnew|Qnew>(          17 )=  0.91350382720818657     
 BIORT check ortho: <Pnew|Qnew>(          17 )=  0.99999999999999967     
 BIORT check ortho: <Qnew|Qnew>(          17 )=  0.91350382720818668     
 At ichain:          17  alpha(ichain)=   35.918606640777718     
ichain,rxs, beta, gamma:   17   68.4151802142    8.2713469407    8.2713469407
 BIORT check ortho: <Pnew|Qnew>(          18 )=   1.0000000000000002     
 BIORT check ortho: <Qnew|Qnew>(          18 )=   1.0102517390991457     
 BIORT check ortho: <Pnew|Qnew>(          18 )=   1.0000000000000000     
 BIORT check ortho: <Qnew|Qnew>(          18 )=   1.0102517390991457     
 At ichain:          18  alpha(ichain)=   19.386847300521680     
ichain,rxs, beta, gamma:   18   78.1831371506    8.8421228871    8.8421228871
 BIORT check ortho: <Pnew|Qnew>(          19 )=   1.0000000000000004     
 BIORT check ortho: <Qnew|Qnew>(          19 )=   1.5423362600992021     
 BIORT check ortho: <Pnew|Qnew>(          19 )=  0.99999999999999967     
 BIORT check ortho: <Qnew|Qnew>(          19 )=   1.5423362600992021     
 At ichain:          19  alpha(ichain)=   12.489302617324656     
ichain,rxs, beta, gamma:   19   85.6009819977    9.2520798742    9.2520798742
 BIORT check ortho: <Pnew|Qnew>(          20 )=   1.0000000000000000     
 BIORT check ortho: <Qnew|Qnew>(          20 )=  0.96782828501491358     
 BIORT check ortho: <Pnew|Qnew>(          20 )=   1.0000000000000002     
 BIORT check ortho: <Qnew|Qnew>(          20 )=  0.96782828501491369     
 At ichain:          20  alpha(ichain)=   39.058292708737547     
ichain,rxs, beta, gamma:   20  113.1424990456   10.6368462923   10.6368462923
 BIORT check ortho: <Pnew|Qnew>(          21 )=   1.0000000000000002     
 BIORT check ortho: <Qnew|Qnew>(          21 )=   1.1975000798694462     
 BIORT check ortho: <Pnew|Qnew>(          21 )=   1.0000000000000000     
 BIORT check ortho: <Qnew|Qnew>(          21 )=   1.1975000798694462     
 At ichain:          21  alpha(ichain)=   16.667638335404263     
ichain,rxs, beta, gamma:   21  105.7215379474   10.2820979351   10.2820979351
 BIORT check ortho: <Pnew|Qnew>(          22 )=  0.99999999999999956     
 BIORT check ortho: <Qnew|Qnew>(          22 )=   1.1670171719830458     
 BIORT check ortho: <Pnew|Qnew>(          22 )=   1.0000000000000002     
 BIORT check ortho: <Qnew|Qnew>(          22 )=   1.1670171719830458     
 At ichain:          22  alpha(ichain)=   16.049786087316892     
ichain,rxs, beta, gamma:   22   41.1238137776    6.4127851810    6.4127851810
 BIORT check ortho: <Pnew|Qnew>(          23 )=   1.0000000000000002     
 BIORT check ortho: <Qnew|Qnew>(          23 )=   1.1588885531270616     
 BIORT check ortho: <Pnew|Qnew>(          23 )=   1.0000000000000000     
 BIORT check ortho: <Qnew|Qnew>(          23 )=   1.1588885531270616     
 At ichain:          23  alpha(ichain)=   36.023239666163555     
ichain,rxs, beta, gamma:   23  244.9213189358   15.6499622663   15.6499622663
 BIORT check ortho: <Pnew|Qnew>(          24 )=   1.0000000000000002     
 BIORT check ortho: <Qnew|Qnew>(          24 )=   1.3277966242504642     
 BIORT check ortho: <Pnew|Qnew>(          24 )=  0.99999999999999978     
 BIORT check ortho: <Qnew|Qnew>(          24 )=   1.3277966242504642     
 At ichain:          24  alpha(ichain)=   14.099528544342943     
ichain,rxs, beta, gamma:   24   41.1935721681    6.4182218852    6.4182218852
 BIORT check ortho: <Pnew|Qnew>(          25 )=   1.0000000000000002     
 BIORT check ortho: <Qnew|Qnew>(          25 )=  0.69033977912777922     
 BIORT check ortho: <Pnew|Qnew>(          25 )=  0.99999999999999989     
 BIORT check ortho: <Qnew|Qnew>(          25 )=  0.69033977912777900     
 At ichain:          25  alpha(ichain)=   22.450146213878433     
ichain,rxs, beta, gamma:   25   54.9436649126    7.4123994032    7.4123994032
 BIORT check ortho: <Pnew|Qnew>(          26 )=   1.0000000000000007     
 BIORT check ortho: <Qnew|Qnew>(          26 )=   1.0694337025243574     
 BIORT check ortho: <Pnew|Qnew>(          26 )=  0.99999999999999967     
 BIORT check ortho: <Qnew|Qnew>(          26 )=   1.0694337025243574     
 At ichain:          26  alpha(ichain)=   28.227819318049928     
ichain,rxs, beta, gamma:   26  360.6136571046   18.9898303601   18.9898303601
 BIORT check ortho: <Pnew|Qnew>(          27 )=   1.0000000000000002     
 BIORT check ortho: <Qnew|Qnew>(          27 )=   1.0765826825791918     
 BIORT check ortho: <Pnew|Qnew>(          27 )=   1.0000000000000002     
 BIORT check ortho: <Qnew|Qnew>(          27 )=   1.0765826825791918     
 At ichain:          27  alpha(ichain)=   21.477996272263766     
ichain,rxs, beta, gamma:   27   11.7005396126    3.4206051530    3.4206051530
 BIORT check ortho: <Pnew|Qnew>(          28 )=  0.99999999999999922     
 BIORT check ortho: <Qnew|Qnew>(          28 )=  0.85724964640099166     
 BIORT check ortho: <Pnew|Qnew>(          28 )=   1.0000000000000002     
 BIORT check ortho: <Qnew|Qnew>(          28 )=  0.85724964640099166     
 At ichain:          28  alpha(ichain)=   21.260476642256311     
ichain,rxs, beta, gamma:   28  107.2170443292   10.3545663516   10.3545663516
 BIORT check ortho: <Pnew|Qnew>(          29 )=   1.0000000000000000     
 BIORT check ortho: <Qnew|Qnew>(          29 )=   1.3560918216996882     
 BIORT check ortho: <Pnew|Qnew>(          29 )=   1.0000000000000000     
 BIORT check ortho: <Qnew|Qnew>(          29 )=   1.3560918216996882     
 At ichain:          29  alpha(ichain)=   23.070558885778610     
ichain,rxs, beta, gamma:   29  318.9712881506   17.8597673039   17.8597673039
 BIORT check ortho: <Pnew|Qnew>(          30 )=  0.99999999999999956     
 BIORT check ortho: <Qnew|Qnew>(          30 )=   1.0666230103731300     
 BIORT check ortho: <Pnew|Qnew>(          30 )=   1.0000000000000000     
 BIORT check ortho: <Qnew|Qnew>(          30 )=   1.0666230103731300     
 At ichain:          30  alpha(ichain)=   27.234777407513366     
ichain,rxs, beta, gamma:   30   16.2891781404    4.0359853989    4.0359853989
 BIORT check ortho: <Pnew|Qnew>(          31 )=   1.0000000000000002     
 BIORT check ortho: <Qnew|Qnew>(          31 )=   1.7107587629223309     
 BIORT check ortho: <Pnew|Qnew>(          31 )=   1.0000000000000000     
 BIORT check ortho: <Qnew|Qnew>(          31 )=   1.7107587629223306     
 At ichain:          31  alpha(ichain)=   15.666517105897341     
ichain,rxs, beta, gamma:   31  138.7443019882   11.7789771198   11.7789771198
 BIORT check ortho: <Pnew|Qnew>(          32 )=  0.99999999999999956     
 BIORT check ortho: <Qnew|Qnew>(          32 )=   1.8123228030400327     
 BIORT check ortho: <Pnew|Qnew>(          32 )=  0.99999999999999989     
 BIORT check ortho: <Qnew|Qnew>(          32 )=   1.8123228030400327     
 At ichain:          32  alpha(ichain)=   21.465245235804236     
ichain,rxs, beta, gamma:   32  218.6839229194   14.7879654760   14.7879654760
 BIORT check ortho: <Pnew|Qnew>(          33 )=  0.99999999999999967     
 BIORT check ortho: <Qnew|Qnew>(          33 )=   1.3134258212977983     
 BIORT check ortho: <Pnew|Qnew>(          33 )=   1.0000000000000002     
 BIORT check ortho: <Qnew|Qnew>(          33 )=   1.3134258212977985     
 At ichain:          33  alpha(ichain)=   34.702565706721849     
ichain,rxs, beta, gamma:   33   18.1108299110    4.2556820735    4.2556820735
 BIORT check ortho: <Pnew|Qnew>(          34 )=   1.0000000000000004     
 BIORT check ortho: <Qnew|Qnew>(          34 )=   6.4622632496129162     
 BIORT check ortho: <Pnew|Qnew>(          34 )=   1.0000000000000000     
 BIORT check ortho: <Qnew|Qnew>(          34 )=   6.4622632496129162     
 At ichain:          34  alpha(ichain)=   8.9263344206313509     
ichain,rxs, beta, gamma:   34   83.2516213460    9.1242326442    9.1242326442
 BIORT check ortho: <Pnew|Qnew>(          35 )=   1.0000000000000000     
 BIORT check ortho: <Qnew|Qnew>(          35 )=   1.0630959208922706     
 BIORT check ortho: <Pnew|Qnew>(          35 )=   1.0000000000000002     
 BIORT check ortho: <Qnew|Qnew>(          35 )=   1.0630959208922703     
 At ichain:          35  alpha(ichain)=   19.056008913017578     
ichain,rxs, beta, gamma:   35   29.6779731517    5.4477493657    5.4477493657
 BIORT check ortho: <Pnew|Qnew>(          36 )=   1.0000000000000002     
 BIORT check ortho: <Qnew|Qnew>(          36 )=   8.5046919592747248     
 BIORT check ortho: <Pnew|Qnew>(          36 )=  0.99999999999999978     
 BIORT check ortho: <Qnew|Qnew>(          36 )=   8.5046919592747248     
 At ichain:          36  alpha(ichain)=   39.437806214903993     
ichain,rxs, beta, gamma:   36  199.1253994454   14.1111799452   14.1111799452
 BIORT check ortho: <Pnew|Qnew>(          37 )=   1.0000000000000000     
 BIORT check ortho: <Qnew|Qnew>(          37 )=   41.006245441338699     
 BIORT check ortho: <Pnew|Qnew>(          37 )=   1.0000000000000000     
 BIORT check ortho: <Qnew|Qnew>(          37 )=   41.006245441338692     
 At ichain:          37  alpha(ichain)=   9.9339810736781029     
ichain,rxs, beta, gamma:   37   31.4572698885    5.6086780874    5.6086780874
 BIORT check ortho: <Pnew|Qnew>(          38 )=   1.0000000000000000     
 BIORT check ortho: <Qnew|Qnew>(          38 )=   10.103929850244104     
 BIORT check ortho: <Pnew|Qnew>(          38 )=   1.0000000000000000     
 BIORT check ortho: <Qnew|Qnew>(          38 )=   10.103929850244107     
 At ichain:          38  alpha(ichain)=   22.244343425580446     
ichain,rxs, beta, gamma:   38  -52.7744800747    7.2646046055   -7.2646046055
 BIORT check ortho: <Pnew|Qnew>(          39 )=  0.99999999999999933     
 BIORT check ortho: <Qnew|Qnew>(          39 )=   131.25611177717605     
 BIORT check ortho: <Pnew|Qnew>(          39 )=   1.0000000000000004     
 BIORT check ortho: <Qnew|Qnew>(          39 )=   131.25611177717602     
 At ichain:          39  alpha(ichain)=   27.656549693573858     
ichain,rxs, beta, gamma:   39  370.8305154119   19.2569601810   19.2569601810
 BIORT check ortho: <Pnew|Qnew>(          40 )=   1.0000000000000000     
 BIORT check ortho: <Qnew|Qnew>(          40 )=   183.99216853069015     
 BIORT check ortho: <Pnew|Qnew>(          40 )=   1.0000000000000002     
 BIORT check ortho: <Qnew|Qnew>(          40 )=   183.99216853069038     
 At ichain:          40  alpha(ichain)=   26.568412568569283     
ichain,rxs, beta, gamma:   40  -27.6309414891    5.2565141957   -5.2565141957
 BIORT check ortho: <Pnew|Qnew>(          41 )=  0.99999999999999867     
 BIORT check ortho: <Qnew|Qnew>(          41 )=   84.866151828201041     
 BIORT check ortho: <Pnew|Qnew>(          41 )=  0.99999999999999933     
 BIORT check ortho: <Qnew|Qnew>(          41 )=   84.866151828200699     
 At ichain:          41  alpha(ichain)=   4.7011810869742199     
ichain,rxs, beta, gamma:   41   72.8653948768    8.5361229418    8.5361229418
 BIORT check ortho: <Pnew|Qnew>(          42 )=   1.0000000000000007     
 BIORT check ortho: <Qnew|Qnew>(          42 )=   37.942435450707208     
 BIORT check ortho: <Pnew|Qnew>(          42 )=   1.0000000000000000     
 BIORT check ortho: <Qnew|Qnew>(          42 )=   37.942435450707144     
 At ichain:          42  alpha(ichain)=   19.172469367644020     
ichain,rxs, beta, gamma:   42    4.0319732621    2.0079774058    2.0079774058
 BIORT check ortho: <Pnew|Qnew>(          43 )=   1.0000000000000002     
 BIORT check ortho: <Qnew|Qnew>(          43 )=   2.5131749069955327     
 BIORT check ortho: <Pnew|Qnew>(          43 )=  0.99999999999999956     
 BIORT check ortho: <Qnew|Qnew>(          43 )=   2.5131749069955358     
 At ichain:          43  alpha(ichain)=   7.8490213988637869     
ichain,rxs, beta, gamma:   43   73.3661398931    8.5654036620    8.5654036620
 BIORT check ortho: <Pnew|Qnew>(          44 )=  0.99999999999999989     
 BIORT check ortho: <Qnew|Qnew>(          44 )=   3.2501220660771040     
 BIORT check ortho: <Pnew|Qnew>(          44 )=   1.0000000000000000     
 BIORT check ortho: <Qnew|Qnew>(          44 )=   3.2501220660771049     
 At ichain:          44  alpha(ichain)=   17.580467008479189     
ichain,rxs, beta, gamma:   44    6.2220170297    2.4943971275    2.4943971275
 BIORT check ortho: <Pnew|Qnew>(          45 )=   1.0000000000000004     
 BIORT check ortho: <Qnew|Qnew>(          45 )=   8.4648436552475061     
 BIORT check ortho: <Pnew|Qnew>(          45 )=  0.99999999999999978     
 BIORT check ortho: <Qnew|Qnew>(          45 )=   8.4648436552475079     
 At ichain:          45  alpha(ichain)=   7.9680026027093751     
ichain,rxs, beta, gamma:   45   68.5108368335    8.2771273298    8.2771273298
 BIORT check ortho: <Pnew|Qnew>(          46 )=   1.0000000000000009     
 BIORT check ortho: <Qnew|Qnew>(          46 )=  0.72031685548685176     
 BIORT check ortho: <Pnew|Qnew>(          46 )=  0.99999999999999978     
 BIORT check ortho: <Qnew|Qnew>(          46 )=  0.72031685548685209     
 At ichain:          46  alpha(ichain)=   17.416333675761592     
ichain,rxs, beta, gamma:   46    3.7446457482    1.9351087174    1.9351087174
 BIORT check ortho: <Pnew|Qnew>(          47 )=   1.0000000000000002     
 BIORT check ortho: <Qnew|Qnew>(          47 )=   147.60504063851613     
 BIORT check ortho: <Pnew|Qnew>(          47 )=  0.99999999999999956     
 BIORT check ortho: <Qnew|Qnew>(          47 )=   147.60504063851627     
 At ichain:          47  alpha(ichain)=   8.7653929874000500     
ichain,rxs, beta, gamma:   47  109.6264794119   10.4702664442   10.4702664442
 BIORT check ortho: <Pnew|Qnew>(          48 )=   1.0000000000000002     
 BIORT check ortho: <Qnew|Qnew>(          48 )=   6.0300358056374970     
 BIORT check ortho: <Pnew|Qnew>(          48 )=   1.0000000000000000     
 BIORT check ortho: <Qnew|Qnew>(          48 )=   6.0300358056375023     
 At ichain:          48  alpha(ichain)=   17.617593454191869     
ichain,rxs, beta, gamma:   48  -20.1804674671    4.4922675195   -4.4922675195
 BIORT check ortho: <Pnew|Qnew>(          49 )=   1.0000000000000000     
 BIORT check ortho: <Qnew|Qnew>(          49 )=   513.05612543246855     
 BIORT check ortho: <Pnew|Qnew>(          49 )=  0.99999999999999956     
 BIORT check ortho: <Qnew|Qnew>(          49 )=   513.05612543246809     
 At ichain:          49  alpha(ichain)=   6.0266071734389177     
ichain,rxs, beta, gamma:   49  -39.3856269699    6.2757969191   -6.2757969191
 BIORT check ortho: <Pnew|Qnew>(          50 )=   1.0000000000000000     
 BIORT check ortho: <Qnew|Qnew>(          50 )=   19.338843995961817     
 BIORT check ortho: <Pnew|Qnew>(          50 )=   1.0000000000000002     
 BIORT check ortho: <Qnew|Qnew>(          50 )=   19.338843995961881     
 At ichain:          50  alpha(ichain)=   23.840821276663302     
ichain,rxs, beta, gamma:   50   37.5634676470    6.1289042778    6.1289042778
 BIORT check ortho: <Pnew|Qnew>(          51 )=   1.0000000000000000     
 BIORT check ortho: <Qnew|Qnew>(          51 )=   126.02899415940271     
 BIORT check ortho: <Pnew|Qnew>(          51 )=   1.0000000000000000     
 BIORT check ortho: <Qnew|Qnew>(          51 )=   126.02899415940291     
 At ichain:          51  alpha(ichain)=   4.6302706432698493     
ichain,rxs, beta, gamma:   51   10.4237580650    3.2285845296    3.2285845296
 BIORT check ortho: <Pnew|Qnew>(          52 )=  0.99999999999999989     
 BIORT check ortho: <Qnew|Qnew>(          52 )=   1.3335723729728524     
 BIORT check ortho: <Pnew|Qnew>(          52 )=   1.0000000000000002     
 BIORT check ortho: <Qnew|Qnew>(          52 )=   1.3335723729728537     
 At ichain:          52  alpha(ichain)=   20.830583053256593     
ichain,rxs, beta, gamma:   52   33.5163986673    5.7893349072    5.7893349072
 BIORT check ortho: <Pnew|Qnew>(          53 )=  0.99999999999999956     
 BIORT check ortho: <Qnew|Qnew>(          53 )=   19.398402198912880     
 BIORT check ortho: <Pnew|Qnew>(          53 )=   1.0000000000000004     
 BIORT check ortho: <Qnew|Qnew>(          53 )=   19.398402198912901     
 At ichain:          53  alpha(ichain)=   5.3002057442897650     
ichain,rxs, beta, gamma:   53    9.7720482065    3.1260275441    3.1260275441
 BIORT check ortho: <Pnew|Qnew>(          54 )=  0.99999999999999978     
 BIORT check ortho: <Qnew|Qnew>(          54 )=   1.0324461160266691     
 BIORT check ortho: <Pnew|Qnew>(          54 )=   1.0000000000000000     
 BIORT check ortho: <Qnew|Qnew>(          54 )=   1.0324461160266702     
 At ichain:          54  alpha(ichain)=   18.584776719651426     
ichain,rxs, beta, gamma:   54   57.4626216509    7.5804103880    7.5804103880
 BIORT check ortho: <Pnew|Qnew>(          55 )=   1.0000000000000002     
 BIORT check ortho: <Qnew|Qnew>(          55 )=   7.5733279013121431     
 BIORT check ortho: <Pnew|Qnew>(          55 )=  0.99999999999999989     
 BIORT check ortho: <Qnew|Qnew>(          55 )=   7.5733279013121466     
 At ichain:          55  alpha(ichain)=   7.8193410207738996     
ichain,rxs, beta, gamma:   55    8.6223005917    2.9363754174    2.9363754174
 BIORT check ortho: <Pnew|Qnew>(          56 )=  0.99999999999999956     
 BIORT check ortho: <Qnew|Qnew>(          56 )=  0.87270435898041876     
 BIORT check ortho: <Pnew|Qnew>(          56 )=   1.0000000000000002     
 BIORT check ortho: <Qnew|Qnew>(          56 )=  0.87270435898042009     
 At ichain:          56  alpha(ichain)=   17.763736748544552     
ichain,rxs, beta, gamma:   56   60.3269685251    7.7670437442    7.7670437442
 BIORT check ortho: <Pnew|Qnew>(          57 )=   1.0000000000000002     
 BIORT check ortho: <Qnew|Qnew>(          57 )=   3.2768009648556204     
 BIORT check ortho: <Pnew|Qnew>(          57 )=   1.0000000000000002     
 BIORT check ortho: <Qnew|Qnew>(          57 )=   3.2768009648556271     
 At ichain:          57  alpha(ichain)=   8.4745182324760950     
ichain,rxs, beta, gamma:   57    6.6722199900    2.5830640701    2.5830640701
 BIORT check ortho: <Pnew|Qnew>(          58 )=  0.99999999999999956     
 BIORT check ortho: <Qnew|Qnew>(          58 )=  0.76124105236024353     
 BIORT check ortho: <Pnew|Qnew>(          58 )=   1.0000000000000002     
 BIORT check ortho: <Qnew|Qnew>(          58 )=  0.76124105236024375     
 At ichain:          58  alpha(ichain)=   17.459371826790061     
ichain,rxs, beta, gamma:   58   74.9018925644    8.6545879488    8.6545879488
 BIORT check ortho: <Pnew|Qnew>(          59 )=  0.99999999999999989     
 BIORT check ortho: <Qnew|Qnew>(          59 )=   1.3699305436167313     
 BIORT check ortho: <Pnew|Qnew>(          59 )=   1.0000000000000002     
 BIORT check ortho: <Qnew|Qnew>(          59 )=   1.3699305436167317     
 At ichain:          59  alpha(ichain)=   8.8482881347041342     
ichain,rxs, beta, gamma:   59    5.7939779903    2.4070683394    2.4070683394
 BIORT check ortho: <Pnew|Qnew>(          60 )=  0.99999999999999944     
 BIORT check ortho: <Qnew|Qnew>(          60 )=  0.76324496691893806     
 BIORT check ortho: <Pnew|Qnew>(          60 )=   1.0000000000000004     
 BIORT check ortho: <Qnew|Qnew>(          60 )=  0.76324496691893828     
 At ichain:          60  alpha(ichain)=   15.674625980500815     
ichain,rxs, beta, gamma:   60   95.5316436548    9.7740290390    9.7740290390
 BIORT check ortho: <Pnew|Qnew>(          61 )=   1.0000000000000004     
 BIORT check ortho: <Qnew|Qnew>(          61 )=  0.94533939167984304     
 BIORT check ortho: <Pnew|Qnew>(          61 )=  0.99999999999999967     
 BIORT check ortho: <Qnew|Qnew>(          61 )=  0.94533939167984238     
 At ichain:          61  alpha(ichain)=   10.860508204344946     
ichain,rxs, beta, gamma:   61    4.3910819024    2.0954908500    2.0954908500
 BIORT check ortho: <Pnew|Qnew>(          62 )=  0.99999999999999944     
 BIORT check ortho: <Qnew|Qnew>(          62 )=  0.90108156997230726     
 BIORT check ortho: <Pnew|Qnew>(          62 )=   1.0000000000000004     
 BIORT check ortho: <Qnew|Qnew>(          62 )=  0.90108156997230704     
 At ichain:          62  alpha(ichain)=   14.425227620416248     
ichain,rxs, beta, gamma:   62   99.0837589577    9.9540825272    9.9540825272
 BIORT check ortho: <Pnew|Qnew>(          63 )=  0.99999999999999978     
 BIORT check ortho: <Qnew|Qnew>(          63 )=  0.94825748339196969     
 BIORT check ortho: <Pnew|Qnew>(          63 )=   1.0000000000000000     
 BIORT check ortho: <Qnew|Qnew>(          63 )=  0.94825748339196947     
 At ichain:          63  alpha(ichain)=   11.853642937713728     
ichain,rxs, beta, gamma:   63    4.8999799861    2.2135898414    2.2135898414
 BIORT check ortho: <Pnew|Qnew>(          64 )=   1.0000000000000000     
 BIORT check ortho: <Qnew|Qnew>(          64 )=   1.2278973867144001     
 BIORT check ortho: <Pnew|Qnew>(          64 )=   1.0000000000000000     
 BIORT check ortho: <Qnew|Qnew>(          64 )=   1.2278973867144001     
 At ichain:          64  alpha(ichain)=   14.702099356518012     
ichain,rxs, beta, gamma:   64   94.0322056169    9.6970204505    9.6970204505
 BIORT check ortho: <Pnew|Qnew>(          65 )=  0.99999999999999989     
 BIORT check ortho: <Qnew|Qnew>(          65 )=   1.3341397665823895     
 BIORT check ortho: <Pnew|Qnew>(          65 )=  0.99999999999999989     
 BIORT check ortho: <Qnew|Qnew>(          65 )=   1.3341397665823898     
 At ichain:          65  alpha(ichain)=   11.625919550874181     
ichain,rxs, beta, gamma:   65    2.9285233407    1.7112928857    1.7112928857
 BIORT check ortho: <Pnew|Qnew>(          66 )=   1.0000000000000007     
 BIORT check ortho: <Qnew|Qnew>(          66 )=   3.1001242748882936     
 BIORT check ortho: <Pnew|Qnew>(          66 )=  0.99999999999999967     
 BIORT check ortho: <Qnew|Qnew>(          66 )=   3.1001242748882940     
 At ichain:          66  alpha(ichain)=   19.895450581000716     
ichain,rxs, beta, gamma:   66   58.3551527567    7.6390544413    7.6390544413
 BIORT check ortho: <Pnew|Qnew>(          67 )=   1.0000000000000002     
 BIORT check ortho: <Qnew|Qnew>(          67 )=   10.425138677940483     
 BIORT check ortho: <Pnew|Qnew>(          67 )=  0.99999999999999833     
 BIORT check ortho: <Qnew|Qnew>(          67 )=   10.425138677940478     
 At ichain:          67  alpha(ichain)=   3.1645447890171203     
ichain,rxs, beta, gamma:   67  -11.8236399823    3.4385520183   -3.4385520183
 BIORT check ortho: <Pnew|Qnew>(          68 )=   1.0000000000000033     
 BIORT check ortho: <Qnew|Qnew>(          68 )=   33.660441649591128     
 BIORT check ortho: <Pnew|Qnew>(          68 )=  0.99999999999999589     
 BIORT check ortho: <Qnew|Qnew>(          68 )=   33.660441649591164     
 At ichain:          68  alpha(ichain)=  -3.1349625467115985     
ichain,rxs, beta, gamma:   68 -313.6662348533   17.7106249143  -17.7106249143
 BIORT check ortho: <Pnew|Qnew>(          69 )=   1.0000000000000011     
 BIORT check ortho: <Qnew|Qnew>(          69 )=   13.041542733293667     
 BIORT check ortho: <Pnew|Qnew>(          69 )=   1.0000000000000011     
 BIORT check ortho: <Qnew|Qnew>(          69 )=   13.041542733293609     
 At ichain:          69  alpha(ichain)=   34.525530546006436     
ichain,rxs, beta, gamma:   69    1.8300914722    1.3528087345    1.3528087345
 BIORT check ortho: <Pnew|Qnew>(          70 )=  0.99999999999999978     
 BIORT check ortho: <Qnew|Qnew>(          70 )=   2.4093782528674597     
 BIORT check ortho: <Pnew|Qnew>(          70 )=   1.0000000000000002     
 BIORT check ortho: <Qnew|Qnew>(          70 )=   2.4093782528674681     
 At ichain:          70  alpha(ichain)=   6.2839922764059803     
ichain,rxs, beta, gamma:   70   61.2433392219    7.8258123682    7.8258123682
 BIORT check ortho: <Pnew|Qnew>(          71 )=   1.0000000000000002     
 BIORT check ortho: <Qnew|Qnew>(          71 )=   1.1346561277905354     
 BIORT check ortho: <Pnew|Qnew>(          71 )=   1.0000000000000000     
 BIORT check ortho: <Qnew|Qnew>(          71 )=   1.1346561277905336     
 At ichain:          71  alpha(ichain)=   19.031223307847231     
ichain,rxs, beta, gamma:   71    4.5545600495    2.1341415252    2.1341415252
 BIORT check ortho: <Pnew|Qnew>(          72 )=   1.0000000000000000     
 BIORT check ortho: <Qnew|Qnew>(          72 )=   1.0328904643927976     
 BIORT check ortho: <Pnew|Qnew>(          72 )=   1.0000000000000000     
 BIORT check ortho: <Qnew|Qnew>(          72 )=   1.0328904643927965     
 At ichain:          72  alpha(ichain)=   6.6067246243411857     
ichain,rxs, beta, gamma:   72   56.4647427506    7.5143025459    7.5143025459
 BIORT check ortho: <Pnew|Qnew>(          73 )=   1.0000000000000002     
 BIORT check ortho: <Qnew|Qnew>(          73 )=  0.74736674659517777     
 BIORT check ortho: <Pnew|Qnew>(          73 )=  0.99999999999999956     
 BIORT check ortho: <Qnew|Qnew>(          73 )=  0.74736674659517743     
 At ichain:          73  alpha(ichain)=   19.224390253778690     
ichain,rxs, beta, gamma:   73    9.8478153124    3.1381228963    3.1381228963
 BIORT check ortho: <Pnew|Qnew>(          74 )=   1.0000000000000007     
 BIORT check ortho: <Qnew|Qnew>(          74 )=   1.3757805725596741     
 BIORT check ortho: <Pnew|Qnew>(          74 )=  0.99999999999999956     
 BIORT check ortho: <Qnew|Qnew>(          74 )=   1.3757805725596746     
 At ichain:          74  alpha(ichain)=   6.0447050039169188     
ichain,rxs, beta, gamma:   74   32.3841033292    5.6907032368    5.6907032368
 BIORT check ortho: <Pnew|Qnew>(          75 )=   1.0000000000000002     
 BIORT check ortho: <Qnew|Qnew>(          75 )=  0.70451113851587599     
 BIORT check ortho: <Pnew|Qnew>(          75 )=  0.99999999999999989     
 BIORT check ortho: <Qnew|Qnew>(          75 )=  0.70451113851587588     
 At ichain:          75  alpha(ichain)=   20.566268645155791     
ichain,rxs, beta, gamma:   75   16.4689649077    4.0581972485    4.0581972485
 BIORT check ortho: <Pnew|Qnew>(          76 )=  0.99999999999999944     
 BIORT check ortho: <Qnew|Qnew>(          76 )=   2.2295542663819332     
 BIORT check ortho: <Pnew|Qnew>(          76 )=   1.0000000000000002     
 BIORT check ortho: <Qnew|Qnew>(          76 )=   2.2295542663819226     
 At ichain:          76  alpha(ichain)=   5.6419101612930183     
ichain,rxs, beta, gamma:   76   12.0169368860    3.4665453821    3.4665453821
 BIORT check ortho: <Pnew|Qnew>(          77 )=   1.0000000000000004     
 BIORT check ortho: <Qnew|Qnew>(          77 )=  0.77975718090222956     
 BIORT check ortho: <Pnew|Qnew>(          77 )=  0.99999999999999978     
 BIORT check ortho: <Qnew|Qnew>(          77 )=  0.77975718090222956     
 At ichain:          77  alpha(ichain)=   19.727880124839370     
ichain,rxs, beta, gamma:   77   49.4627471093    7.0329756938    7.0329756938
 BIORT check ortho: <Pnew|Qnew>(          78 )=   1.0000000000000011     
 BIORT check ortho: <Qnew|Qnew>(          78 )=   1.8330995362479532     
 BIORT check ortho: <Pnew|Qnew>(          78 )=   1.0000000000000004     
 BIORT check ortho: <Qnew|Qnew>(          78 )=   1.8330995362479510     
 At ichain:          78  alpha(ichain)=   6.8737735108301568     
ichain,rxs, beta, gamma:   78    5.0659475131    2.2507659836    2.2507659836
 BIORT check ortho: <Pnew|Qnew>(          79 )=  0.99999999999999978     
 BIORT check ortho: <Qnew|Qnew>(          79 )=  0.89731152128702052     
 BIORT check ortho: <Pnew|Qnew>(          79 )=  0.99999999999999967     
 BIORT check ortho: <Qnew|Qnew>(          79 )=  0.89731152128702030     
 At ichain:          79  alpha(ichain)=   16.002702170720752     
ichain,rxs, beta, gamma:   79   87.4766019138    9.3528927030    9.3528927030
 BIORT check ortho: <Pnew|Qnew>(          80 )=   1.0000000000000000     
 BIORT check ortho: <Qnew|Qnew>(          80 )=   1.1585727468695559     
 BIORT check ortho: <Pnew|Qnew>(          80 )=   1.0000000000000000     
 BIORT check ortho: <Qnew|Qnew>(          80 )=   1.1585727468695552     
 At ichain:          80  alpha(ichain)=   9.9221333746876681     
ichain,rxs, beta, gamma:   80    3.5172590164    1.8754356871    1.8754356871
 BIORT check ortho: <Pnew|Qnew>(          81 )=  0.99999999999999989     
 BIORT check ortho: <Qnew|Qnew>(          81 )=  0.93521577960687141     
 BIORT check ortho: <Pnew|Qnew>(          81 )=   1.0000000000000000     
 BIORT check ortho: <Qnew|Qnew>(          81 )=  0.93521577960687152     
 At ichain:          81  alpha(ichain)=   14.966233068740062     
ichain,rxs, beta, gamma:   81   96.7160714655    9.8344329509    9.8344329509
 BIORT check ortho: <Pnew|Qnew>(          82 )=   1.0000000000000004     
 BIORT check ortho: <Qnew|Qnew>(          82 )=  0.98799930466393504     
 BIORT check ortho: <Pnew|Qnew>(          82 )=   1.0000000000000002     
 BIORT check ortho: <Qnew|Qnew>(          82 )=  0.98799930466393504     
 At ichain:          82  alpha(ichain)=   10.943521099609018     
ichain,rxs, beta, gamma:   82    1.6068852905    1.2676297924    1.2676297924
 BIORT check ortho: <Pnew|Qnew>(          83 )=   1.0000000000000011     
 BIORT check ortho: <Qnew|Qnew>(          83 )=   3.2234347831503523     
 BIORT check ortho: <Pnew|Qnew>(          83 )=   1.0000000000000002     
 BIORT check ortho: <Qnew|Qnew>(          83 )=   3.2234347831503554     
 At ichain:          83  alpha(ichain)=   14.153207730517579     
ichain,rxs, beta, gamma:   83  116.8426006711   10.8093755912   10.8093755912
 BIORT check ortho: <Pnew|Qnew>(          84 )=   1.0000000000000004     
 BIORT check ortho: <Qnew|Qnew>(          84 )=   2.3741492002723676     
 BIORT check ortho: <Pnew|Qnew>(          84 )=   1.0000000000000002     
 BIORT check ortho: <Qnew|Qnew>(          84 )=   2.3741492002723699     
 At ichain:          84  alpha(ichain)=   10.541667101717490     
ichain,rxs, beta, gamma:   84  -11.6118843151    3.4076215041   -3.4076215041
 BIORT check ortho: <Pnew|Qnew>(          85 )=   1.0000000000000020     
 BIORT check ortho: <Qnew|Qnew>(          85 )=   9.6508858309164385     
 BIORT check ortho: <Pnew|Qnew>(          85 )=   1.0000000000000011     
 BIORT check ortho: <Qnew|Qnew>(          85 )=   9.6508858309164314     
 At ichain:          85  alpha(ichain)=   6.0526051953578657     
ichain,rxs, beta, gamma:   85  -29.5037728841    5.4317375566   -5.4317375566
 BIORT check ortho: <Pnew|Qnew>(          86 )=   1.0000000000000000     
 BIORT check ortho: <Qnew|Qnew>(          86 )=  0.97089609940559429     
 BIORT check ortho: <Pnew|Qnew>(          86 )=   1.0000000000000000     
 BIORT check ortho: <Qnew|Qnew>(          86 )=  0.97089609940559540     
 At ichain:          86  alpha(ichain)=   24.076033764827130     
ichain,rxs, beta, gamma:   86   18.2708560061    4.2744421865    4.2744421865
 BIORT check ortho: <Pnew|Qnew>(          87 )=   1.0000000000000000     
 BIORT check ortho: <Qnew|Qnew>(          87 )=   2.8016451158614846     
 BIORT check ortho: <Pnew|Qnew>(          87 )=  0.99999999999999944     
 BIORT check ortho: <Qnew|Qnew>(          87 )=   2.8016451158614890     
 At ichain:          87  alpha(ichain)=   4.4056030615479198     
ichain,rxs, beta, gamma:   87   14.3429878373    3.7872137301    3.7872137301
 BIORT check ortho: <Pnew|Qnew>(          88 )=   1.0000000000000002     
[...]
 Residual norm Lanczos wi:   2.9268476784431714       =   0.0000000000000000     
 Residual norm Lanczos wi:   2.9697316187561764       =   0.0000000000000000     
 Residual norm Lanczos wi:   2.9785309458206086       =   0.0000000000000000     
 Residual norm Lanczos wi:   2.9839005888556649       =   0.0000000000000000     
 Residual norm Lanczos wi:   3.0117077963775949       =   0.0000000000000000     
 Residual norm Lanczos wi:   3.0493897131920593       =   0.0000000000000000     
 Residual norm Lanczos wi:   3.0740873355875653       =   0.0000000000000000     
 Residual norm Lanczos wi:   3.0774198858132507       =   0.0000000000000000     
 Residual norm Lanczos wi:   3.0916220615239967       =   0.0000000000000000     
 Residual norm Lanczos wi:   3.1554838936948602       =   0.0000000000000000     
 Residual norm Lanczos wi:   3.1656406837230739       =   0.0000000000000000     
 Residual norm Lanczos wi:   3.1833944479704015       =   0.0000000000000000     
 Residual norm Lanczos wi:   3.2079152858230926       =   0.0000000000000000     
 Residual norm Lanczos wi:   3.2280308161891544       =   0.0000000000000000     
 Residual norm Lanczos wi:   3.2446170416130875       =   0.0000000000000000     
 Residual norm Lanczos wi:   3.2545415428823055       =   0.0000000000000000     
 Residual norm Lanczos wi:   3.2702224210709594       =   0.0000000000000000     
 Residual norm Lanczos wi:   3.2931136653815498       =   0.0000000000000000     
 Residual norm Lanczos wi:   3.3092022779984100       =   0.0000000000000000     
 Residual norm Lanczos wi:   3.3328130002543404       =   0.0000000000000000     
 Residual norm Lanczos wi:   3.3431407123404888       =   0.0000000000000000     
 Residual norm Lanczos wi:   3.3452039708791750       =   0.0000000000000000     
 Residual norm Lanczos wi:   3.3821430196739208       =   0.0000000000000000     
 Residual norm Lanczos wi:   3.4114736621745871       =   0.0000000000000000     
 Residual norm Lanczos wi:   3.4407442929625800       =   0.0000000000000000     
 Residual norm Lanczos wi:   3.4448584377927389       =   0.0000000000000000     
 Residual norm Lanczos wi:   3.4602233086237457       =   0.0000000000000000     
 Residual norm Lanczos wi:   3.4802527904989464       =   0.0000000000000000     
 Residual norm Lanczos wi:   3.5349716936400131       =   0.0000000000000000     
 Residual norm Lanczos wi:   3.5488987188915115       =   0.0000000000000000     
 Residual norm Lanczos wi:   3.5616779905148737       =   0.0000000000000000     
 Residual norm Lanczos wi:   3.5871940225720147       =   0.0000000000000000     
 Residual norm Lanczos wi:   3.6175417893466895       =   0.0000000000000000     
 Residual norm Lanczos wi:   3.6458076578769671       =   0.0000000000000000     
 Residual norm Lanczos wi:   3.6692601126506008       =   0.0000000000000000     
 Residual norm Lanczos wi:   3.6882206900787078       =   0.0000000000000000     
 Residual norm Lanczos wi:   3.7001031555740469       =   0.0000000000000000     
 Residual norm Lanczos wi:   3.7147790575199942       =   0.0000000000000000     
 Residual norm Lanczos wi:   3.7248507314041150       =   0.0000000000000000     
 Residual norm Lanczos wi:   3.7322573962926708       =   0.0000000000000000     
 Residual norm Lanczos wi:   3.7433845082561548       =   0.0000000000000000     
 Residual norm Lanczos wi:   3.7500620942658296       =   0.0000000000000000     
 Residual norm Lanczos wi:   3.7875315414341553       =   0.0000000000000000     
 Residual norm Lanczos wi:   3.8021816909041068       =   0.0000000000000000     
 Residual norm Lanczos wi:   3.8141701008265891       =   0.0000000000000000     
 Residual norm Lanczos wi:   3.8466453644584653       =   0.0000000000000000     
 Residual norm Lanczos wi:   3.8503623707578405       =   0.0000000000000000     
 Residual norm Lanczos wi:   3.8800563857936585       =   0.0000000000000000     
 Residual norm Lanczos wi:   3.8945084109709778       =   0.0000000000000000     
 Residual norm Lanczos wi:   3.9188844413910640       =   0.0000000000000000     
 Residual norm Lanczos wi:   3.9905458127131088       =   0.0000000000000000     
 Residual norm Lanczos wi:   4.0075457483847314       =   0.0000000000000000     
 Residual norm Lanczos wi:   4.0343730295894682       =   0.0000000000000000     
 Residual norm Lanczos wi:   4.0455393075343462       =   0.0000000000000000     
 Residual norm Lanczos wi:   4.0677928109987862       =   0.0000000000000000     
 Residual norm Lanczos wi:   4.0746903987046661       =   0.0000000000000000     
 Residual norm Lanczos wi:   4.0815175150165643       =   0.0000000000000000     
 Residual norm Lanczos wi:   4.1365991398707074       =   0.0000000000000000     
 Residual norm Lanczos wi:   4.1527017491964981       =   0.0000000000000000     
 Residual norm Lanczos wi:   4.2196085378596413       =   0.0000000000000000     
 Residual norm Lanczos wi:   4.2881013147635301       =   0.0000000000000000     
 Residual norm Lanczos wi:   4.3047077008161905       =   0.0000000000000000     
 Residual norm Lanczos wi:   4.3248451440931550       =   0.0000000000000000     
 Residual norm Lanczos wi:   4.3499692025240826       =   0.0000000000000000     
 Residual norm Lanczos wi:   4.3739705868154735       =   0.0000000000000000     
 Residual norm Lanczos wi:   4.3972599328816928       =   0.0000000000000000     
 Residual norm Lanczos wi:   4.4082336298648395       =   0.0000000000000000     
 Residual norm Lanczos wi:   4.4362798287490683       =   0.0000000000000000     
 Residual norm Lanczos wi:   4.4575167044086168       =   0.0000000000000000     
 Residual norm Lanczos wi:   4.4835453090365531       =   0.0000000000000000     
 Residual norm Lanczos wi:   4.4912990571173701       =   0.0000000000000000     
 Residual norm Lanczos wi:   4.5107898355259843       =   0.0000000000000000     
 Residual norm Lanczos wi:   4.5846854071400145       =   0.0000000000000000     
 Residual norm Lanczos wi:   4.6093417211345766       =   0.0000000000000000     
 Residual norm Lanczos wi:   4.6411332336943580       =   0.0000000000000000     
 Residual norm Lanczos wi:   4.6694041514188296       =   0.0000000000000000     
 Residual norm Lanczos wi:   4.7083811357957801       =   0.0000000000000000     
 Residual norm Lanczos wi:   4.7352845235946761       =   0.0000000000000000     
 Residual norm Lanczos wi:   4.7550353300635040       =   0.0000000000000000     
 Residual norm Lanczos wi:   4.8045898111164700       =   0.0000000000000000     
 Residual norm Lanczos wi:   4.8274732523246424       =   0.0000000000000000     
 Residual norm Lanczos wi:   4.9106134062199072       =   0.0000000000000000     
 Residual norm Lanczos wi:   4.9269322416914560       =   0.0000000000000000     
 Residual norm Lanczos wi:   4.9683333437489878       =   0.0000000000000000     
 Residual norm Lanczos wi:   5.0032350480447283       =   0.0000000000000000     
 Residual norm Lanczos wi:   5.0379588817141610       =   0.0000000000000000     
 Residual norm Lanczos wi:   5.0677243906747655       =   0.0000000000000000     
 Residual norm Lanczos wi:   5.1670554080860098       =   0.0000000000000000     
 Residual norm Lanczos wi:   5.2070190689776412       =   0.0000000000000000     
 Residual norm Lanczos wi:   5.2207224985740677       =   0.0000000000000000     
 Residual norm Lanczos wi:   5.2504959724858189       =   0.0000000000000000     
 Residual norm Lanczos wi:   5.2965347202692872       =   0.0000000000000000     
 Residual norm Lanczos wi:   5.3565313850747280       =   0.0000000000000000     
 Residual norm Lanczos wi:   5.3990062289558312       =   0.0000000000000000     
 Residual norm Lanczos wi:   5.4812363286252745       =   0.0000000000000000     
 Residual norm Lanczos wi:   5.5115252363421972       =   0.0000000000000000     
 Residual norm Lanczos wi:   5.6204837774575829       =   0.0000000000000000     
 Residual norm Lanczos wi:   5.7403179875175265       =   0.0000000000000000     
 Residual norm Lanczos wi:   5.8336327260824197       =   0.0000000000000000     
 Residual norm Lanczos wi:   5.8918342205602556       =   0.0000000000000000     
 Residual norm Lanczos wi:   6.0158267156017837       =   0.0000000000000000     
 Residual norm Lanczos wi:   6.0780322659018182       =   0.0000000000000000     
 Residual norm Lanczos wi:   6.1820898556316051       =   0.0000000000000000     
 Residual norm Lanczos wi:   6.4763495802880486       =   0.0000000000000000     
 Residual norm Lanczos wi:   6.7692487787368174       =   0.0000000000000000     
 Residual norm Lanczos wi:   7.3877888775388776       =   0.0000000000000000     
 Residual norm Lanczos wi:   19.748465667194115       =   0.0000000000000000     
 Residual norm Lanczos wi:   20.538405302749812       =   0.0000000000000000     
 Residual norm Lanczos wi:   20.767329825208918       =   0.0000000000000000     
 Residual norm Lanczos wi:   20.872414958454350       =   0.0000000000000000     
 Residual norm Lanczos wi:   20.962162995004153       =   0.0000000000000000     
 Residual norm Lanczos wi:   21.007106871268967       =   0.0000000000000000     
 Residual norm Lanczos wi:   21.154738233044188       =   0.0000000000000000     
 Residual norm Lanczos wi:   21.597723296845434       =   0.0000000000000000     
 Residual norm Lanczos wi:   21.650684606776078       =   0.0000000000000000     
 Residual norm Lanczos wi:   21.673093262679618       =   0.0000000000000000     
 Residual norm Lanczos wi:   21.725329753213636       =   0.0000000000000000     
 Residual norm Lanczos wi:   21.760628225057570       =   0.0000000000000000     
 Residual norm Lanczos wi:   21.783765693834027       =   0.0000000000000000     
 Residual norm Lanczos wi:   21.799145239630104       =   0.0000000000000000     
 Residual norm Lanczos wi:   21.850578498054571       =   0.0000000000000000     
 Residual norm Lanczos wi:   21.900923175977610       =   0.0000000000000000     
 Residual norm Lanczos wi:   21.946032912509214       =   0.0000000000000000     
 Residual norm Lanczos wi:   22.009566519339277       =   0.0000000000000000     
 Residual norm Lanczos wi:   22.063546354837111       =   0.0000000000000000     
 Residual norm Lanczos wi:   22.081947690387853       =   0.0000000000000000     
 Residual norm Lanczos wi:   22.085466356677305       =   0.0000000000000000     
 Residual norm Lanczos wi:   22.152444309930448       =   0.0000000000000000     
 Residual norm Lanczos wi:   22.175422126822685       =   0.0000000000000000     
 Residual norm Lanczos wi:   22.190016999837791       =   0.0000000000000000     
 Residual norm Lanczos wi:   22.207516851979925       =   0.0000000000000000     
 Residual norm Lanczos wi:   22.361043450643177       =   0.0000000000000000     
 Residual norm Lanczos wi:   22.481078457068531       =   0.0000000000000000     
 Residual norm Lanczos wi:   22.562428758909267       =   0.0000000000000000     
 Residual norm Lanczos wi:   22.587756618304663       =   0.0000000000000000     
 Residual norm Lanczos wi:   22.595819999518444       =   0.0000000000000000     
 Residual norm Lanczos wi:   22.612426932065244       =   0.0000000000000000     
 Residual norm Lanczos wi:   22.667840662669288       =   0.0000000000000000     
 Residual norm Lanczos wi:   22.702482497581784       =   0.0000000000000000     
 Residual norm Lanczos wi:   22.725559625853396       =   0.0000000000000000     
 Residual norm Lanczos wi:   22.758398656175792       =   0.0000000000000000     
 Residual norm Lanczos wi:   22.847701493018363       =   0.0000000000000000     
 Residual norm Lanczos wi:   22.867583659469926       =   0.0000000000000000     
 Residual norm Lanczos wi:   22.876058904851554       =   0.0000000000000000     
 Residual norm Lanczos wi:   22.909608535425470       =   0.0000000000000000     
 Residual norm Lanczos wi:   22.952248235807836       =   0.0000000000000000     
 Residual norm Lanczos wi:   22.966519922359335       =   0.0000000000000000     
 Residual norm Lanczos wi:   22.970066673692951       =   0.0000000000000000     
 Residual norm Lanczos wi:   22.987190169275362       =   0.0000000000000000     
 Residual norm Lanczos wi:   23.015667993113833       =   0.0000000000000000     
 Residual norm Lanczos wi:   23.035203343871515       =   0.0000000000000000     
 Residual norm Lanczos wi:   23.055849727186658       =   0.0000000000000000     
 Residual norm Lanczos wi:   23.071581712676945       =   0.0000000000000000     
 Residual norm Lanczos wi:   23.147903570680175       =   0.0000000000000000     
 Residual norm Lanczos wi:   23.172499554225173       =   0.0000000000000000     
 Residual norm Lanczos wi:   23.193541586019997       =   0.0000000000000000     
 Residual norm Lanczos wi:   23.245089099670263       =   0.0000000000000000     
 Residual norm Lanczos wi:   23.280248906786994       =   0.0000000000000000     
 Residual norm Lanczos wi:   23.307370475713732       =   0.0000000000000000     
 Residual norm Lanczos wi:   23.330643248950512       =   0.0000000000000000     
 Residual norm Lanczos wi:   23.351638343455171       =   0.0000000000000000     
 Residual norm Lanczos wi:   23.368927546203476       =   0.0000000000000000     
 Residual norm Lanczos wi:   23.412327766127810       =   0.0000000000000000     
 Residual norm Lanczos wi:   23.472153776796681       =   0.0000000000000000     
 Residual norm Lanczos wi:   23.479895394396937       =   0.0000000000000000     
 Residual norm Lanczos wi:   23.543763525521197       =   0.0000000000000000     
 Residual norm Lanczos wi:   23.637343717930460       =   0.0000000000000000     
 Residual norm Lanczos wi:   23.791982504123574       =   0.0000000000000000     
 Residual norm Lanczos wi:   23.842889736206455       =   0.0000000000000000     
 Residual norm Lanczos wi:   23.865430184141943       =   0.0000000000000000     
 Residual norm Lanczos wi:   23.882198163731253       =   0.0000000000000000     
 Residual norm Lanczos wi:   24.073450080664013       =   0.0000000000000000     
 Residual norm Lanczos wi:   24.095737755976160       =   0.0000000000000000     
 Residual norm Lanczos wi:   24.130420047086481       =   0.0000000000000000     
 Residual norm Lanczos wi:   24.150392615652329       =   0.0000000000000000     
 Residual norm Lanczos wi:   24.165084793008379       =   0.0000000000000000     
 Residual norm Lanczos wi:   24.231613658046122       =   0.0000000000000000     
 Residual norm Lanczos wi:   24.255963015460747       =   0.0000000000000000     
 Residual norm Lanczos wi:   24.284153990375621       =   0.0000000000000000     
 Residual norm Lanczos wi:   24.301759277237135       =   0.0000000000000000     
 Residual norm Lanczos wi:   24.505031317797457       =   0.0000000000000000     
 Residual norm Lanczos wi:   24.529644720105615       =   0.0000000000000000     
 Residual norm Lanczos wi:   24.559471165479206       =   0.0000000000000000     
 Residual norm Lanczos wi:   24.608640118303057       =   0.0000000000000000     
 Residual norm Lanczos wi:   25.038091170515251       =   0.0000000000000000     
 Residual norm Lanczos wi:   25.117536392673099       =   0.0000000000000000     
 Residual norm Lanczos wi:   25.337307093611528       =   0.0000000000000000     
 Residual norm Lanczos wi:   25.405992503804860       =   0.0000000000000000     
 Residual norm Lanczos wi:   25.728846384861942       =   0.0000000000000000     
 Residual norm Lanczos wi:   43.786221094332035       =   0.0000000000000000     
 Residual norm Lanczos wi:   44.577057194270822       =   0.0000000000000000     
 Residual norm Lanczos wi:   44.969447473677867       =   0.0000000000000000     
 Residual norm Lanczos wi:   45.116362693024030       =   0.0000000000000000     
 Residual norm Lanczos wi:   45.235424245925756       =   0.0000000000000000     
 Residual norm Lanczos wi:   45.864495303345322       =   0.0000000000000000     
 Residual norm Lanczos wi:   46.073540613258842       =   0.0000000000000000     
 Residual norm Lanczos wi:   46.162332885500440       =   0.0000000000000000     
 Residual norm Lanczos wi:   46.508891934560388       =   0.0000000000000000     
 Residual norm Lanczos wi:   46.791030048058481       =   0.0000000000000000     
 Residual norm Lanczos wi:   47.362756774378923       =   0.0000000000000000     
 Residual norm Lanczos wi:   47.570123796298525       =   0.0000000000000000     
 Call CC_build_Rfull to build R vectors
 Un-normalized R_full matrix computed
 Out of CC_build_Rfull
 Calling CC_FMATRIX to perform FQ tranforms
 out of CC_FMATRIX
 Calling Lanczos_Ftrans to make transF (calF)
 1. FREQ   0.0000000000000000       NFREQ:           3  STEP:  0.10000000000000001     
  FOR OPERATOR LABEL = XDIPLEN 
  Response fun with gamma =   0.00455600 J=       249
  Frequency (eV)  & Real  (au)& Imaginary(au)&  sigma^I (au)
 ---------------------------
      0.00000000     -6.46815038      0.00000000     -0.00000000     -6.80608799      0.00000000
      2.72113842     -6.64521271     -0.01665755      0.00166575     -6.99185399     -0.01747640
      5.44227684     -7.25241597     -0.04088594      0.00817719     -7.62891614     -0.04289741
 --- remaining values on LUSPEC file ---
  FOR OPERATOR LABEL = XDIPLEN 
 MSYM =           4  inside Lanczos (NSYM)
 NCCEXCI for singlet in LANCZOS:           0         249           0           0
  

 *******************************************************************************
 *******************************************************************************
 *                                                                             *
 *                                                                             *
 *                   SUMMARY OF COUPLED CLUSTER CALCULATION                    *
 *                                                                             *
 *                                                                             *
 *******************************************************************************
 *******************************************************************************

                                                                                
                                                                                
            Total SCF   energy:                   -75.5853778971                
            Total MP2   energy:                   -75.7077704916                
            Total CCSD  energy:                   -75.7150314808                
  

 *******************************************************************************
 *******************************************************************************
 *                                                                             *
 *                                                                             *
 *                      END OF COUPLED CLUSTER CALCULATION                     *
 *                                                                             *
 *                                                                             *
 *******************************************************************************
 *******************************************************************************


 >>>> CPU and wall time for CC :       2.119       4.062

 
     Date and time (Linux)  : Sun Sep  8 20:42:43 2013
     Host name              : lpqlx131.ups-tlse.fr                    


                      .-------------------------------------.
                      | End of Coupled Cluster Section (CC) |
                      `-------------------------------------'

 >>>> Total CPU  time used in DALTON:   2.14 seconds
 >>>> Total wall time used in DALTON:   4.08 seconds

 
     Date and time (Linux)  : Sun Sep  8 20:42:43 2013
     Host name              : lpqlx131.ups-tlse.fr                    
