

     ************************************************************************
     *************** Dalton - An Electronic Structure Program ***************
     ************************************************************************

    This is output from DALTON (Release Dalton2013 patch 0)
   ----------------------------------------------------------------------------
    NOTE:
     
    Dalton is an experimental code for the evaluation of molecular
    properties using (MC)SCF, DFT, CI, and CC wave functions.
    The authors accept no responsibility for the performance of
    the code or for the correctness of the results.
     
    The code (in whole or part) is provided under a licence and
    is not to be reproduced for further distribution without
    the written permission of the authors or their representatives.
     
    See the home page "http://daltonprogram.org" for further information.
     
    If results obtained with this code are published,
    the appropriate citations would be both of:
     
       K. Aidas, C. Angeli, K. L. Bak, V. Bakken, R. Bast,
       L. Boman, O. Christiansen, R. Cimiraglia, S. Coriani,
       P. Dahle, E. K. Dalskov, U. Ekstroem, T. Enevoldsen,
       J. J. Eriksen, P. Ettenhuber, B. Fernandez, L. Ferrighi,
       H. Fliegl, L. Frediani, K. Hald, A. Halkier, C. Haettig,
       H. Heiberg, T. Helgaker, A. C. Hennum, H. Hettema,
       E. Hjertenaes, S. Hoest, I.-M. Hoeyvik, M. F. Iozzi,
       B. Jansik, H. J. Aa. Jensen, D. Jonsson, P. Joergensen,
       J. Kauczor, S. Kirpekar, T. Kjaergaard, W. Klopper,
       S. Knecht, R. Kobayashi, H. Koch, J. Kongsted, A. Krapp,
       K. Kristensen, A. Ligabue, O. B. Lutnaes, J. I. Melo,
       K. V. Mikkelsen, R. H. Myhre, C. Neiss, C. B. Nielsen,
       P. Norman, J. Olsen, J. M. H. Olsen, A. Osted,
       M. J. Packer, F. Pawlowski, T. B. Pedersen, P. F. Provasi,
       S. Reine, Z. Rinkevicius, T. A. Ruden, K. Ruud, V. Rybkin,
       P. Salek, C. C. M. Samson, A. Sanchez de Meras, T. Saue,
       S. P. A. Sauer, B. Schimmelpfennig, K. Sneskov,
       A. H. Steindal, K. O. Sylvester-Hvid, P. R. Taylor,
       A. M. Teale, E. I. Tellgren, D. P. Tew, A. J. Thorvaldsen,
       L. Thoegersen, O. Vahtras, M. A. Watson, D. J. D. Wilson,
       M. Ziolkowski and H. Agren.
       The Dalton quantum chemistry program system.
       WIREs Comput. Mol. Sci. 2013. doi: 10.1002/wcms.1172
    
    and
    
       Dalton, a Molecular Electronic Structure Program,
       Release DALTON2013.0 (2013), see http://daltonprogram.org
   ----------------------------------------------------------------------------

    Authors in alphabetical order (major contribution(s) in parenthesis):

  Kestutis Aidas,           Vilnius University,           Lithuania   (QM/MM)
  Celestino Angeli,         University of Ferrara,        Italy       (NEVPT2)
  Keld L. Bak,              UNI-C,                        Denmark     (AOSOPPA, non-adiabatic coupling, magnetic properties)
  Vebjoern Bakken,          University of Oslo,           Norway      (DALTON; geometry optimizer, symmetry detection)
  Radovan Bast,             KTH Stockholm                 Sweden      (DALTON installation and execution frameworks)
  Linus Boman,              NTNU,                         Norway      (Cholesky decomposition and subsystems)
  Ove Christiansen,         Aarhus University,            Denmark     (CC module)
  Renzo Cimiraglia,         University of Ferrara,        Italy       (NEVPT2)
  Sonia Coriani,            University of Trieste,        Italy       (CC module, MCD in RESPONS)
  Paal Dahle,               University of Oslo,           Norway      (Parallelization)
  Erik K. Dalskov,          UNI-C,                        Denmark     (SOPPA)
  Thomas Enevoldsen,        Univ. of Southern Denmark,    Denmark     (SOPPA)
  Janus J. Eriksen,         Aarhus University,            Denmark     (PE-MP2/SOPPA, TDA)
  Berta Fernandez,          U. of Santiago de Compostela, Spain       (doublet spin, ESR in RESPONS)
  Lara Ferrighi,            Aarhus University,            Denmark     (PCM Cubic response)
  Heike Fliegl,             University of Oslo,           Norway      (CCSD(R12))
  Luca Frediani,            UiT The Arctic U. of Norway,  Norway      (PCM)
  Bin Gao,                  UiT The Arctic U. of Norway,  Norway      (Gen1Int library)
  Christof Haettig,         Ruhr-University Bochum,       Germany     (CC module)
  Kasper Hald,              Aarhus University,            Denmark     (CC module)
  Asger Halkier,            Aarhus University,            Denmark     (CC module)
  Hanne Heiberg,            University of Oslo,           Norway      (geometry analysis, selected one-electron integrals)
  Trygve Helgaker,          University of Oslo,           Norway      (DALTON; ABACUS, ERI, DFT modules, London, and much more)
  Alf Christian Hennum,     University of Oslo,           Norway      (Parity violation)
  Hinne Hettema,            University of Auckland,       New Zealand (quadratic response in RESPONS; SIRIUS supersymmetry)
  Eirik Hjertenaes,         NTNU,                         Norway      (Cholesky decomposition)
  Maria Francesca Iozzi,    University of Oslo,           Norway      (RPA)
  Brano Jansik              Technical Univ. of Ostrava    Czech Rep.  (DFT cubic response)
  Hans Joergen Aa. Jensen,  Univ. of Southern Denmark,    Denmark     (DALTON; SIRIUS, RESPONS, ABACUS modules, London, and much more)
  Dan Jonsson,              UiT The Arctic U. of Norway,  Norway      (cubic response in RESPONS module)
  Poul Joergensen,          Aarhus University,            Denmark     (RESPONS, ABACUS, and CC modules)
  Joanna Kauczor,           Linkoeping University,        Sweden      (Complex polarization propagator (CPP) module)
  Sheela Kirpekar,          Univ. of Southern Denmark,    Denmark     (Mass-velocity & Darwin integrals)
  Wim Klopper,              KIT Karlsruhe,                Germany     (R12 code in CC, SIRIUS, and ABACUS modules)
  Stefan Knecht,            ETH Zurich,                   Switzerland (Parallel CI and MCSCF)
  Rika Kobayashi,           Australian National Univ.,    Australia   (DIIS in CC, London in MCSCF)
  Henrik Koch,              NTNU,                         Norway      (CC module, Cholesky decomposition)
  Jacob Kongsted,           Univ. of Southern Denmark,    Denmark     (Polarizable embedding, QM/MM)
  Andrea Ligabue,           University of Modena,         Italy       (CTOCD, AOSOPPA)
  Ola B. Lutnaes,           University of Oslo,           Norway      (DFT Hessian)
  Juan I. Melo,             University of Buenos Aires,   Argentina   (LRESC, Relativistic Effects on NMR Shieldings)
  Kurt V. Mikkelsen,        University of Copenhagen,     Denmark     (MC-SCRF and QM/MM)
  Rolf H. Myhre,            NTNU,                         Norway      (Cholesky, subsystems and ECC2)
  Christian Neiss,          Univ. Erlangen-Nuernberg,     Germany     (CCSD(R12))
  Christian B. Nielsen,     University of Copenhagen,     Denmark     (QM/MM)
  Patrick Norman,           Linkoeping University,        Sweden      (Cubic response and complex response in RESPONS)
  Jeppe Olsen,              Aarhus University,            Denmark     (SIRIUS CI/density modules)
  Jogvan Magnus H. Olsen,   Univ. of Southern Denmark,    Denmark     (Polarizable embedding, PE library, QM/MM)
  Anders Osted,             Copenhagen University,        Denmark     (QM/MM)
  Martin J. Packer,         University of Sheffield,      UK          (SOPPA)
  Filip Pawlowski,          Kazimierz Wielki University   Poland      (CC3)
  Thomas B. Pedersen,       University of Oslo,           Norway      (Cholesky decomposition)
  Patricio F. Provasi,      University of Northeastern,   Argentina   (Analysis of coupling constants in localized orbitals)
  Zilvinas Rinkevicius,     KTH Stockholm,                Sweden      (open-shell DFT, ESR)
  Elias Rudberg,            KTH Stockholm,                Sweden      (DFT grid and basis info)
  Torgeir A. Ruden,         University of Oslo,           Norway      (Numerical derivatives in ABACUS)
  Kenneth Ruud,             UiT The Arctic U. of Norway,  Norway      (DALTON; ABACUS magnetic properties and  much more)
  Pawel Salek,              KTH Stockholm,                Sweden      (DALTON; DFT code)
  Claire C. M. Samson       University of Karlsruhe       Germany     (Boys localization, r12 integrals in ERI)
  Alfredo Sanchez de Meras, University of Valencia,       Spain       (CC module, Cholesky decomposition)
  Trond Saue,               Paul Sabatier University,     France      (direct Fock matrix construction)
  Stephan P. A. Sauer,      University of Copenhagen,     Denmark     (SOPPA(CCSD), SOPPA prop., AOSOPPA, vibrational g-factors)
  Bernd Schimmelpfennig,    Forschungszentrum Karlsruhe,  Germany     (AMFI module)
  Kristian Sneskov,         Aarhus University,            Denmark     (QM/MM, PE-CC)
  Arnfinn H. Steindal,      UiT The Arctic U. of Norway,  Norway      (parallel QM/MM)
  K. O. Sylvester-Hvid,     University of Copenhagen,     Denmark     (MC-SCRF)
  Peter R. Taylor,          VLSCI/Univ. of Melbourne,     Australia   (Symmetry handling ABACUS, integral transformation)
  Andrew M. Teale,          University of Nottingham,     England     (DFT-AC, DFT-D)
  David P. Tew,             University of Bristol,        England     (CCSD(R12))
  Olav Vahtras,             KTH Stockholm,                Sweden      (triplet response, spin-orbit, ESR, TDDFT, open-shell DFT)
  David J. Wilson,          La Trobe University,          Australia   (DFT Hessian and DFT magnetizabilities)
  Hans Agren,               KTH Stockholm,                Sweden      (SIRIUS module, RESPONS, MC-SCRF solvation model)
 --------------------------------------------------------------------------------

     Date and time (Linux)  : Sun Sep  8 20:41:56 2013
     Host name              : lpqlx131.ups-tlse.fr                    

 * Work memory size             :    64000000 =  488.28 megabytes.

 * Directories for basis set searches:
   1) /home/bast/DALTON-2013.0-Source/build/test_ccmm_beta
   2) /home/bast/DALTON-2013.0-Source/build/basis


Compilation information
-----------------------

 Who compiled             | bast
 Host                     | lpqlx131.ups-tlse.fr
 System                   | Linux-3.8.5-201.fc18.x86_64
 CMake generator          | Unix Makefiles
 Processor                | x86_64
 64-bit integers          | OFF
 MPI                      | OFF
 Fortran compiler         | /usr/bin/gfortran
 Fortran compiler version | GNU Fortran (GCC) 4.7.2 20121109 (Red Hat 4.7.2-8)
 C compiler               | /usr/bin/gcc
 C compiler version       | gcc (GCC) 4.7.2 20121109 (Red Hat 4.7.2-8)
 C++ compiler             | /usr/bin/g++
 C++ compiler version     | g++ (GCC) 4.7.2 20121109 (Red Hat 4.7.2-8)
 Static linking           | OFF
 Last Git revision        | f34203295a86316e27f9e7b44f9b6769c4a046c0
 Configuration time       | 2013-09-08 20:31:27.952056


   Content of the .dal input file
 ----------------------------------

**DALTON INPUT                                    
.RUN WAVE FUNCTION                                
*QM3                                              
.QM3                                              
.THRDIP                                           
 1.0D-12                                          
.MAXDIP                                           
 80                                               
!.OLDTG                                           
**INTEGRALS                                       
.DIPLEN                                           
.NUCPOT                                           
.NELFLD                                           
.THETA                                            
.SECMOM                                           
**WAVE FUNCTIONS                                  
.CC                                               
*SCF INP                                          
.THRESH                                           
1.0D-12                                           
*CC INP                                           
.CC2                                              
.CCSD                                             
.THRLEQ                                           
 1.0D-12                                          
.THRENR                                           
 1.0D-12                                          
.MAX IT                                           
 90                                               
.MXLRV                                            
 680                                              
*CCSLV                                            
.CCMM                                             
.ETOLSL                                           
 1.0D-11                                          
.TTOLSL                                           
 1.0D-11                                          
.LTOLSL                                           
 1.0D-11                                          
.MXSLIT                                           
 200                                              
.MXINIT                                           
 4 5                                              
*CCFOP                                            
.DIPMOM                                           
.NONREL                                           
*CCQR                                             
.DIPOLE                                           
.SHGFRE                                           
 1                                                
 0.0040                                           
**END OF                                          


   Content of the .mol file
 ----------------------------

ATOMBASIS                                                                      
QM/MM H2O(QM)+ 5 H2O(MM)                                                       
------------------------                                                       
    4    0         1 1.00D-12                                                  
        8.0   1    Bas=6-31G                                                   
O            0.000000        0.000000        0.000000 0 1                      
        1.0   2    Bas=6-31G                                                   
H           -0.756799        0.000000        0.586007 0 2                      
H            0.756799        0.000000        0.586007 0 3                      
   -0.669     5    Bas=MM                                                      
O           -6.022295       -6.249876       -2.389355 1 1                      
O           -0.590747        4.825666       -1.709744 2 1                      
O            2.365069       -0.266593        1.169946 3 1                      
O           -8.979615       -1.935917       -5.707554 4 1                      
O           -5.696915       -2.203270        0.274131 5 1                      
    0.3345   10    Bas=MM                                                      
H           -6.934736       -6.264225       -2.100595 1 2                      
H           -5.562128       -6.801680       -1.756974 1 3                      
H           -1.493716        5.142033       -1.683118 2 2                      
H           -0.065506        5.576575       -1.433333 2 3                      
H            2.261479       -1.103382        1.622925 3 2                      
H            3.132239       -0.390013        0.611059 3 3                      
H           -8.312439       -2.243695       -5.094117 4 2                      
H           -8.719849       -2.307644       -6.550450 4 3                      
H           -4.847884       -2.109424       -0.157695 5 2                      
H           -6.336813       -2.008951       -0.410639 5 3                      


       *******************************************************************
       *********** Output from DALTON general input processing ***********
       *******************************************************************

 --------------------------------------------------------------------------------
   Overall default print level:    0
   Print level for DALTON.STAT:    1

    HERMIT 1- and 2-electron integral sections will be executed
    "Old" integral transformation used (limited to max 255 basis functions)
    Wave function sections will be executed (SIRIUS module)
 --------------------------------------------------------------------------------


 Changes of defaults for *QM3   :
 --------------------------------

 +------------------+
 |  WORD: | CHANGE: |
 +------------------+
 |    QM3 |       T |
 | THDISC | 1.0D-12 |
 |  PRINT |       0 |
 +------------------+
  Settings for determination of induced dipoles:
  Iterative Method is used
 +------------------+


    *************************************************************************
    *************** Output from MM potential input processing ***************
    *************************************************************************



 ------------------------------------------------------------------------
 | QM-sys type: | Systems:    | Model:  | Electric properties:          |
 ------------------------------------------------------------------------
 |          0   | [   0;   0] | SPC_E01 |                               |
 |              |             |         |   Q( 1)= -0.6690              |
 |              |             |         |   Q( 2)=  0.3345              |
 |              |             |         |   Q( 3)=  0.3345              |
 |              |             |         | Isotropic polarizability:     |
 |              |             |         | alp( 1)=  9.7180              |
 ------------------------------------------------------------------------


 ------------------------------------------------------------------------
 | MM-sys type: | Systems:    | Model:  | Electric properties:          |
 ------------------------------------------------------------------------
 |          1   | [   1;   5] | SPC_E01 | Isotropic polarizability:     |
 |              |             |         | alp( 1)=  9.7180              |
 ------------------------------------------------------------------------




   ****************************************************************************
   *************** Output of molecule and basis set information ***************
   ****************************************************************************


    The two title cards from your ".mol" input:
    ------------------------------------------------------------------------
 1: QM/MM H2O(QM)+ 5 H2O(MM)                                                
 2: ------------------------                                                
    ------------------------------------------------------------------------

  Coordinates are entered in Angstrom and converted to atomic units.
          - Conversion factor : 1 bohr = 0.52917721 A

  Atomic type no.    1
  --------------------
  Nuclear charge:   8.00000
  Number of symmetry independent centers:    1
  Number of basis sets to read;    2
  The basis set is "6-31G" from the basis set library.
  Basis set file used for this atomic type with Z =   8 :
     "/home/bast/DALTON-2013.0-Source/build/basis/6-31G"

  Info about the basis set file: your basis has no documentation.
  Basis set: 6-31G                                                                           

  Atomic type no.    2
  --------------------
  Nuclear charge:   1.00000
  Number of symmetry independent centers:    2
  Number of basis sets to read;    2
  The basis set is "6-31G" from the basis set library.
  Basis set file used for this atomic type with Z =   1 :
     "/home/bast/DALTON-2013.0-Source/build/basis/6-31G"

  Info about the basis set file: your basis has no documentation.
  Basis set: 6-31G                                                                           

  Atomic type no.    3
  --------------------
  Nuclear charge:  -0.66900
  Number of symmetry independent centers:    5
  Number of basis sets to read;    2
  This is an MM atom without basis functions.

  Atomic type no.    4
  --------------------
  Nuclear charge:   0.33450
  Number of symmetry independent centers:   10
  Number of basis sets to read;    2
  This is an MM atom without basis functions.


                         SYMGRP: Point group information
                         -------------------------------

Point group: C1 


                                 Isotopic Masses
                                 ---------------

                           O          15.994915
                           H           1.007825
                           H           1.007825

                       Total mass:    18.010565 amu
                       Natural abundance:  99.730 %

 Center-of-mass coordinates (a.u.):    0.000000    0.000000    0.123934


  Atoms and basis sets
  --------------------

  Number of atom types :    5
  Total number of atoms:   24

  label    atoms   charge   prim   cont     basis
  ----------------------------------------------------------------------
  O           1    8.0000    22     9      [10s4p|3s2p]                                       
  H           2    1.0000     4     2      [4s|2s]                                            
  O           5   -0.6690     0     0      Point Charge                                       
  H          10    0.3345     0     0      Point Charge                                       
  a           6    0.0000     0     0      Point Charge                                       
  ----------------------------------------------------------------------
  total:     24   10.0000    30    13
  ----------------------------------------------------------------------

  Threshold for neglecting AO integrals:  1.00D-12


  Cartesian Coordinates (a.u.)
  ----------------------------

  Total number of coordinates:   72
  O       :     1  x   0.0000000000    2  y   0.0000000000    3  z   0.0000000000
  H       :     4  x  -1.4301428417    5  y   0.0000000000    6  z   1.1073927373
  H       :     7  x   1.4301428417    8  y   0.0000000000    9  z   1.1073927373

  Max    interatomic separation is    1.5136 Angstrom (    2.8603 Bohr)
  between atoms    3 and    2, "H     " and "H     ".

  Min HX interatomic separation is    0.9572 Angstrom (    1.8088 Bohr)

  Max QM+MM interatomic separation is   13.9799 Angstrom (   26.4181 Bohr)
  between the QM+MM centers   16 and   14, "H     " and "H     ".




 Principal moments of inertia (u*A**2) and principal axes
 --------------------------------------------------------

   IA       0.614717          1.000000    0.000000    0.000000
   IB       1.154453          0.000000    0.000000    1.000000
   IC       1.769170          0.000000    1.000000    0.000000


 Rotational constants
 --------------------

 The molecule is planar.

               A                   B                   C

         822132.5951         437764.9384         285658.8058 MHz
           27.423392           14.602267            9.528552 cm-1


@  Nuclear repulsion energy :    9.195434983361 Hartree
      QM3 induced dipole vector converged in  15 iterations.
      Final norm2 of QM3 induced dipole moment vector:    0.033716379189391


    **************************************************************************
    ***************** The MM/MM classical interaction energy *****************
    **************************************************************************


 ------------------------------------------------------------------------
 |  Eelec = Sum_n,s[ (Q_n*Q_s)/|R_n - R_s| ]        |       -0.00070616 |
 |  Epol  = - 1/2*Sum_a[ Pind_a*E^site_a ]          |        0.00000097 |
 |  Evdw  = Sum_a[ A_ma/|R_ma|^12 - B_ma/|R_ma|^6 ] |       -0.00011662 |
 ------------------------------------------------------------------------
 |  E(MM/MM) = Eelec + Epol + Evdw                  |       -0.00082181 |
 ------------------------------------------------------------------------




     ************************************************************************
     *************** The "QM"/MM classical interaction energy ***************
     ************************************************************************


 ------------------------------------------------------------------------
 |  Eelec = Sum_n,s[ (Q_n*Q_s)/|R_n - R_s| ]        |       -0.00717456 |
 |  Epol  = - 1/2*Sum_a[ Pind_a*E^(QMclassic)_a ]   |       -0.00099428 |
 |  Evdw  = Sum_a[ A_ma/|R_ma|^12 - B_ma/|R_ma|^6 ] |        0.00511097 |
 ------------------------------------------------------------------------
 |  E("QM"/MM) = Eelec + Epol + Evdw                |       -0.00305786 |
 ------------------------------------------------------------------------




                     .---------------------------------------.
                     | Starting in Integral Section (HERMIT) |
                     `---------------------------------------'



    *************************************************************************
    ****************** Output from HERMIT input processing ******************
    *************************************************************************


 Default print level:        1

 * Nuclear model: Point charge

 Calculation of one- and two-electron Hamiltonian integrals.

 The following one-electron property integrals are calculated as requested:
          - overlap integrals
          - dipole length integrals
          - traceless quadrupole moment integrals
          - second moment integrals
          - Electric field at the nuclei
          - Potential energy at the nuclei

 Center of mass  (bohr):      0.000000000000      0.000000000000      0.123933711741
 Operator center (bohr):      0.000000000000      0.000000000000      0.000000000000
 Gauge origin    (bohr):      0.000000000000      0.000000000000      0.000000000000
 Dipole origin   (bohr):      0.000000000000      0.000000000000      0.000000000000


     ************************************************************************
     ************************** Output from HERINT **************************
     ************************************************************************


 Threshold for neglecting two-electron integrals:  1.00D-12
 Number of two-electron integrals written:        2260 ( 54.0% )
 Megabytes written:                              0.027

 >>>> Total CPU  time used in HERMIT:   0.01 seconds
 >>>> Total wall time used in HERMIT:   0.02 seconds


                        .----------------------------------.
                        | End of Integral Section (HERMIT) |
                        `----------------------------------'



                   .--------------------------------------------.
                   | Starting in Wave Function Section (SIRIUS) |
                   `--------------------------------------------'


 *** Output from Huckel module :

     Using EWMO model:          F
     Using EHT  model:          T
     Number of Huckel orbitals each symmetry:    7

 Huckel EHT eigenvalues for symmetry :  1
          -20.705641      -1.506569      -0.731292      -0.670540      -0.616200
           -0.292149      -0.257509

 **********************************************************************
 *SIRIUS* a direct, restricted step, second order MCSCF program       *
 **********************************************************************

 
     Date and time (Linux)  : Sun Sep  8 20:41:56 2013
     Host name              : lpqlx131.ups-tlse.fr                    

 Title lines from ".mol" input file:
     QM/MM H2O(QM)+ 5 H2O(MM)                                                
     ------------------------                                                

 Print level on unit LUPRI =   2 is   0
 Print level on unit LUW4  =   2 is   5

@    (Integral direct) CC calculation.

@    This is a combination run starting with
@              a restricted, closed shell Hartree-Fock calculation


 Initial molecular orbitals are obtained according to
 ".MOSTART EHT   " input option

@    QM part is embedded in an environment :

@         Model: QM3

     Wave function specification
     ============================

     For the specification of the Coupled Cluster: see later.

@    For the wave function of type :      >>> CC <<<
@    Number of closed shell electrons          10
@    Number of electrons in active shells       0
@    Total charge of the molecule               0

@    Spin multiplicity and 2 M_S                1         0
     Total number of symmetries                 1
@    Reference state symmetry                   1

     Orbital specifications
     ======================
     Abelian symmetry species          All |    1
                                       --- |  ---
@    Occupied SCF orbitals               5 |    5
     Secondary orbitals                  8 |    8
     Total number of orbitals           13 |   13
     Number of basis functions          13 |   13

     Optimization information
     ========================
@    Number of configurations                 1
@    Number of orbital rotations             40
     ------------------------------------------
@    Total number of variables               41

     Maximum number of Fock   iterations      0
     Maximum number of DIIS   iterations     60
     Maximum number of QC-SCF iterations     60
     Threshold for SCF convergence     1.00D-12


 Changes of defaults for CC:
 ---------------------------

 -Quadratic response properties calculated
 -Dipole moment calculated
  


 >>>>> DIIS optimization of Hartree-Fock <<<<<

 C1-DIIS algorithm; max error vectors =   10

 Iter      Total energy       Solvation energy    Error norm    Delta(E)
 -----------------------------------------------------------------------------
     (Precalculated two-electron integrals are transformed to P-supermatrix elements.
      Threshold for discarding integrals :  1.00D-12 )
@  1  -75.5456976135       0.00000000000        2.03919D+00   -7.55D+01
      Virial theorem: -V/T =      1.996280
@      MULPOP O      -0.48; H       0.24; H       0.24; 
 -----------------------------------------------------------------------------
@  2  -75.7267822029       0.00000000000        3.00028D-01   -1.81D-01
      Virial theorem: -V/T =      1.995726
@      MULPOP O      -0.77; H       0.36; H       0.40; 
 -----------------------------------------------------------------------------
@  3  -75.7342634601       0.00000000000        9.38289D-02   -7.48D-03
      Virial theorem: -V/T =      1.998184
@      MULPOP O      -0.80; H       0.37; H       0.43; 
 -----------------------------------------------------------------------------
@  4  -75.7346915206       0.00000000000        3.74554D-02   -4.28D-04
      Virial theorem: -V/T =      1.995958
@      MULPOP O      -0.82; H       0.38; H       0.44; 
 -----------------------------------------------------------------------------
@  5  -75.7347694322       0.00000000000        2.99705D-03   -7.79D-05
      Virial theorem: -V/T =      1.996589
@      MULPOP O      -0.82; H       0.38; H       0.44; 
 -----------------------------------------------------------------------------
@  6  -75.7347704718       0.00000000000        4.76619D-04   -1.04D-06
      Virial theorem: -V/T =      1.996594
@      MULPOP O      -0.83; H       0.38; H       0.44; 
 -----------------------------------------------------------------------------
@  7  -75.7347705019       0.00000000000        4.85767D-05   -3.01D-08
      Virial theorem: -V/T =      1.996596
@      MULPOP O      -0.83; H       0.38; H       0.44; 
 -----------------------------------------------------------------------------
@  8  -75.7347705023       0.00000000000        1.32001D-05   -3.96D-10
      Virial theorem: -V/T =      1.996596
@      MULPOP O      -0.83; H       0.38; H       0.44; 
 -----------------------------------------------------------------------------
@  9  -75.7347705024       0.00000000000        2.35167D-06   -3.99D-11
      Virial theorem: -V/T =      1.996596
@      MULPOP O      -0.83; H       0.38; H       0.44; 
 -----------------------------------------------------------------------------
@ 10  -75.7347705024       0.00000000000        3.44957D-07   -1.21D-12
      Virial theorem: -V/T =      1.996596
@      MULPOP O      -0.83; H       0.38; H       0.44; 
 -----------------------------------------------------------------------------
@ 11  -75.7347705024       0.00000000000        1.00708D-07    0.00D+00
      Virial theorem: -V/T =      1.996596
@      MULPOP O      -0.83; H       0.38; H       0.44; 
 -----------------------------------------------------------------------------
@ 12  -75.7347705024       0.00000000000        1.23242D-08    4.26D-14
      Virial theorem: -V/T =      1.996596
@      MULPOP O      -0.83; H       0.38; H       0.44; 
 -----------------------------------------------------------------------------
@ 13  -75.7347705024       0.00000000000        1.96322D-09   -1.42D-14
      Virial theorem: -V/T =      1.996596
@      MULPOP O      -0.83; H       0.38; H       0.44; 
 -----------------------------------------------------------------------------
@ 14  -75.7347705024       0.00000000000        3.63977D-10   -5.68D-14
      Virial theorem: -V/T =      1.996596
@      MULPOP O      -0.83; H       0.38; H       0.44; 
 -----------------------------------------------------------------------------
@ 15  -75.7347705024       0.00000000000        7.89465D-11    2.84D-14
      Virial theorem: -V/T =      1.996596
@      MULPOP O      -0.83; H       0.38; H       0.44; 
 -----------------------------------------------------------------------------
@ 16  -75.7347705024       0.00000000000        1.13072D-11    0.00D+00
      Virial theorem: -V/T =      1.996596
@      MULPOP O      -0.83; H       0.38; H       0.44; 
 -----------------------------------------------------------------------------
@ 17  -75.7347705024       0.00000000000        3.55985D-12    2.84D-14
      Virial theorem: -V/T =      1.996596
@      MULPOP O      -0.83; H       0.38; H       0.44; 
 -----------------------------------------------------------------------------
@ 18  -75.7347705024       0.00000000000        7.37994D-13   -5.68D-14

@ *** DIIS converged in  18 iterations !
@     Converged SCF energy, gradient:    -75.734770502377    7.38D-13
    - total time used in SIRFCK :              0.00 seconds


 *** SCF orbital energy analysis ***
    (incl. solvent contribution)

 Only the five lowest virtual orbital energies printed in each symmetry.

 Number of electrons :   10
 Orbital occupations :    5

 Sym       Hartree-Fock orbital energies

  1    -20.53139127    -1.32833870    -0.68087716    -0.53438164    -0.47463990
         0.23659277     0.34921503     1.08708322     1.18962625     1.21913195

    E(LUMO) :     0.23659277 au (symmetry 1)
  - E(HOMO) :    -0.47463990 au (symmetry 1)
  ------------------------------------------
    gap     :     0.71123267 au

 >>> Writing SIRIFC interface file <<<

 >>>> CPU and wall time for SCF :       0.008       0.018


                       .-----------------------------------.
                       | >>> Final results from SIRIUS <<< |
                       `-----------------------------------'


@    Spin multiplicity:           1
@    Spatial symmetry:            1
@    Total charge of molecule:    0

     QM/MM "QM3" calculation converged :

        Electrostatic energy:       0.000000000000
        Polarization energy:        0.000000000000
        van der Waals energy:       0.005110972486
        Total QM/MM energy:         0.000000000000

@    Final HF energy:             -75.734770502377                 
@    Nuclear repulsion:             9.195434983361
@    Electronic energy:           -84.930205485738

@    Final gradient norm:           0.000000000001

 
     Date and time (Linux)  : Sun Sep  8 20:41:56 2013
     Host name              : lpqlx131.ups-tlse.fr                    

 (Only coefficients >0.0100 are printed.)

 Molecular orbitals for symmetry species  1
 ------------------------------------------

    Orbital         1        2        3        4        5        6        7
   1 O   :1s     0.9958  -0.2127  -0.0031   0.0747  -0.0015   0.0835   0.0187
   2 O   :1s     0.0220   0.4683   0.0053  -0.1782   0.0048  -0.1065  -0.0386
   3 O   :1s    -0.0080   0.4831   0.0229  -0.2978   0.0036  -1.1500  -0.2217
   4 O   :2px   -0.0000  -0.0010   0.5084   0.0081   0.0006   0.0706  -0.3334
   5 O   :2py   -0.0000  -0.0011  -0.0004   0.0067   0.6395   0.0032   0.0013
   6 O   :2pz    0.0021   0.1113   0.0019   0.5514  -0.0052  -0.2226  -0.0462
   7 O   :2px    0.0000  -0.0000   0.2771   0.0112   0.0000   0.1784  -0.7957
   8 O   :2py    0.0000  -0.0017  -0.0007   0.0053   0.5122  -0.0012  -0.0006
   9 O   :2pz   -0.0019   0.0605   0.0052   0.4084  -0.0042  -0.4612  -0.0847
  10 H   :1s     0.0001   0.1412  -0.2657   0.1432  -0.0004   0.0556  -0.0352
  11 H   :1s     0.0020  -0.0062  -0.1275   0.0862  -0.0023   1.2635  -1.1495
  12 H   :1s     0.0001   0.1361   0.2560   0.1405   0.0004   0.0545   0.0639
  13 H   :1s     0.0020  -0.0126   0.1017   0.0622  -0.0025   0.6776   1.5463



 >>>> Total CPU  time used in SIRIUS :      0.01 seconds
 >>>> Total wall time used in SIRIUS :      0.02 seconds

 
     Date and time (Linux)  : Sun Sep  8 20:41:56 2013
     Host name              : lpqlx131.ups-tlse.fr                    

 NOTE:    1 warnings have been issued.
 Check output, result, and error files for "WARNING".


                     .---------------------------------------.
                     | End of Wave Function Section (SIRIUS) |
                     `---------------------------------------'



                    .------------------------------------------.
                    | Starting in Coupled Cluster Section (CC) |
                    `------------------------------------------'

  

 *******************************************************************************
 *******************************************************************************
 *                                                                             *
 *                                                                             *
 *                    START OF COUPLED CLUSTER CALCULATION                     *
 *                                                                             *
 *                                                                             *
 *******************************************************************************
 *******************************************************************************



 CCR12 ANSATZ =   0

 CCR12 APPROX =   0

   

 *******************************************************************
 *                                                                 *
 *<<<<<<<<<<                                             >>>>>>>>>>*
 *<<<<<<<<<< OUTPUT FROM COUPLED CLUSTER ENERGY PROGRAM  >>>>>>>>>>*
 *<<<<<<<<<<                                             >>>>>>>>>>*
 *                                                                 *
 *******************************************************************


             The Direct Coupled Cluster Energy Program
             -----------------------------------------


          Number of t1 amplitudes                 :        40
          Number of t2 amplitudes                 :       820
          Total number of amplitudes in ccsd      :       860

 Iter.  1: Coupled cluster MP2   energy :     -75.8631893666626951
 Iter.  1: Coupled cluster CC2   energy :     -75.8631727600755283
 Iter.  2: Coupled cluster CC2   energy :     -75.8638699790340496
 Iter.  3: Coupled cluster CC2   energy :     -75.8639370133077904
 Iter.  4: Coupled cluster CC2   energy :     -75.8639298488764808

 CC2  energy will not be converged further

 right now in CCSLV calc.
 Accumulated inner iterations at this point are     4

 CC2   energy converged to within   0.10D-11 is          -75.863929848876
 Final 2-norm of the CC vector function:  4.47062349D-04
  Change in norm^2 of T-amplitudes in this solvent it.:   1.9204132524447633E-002




                   +--------------------------------------------+
                   ! Calculating singlet intermediates for CCLR !
                   +--------------------------------------------+



            E-intermediates calculated 
            Fock-intermediate calculated 


   

 *******************************************************************
 *                                                                 *
 *<<<<<<<<<<<<< OUTPUT FROM COUPLED CLUSTER RESPONSE  >>>>>>>>>>>>>*
 *                                                                 *
 *<<<<<<<<<<    CALCULATION OF FIRST ORDER PROPERTIES    >>>>>>>>>>*
 *                                                                 *
 *******************************************************************



                         +-------------------------------+
                         ! Coupled Cluster model is: CC2 !
                         +-------------------------------+

 RPA: call cceq_str
 RPA: exit cceq_str
  CCSLV: We stop for now though not fully converged yet
  Accumulated inner iterations are:           9
  Change in norm^2 of L-amplitudes in this ccmm it.:  0.14749093991407317     
 Total <Lambda|H|CC> energy:   -75.863921879737589     
            The singles contribution is:            -0.0000010093
            The doubles contribution is:             0.0000089784
 CCFOP: call CC_D1AO to recalc the 1e Density


                            +--------------------------+
                            ! CC2  Natural Occupations !
                            +--------------------------+

  
   Symmetry block number:  1
   ---------------------
  
   1.99995640   1.99004391   1.98177571   1.97712863   1.97488575
   0.02268993   0.02102073   0.01757345   0.01016062   0.00228732
   0.00173058   0.00044901   0.00029795
  
   Sum in this symmetry class:  10.000000
  
  
   Total Sum of natural occupation numbers:  10.000000
  
   Dynamical correlation move: 0.076210 electrons
   

 *****************************************************************
 **** Output from Coupled Cluster/Molecular Mechanics program ****
 *****************************************************************


                         +-------------------------------+
                         ! Coupled Cluster model is: CC2 !
                         +-------------------------------+

      QM3 induced Dipole vector converged in   7 iterations.
      Final norm2 of QM3 induced dipole moment vector:    0.039457868326597


 E(QM/MM) contribution in iteration  0:           -0.0078188390
 CC energy in the  current CCMM iteration:       -76.1207410252
 CC energy in the previous CCMM iteration:         0.0000000000
 Change in Total energy in this CCMM it.:         -0.761207E+02


 *****************************************************************
 ******* End of Coupled Cluster/Molecular Mechanics program ******
 *****************************************************************
  


             +--------------------------------------------------------+
             ! Unrelaxed  CC2    First-order one-electron properties: !
             +--------------------------------------------------------+



                            +-------------------------+
                            !  Electric Dipole Moment !
                            +-------------------------+



                          Total Molecular Dipole Moment
                          -----------------------------

                 au               Debye          C m (/(10**-30)

      x      0.07646817         0.19436268         0.64832413
      y      0.00545206         0.01385775         0.04622448
      z      1.03069378         2.61976212         8.73858582


   

 *******************************************************************
 *                                                                 *
 *<<<<<<<<<<                                             >>>>>>>>>>*
 *<<<<<<<<<< OUTPUT FROM COUPLED CLUSTER ENERGY PROGRAM  >>>>>>>>>>*
 *<<<<<<<<<<                                             >>>>>>>>>>*
 *                                                                 *
 *******************************************************************


             The Direct Coupled Cluster Energy Program
             -----------------------------------------


          Number of t1 amplitudes                 :        40
          Number of t2 amplitudes                 :       820
          Total number of amplitudes in ccsd      :       860

 Iter.  1: Coupled cluster RSTAR energy :     -75.8639298488764808
 Iter.  1: Coupled cluster CC2   energy :     -75.8639055169989831
 Iter.  2: Coupled cluster CC2   energy :     -75.8638400958987944
 Iter.  3: Coupled cluster CC2   energy :     -75.8638426793585552
 Iter.  4: Coupled cluster CC2   energy :     -75.8638432495741171

 CC2  energy will not be converged further

 right now in CCSLV calc.
 Accumulated inner iterations at this point are    13

 CC2   energy converged to within   0.10D-11 is          -75.863843249574
 Final 2-norm of the CC vector function:  1.21978390D-04
  Change in norm^2 of T-amplitudes in this solvent it.:  -1.0874533901526762E-004




                   +--------------------------------------------+
                   ! Calculating singlet intermediates for CCLR !
                   +--------------------------------------------+



            E-intermediates calculated 
            Fock-intermediate calculated 


   

 *******************************************************************
 *                                                                 *
 *<<<<<<<<<<<<< OUTPUT FROM COUPLED CLUSTER RESPONSE  >>>>>>>>>>>>>*
 *                                                                 *
 *<<<<<<<<<<    CALCULATION OF FIRST ORDER PROPERTIES    >>>>>>>>>>*
 *                                                                 *
 *******************************************************************



                         +-------------------------------+
                         ! Coupled Cluster model is: CC2 !
                         +-------------------------------+

 RPA: call cceq_str
 Vector nr.  1 of symmetry  1 found on file - RESTART SUCCESS
 Start vector is a CC2       L0  vector
 RPA: exit cceq_str
  CCSLV: We stop for now though not fully converged yet
  Accumulated inner iterations are:          18
  Change in norm^2 of L-amplitudes in this ccmm it.:  -5.0890745438941787E-004
 Total <Lambda|H|CC> energy:   -75.863860985105021     
            The singles contribution is:             0.0000133308
            The doubles contribution is:            -0.0000310663
 CCFOP: call CC_D1AO to recalc the 1e Density


                            +--------------------------+
                            ! CC2  Natural Occupations !
                            +--------------------------+

  
   Symmetry block number:  1
   ---------------------
  
   1.99995641   1.99004127   1.98178437   1.97729874   1.97493373
   0.02265882   0.02083979   0.01757081   0.01018073   0.00228579
   0.00172013   0.00044798   0.00028142
  
   Sum in this symmetry class:  10.000000
  
  
   Total Sum of natural occupation numbers:  10.000000
  
   Dynamical correlation move: 0.075985 electrons
   

 *****************************************************************
 **** Output from Coupled Cluster/Molecular Mechanics program ****
 *****************************************************************


                         +-------------------------------+
                         ! Coupled Cluster model is: CC2 !
                         +-------------------------------+

      QM3 induced Dipole vector converged in   6 iterations.
      Final norm2 of QM3 induced dipole moment vector:    0.042255672875887


 E(QM/MM) contribution in iteration  1:           -0.0083807546
 CC energy in the  current CCMM iteration:       -76.1208251381
 CC energy in the previous CCMM iteration:       -76.1207410252
 Change in Total energy in this CCMM it.:         -0.841130E-04


 *****************************************************************
 ******* End of Coupled Cluster/Molecular Mechanics program ******
 *****************************************************************
  


             +--------------------------------------------------------+
             ! Unrelaxed  CC2    First-order one-electron properties: !
             +--------------------------------------------------------+



                            +-------------------------+
                            !  Electric Dipole Moment !
                            +-------------------------+



                          Total Molecular Dipole Moment
                          -----------------------------

                 au               Debye          C m (/(10**-30)

      x      0.10026410         0.25484592         0.85007448
      y      0.00514213         0.01306998         0.04359677
      z      1.04337730         2.65200040         8.84612115


   

 *******************************************************************
 *                                                                 *
 *<<<<<<<<<<                                             >>>>>>>>>>*
 *<<<<<<<<<< OUTPUT FROM COUPLED CLUSTER ENERGY PROGRAM  >>>>>>>>>>*
 *<<<<<<<<<<                                             >>>>>>>>>>*
 *                                                                 *
 *******************************************************************


             The Direct Coupled Cluster Energy Program
             -----------------------------------------


          Number of t1 amplitudes                 :        40
          Number of t2 amplitudes                 :       820
          Total number of amplitudes in ccsd      :       860

 Iter.  1: Coupled cluster RSTAR energy :     -75.8638432495741171
 Iter.  1: Coupled cluster CC2   energy :     -75.8638423050994533
 Iter.  2: Coupled cluster CC2   energy :     -75.8638399389316618
 Iter.  3: Coupled cluster CC2   energy :     -75.8638400100626171
 Iter.  4: Coupled cluster CC2   energy :     -75.8638400214368858

 CC2  energy will not be converged further

 right now in CCSLV calc.
 Accumulated inner iterations at this point are    22

 CC2   energy converged to within   0.10D-11 is          -75.863840021437
 Final 2-norm of the CC vector function:  5.06830298D-06
  Change in norm^2 of T-amplitudes in this solvent it.:  -1.9938669033603418E-006




                   +--------------------------------------------+
                   ! Calculating singlet intermediates for CCLR !
                   +--------------------------------------------+



            E-intermediates calculated 
            Fock-intermediate calculated 


   

 *******************************************************************
 *                                                                 *
 *<<<<<<<<<<<<< OUTPUT FROM COUPLED CLUSTER RESPONSE  >>>>>>>>>>>>>*
 *                                                                 *
 *<<<<<<<<<<    CALCULATION OF FIRST ORDER PROPERTIES    >>>>>>>>>>*
 *                                                                 *
 *******************************************************************



                         +-------------------------------+
                         ! Coupled Cluster model is: CC2 !
                         +-------------------------------+

 RPA: call cceq_str
 Vector nr.  1 of symmetry  1 found on file - RESTART SUCCESS
 Start vector is a CC2       L0  vector
 RPA: exit cceq_str
  CCSLV: We stop for now though not fully converged yet
  Accumulated inner iterations are:          27
  Change in norm^2 of L-amplitudes in this ccmm it.:  -1.1677420744260480E-005
 Total <Lambda|H|CC> energy:   -75.863854846844234     
            The singles contribution is:             0.0000165055
            The doubles contribution is:            -0.0000313309
 CCFOP: call CC_D1AO to recalc the 1e Density


                            +--------------------------+
                            ! CC2  Natural Occupations !
                            +--------------------------+

  
   Symmetry block number:  1
   ---------------------
  
   1.99995641   1.99004095   1.98178462   1.97730574   1.97493478
   0.02265817   0.02083258   0.01757075   0.01018172   0.00228575
   0.00171974   0.00044800   0.00028081
  
   Sum in this symmetry class:  10.000000
  
  
   Total Sum of natural occupation numbers:  10.000000
  
   Dynamical correlation move: 0.075978 electrons
   

 *****************************************************************
 **** Output from Coupled Cluster/Molecular Mechanics program ****
 *****************************************************************


                         +-------------------------------+
                         ! Coupled Cluster model is: CC2 !
                         +-------------------------------+

      QM3 induced Dipole vector converged in   6 iterations.
      Final norm2 of QM3 induced dipole moment vector:    0.042358932296379


 E(QM/MM) contribution in iteration  2:           -0.0084011665
 CC energy in the  current CCMM iteration:       -76.1208243507
 CC energy in the previous CCMM iteration:       -76.1208251381
 Change in Total energy in this CCMM it.:          0.787426E-06


 *****************************************************************
 ******* End of Coupled Cluster/Molecular Mechanics program ******
 *****************************************************************
  


             +--------------------------------------------------------+
             ! Unrelaxed  CC2    First-order one-electron properties: !
             +--------------------------------------------------------+



                            +-------------------------+
                            !  Electric Dipole Moment !
                            +-------------------------+



                          Total Molecular Dipole Moment
                          -----------------------------

                 au               Debye          C m (/(10**-30)

      x      0.10114305         0.25707998         0.85752652
      y      0.00512390         0.01302366         0.04344225
      z      1.04383439         2.65316220         8.84999649


   

 *******************************************************************
 *                                                                 *
 *<<<<<<<<<<                                             >>>>>>>>>>*
 *<<<<<<<<<< OUTPUT FROM COUPLED CLUSTER ENERGY PROGRAM  >>>>>>>>>>*
 *<<<<<<<<<<                                             >>>>>>>>>>*
 *                                                                 *
 *******************************************************************


             The Direct Coupled Cluster Energy Program
             -----------------------------------------


          Number of t1 amplitudes                 :        40
          Number of t2 amplitudes                 :       820
          Total number of amplitudes in ccsd      :       860

 Iter.  1: Coupled cluster RSTAR energy :     -75.8638400214368858
 Iter.  1: Coupled cluster CC2   energy :     -75.8638399824733796
 Iter.  2: Coupled cluster CC2   energy :     -75.8638398955335020
 Iter.  3: Coupled cluster CC2   energy :     -75.8638398974117791
 Iter.  4: Coupled cluster CC2   energy :     -75.8638398976619470

 CC2  energy will not be converged further

 right now in CCSLV calc.
 Accumulated inner iterations at this point are    31

 CC2   energy converged to within   0.10D-11 is          -75.863839897662
 Final 2-norm of the CC vector function:  1.94222248D-07
  Change in norm^2 of T-amplitudes in this solvent it.:  -8.1986763121599804E-008




                   +--------------------------------------------+
                   ! Calculating singlet intermediates for CCLR !
                   +--------------------------------------------+



            E-intermediates calculated 
            Fock-intermediate calculated 


   

 *******************************************************************
 *                                                                 *
 *<<<<<<<<<<<<< OUTPUT FROM COUPLED CLUSTER RESPONSE  >>>>>>>>>>>>>*
 *                                                                 *
 *<<<<<<<<<<    CALCULATION OF FIRST ORDER PROPERTIES    >>>>>>>>>>*
 *                                                                 *
 *******************************************************************



                         +-------------------------------+
                         ! Coupled Cluster model is: CC2 !
                         +-------------------------------+

 RPA: call cceq_str
 Vector nr.  1 of symmetry  1 found on file - RESTART SUCCESS
 Start vector is a CC2       L0  vector
 RPA: exit cceq_str
  CCSLV: We stop for now though not fully converged yet
  Accumulated inner iterations are:          36
  Change in norm^2 of L-amplitudes in this ccmm it.:  -4.2106235878525133E-007
 Total <Lambda|H|CC> energy:   -75.863854635874105     
            The singles contribution is:             0.0000166124
            The doubles contribution is:            -0.0000313506
 CCFOP: call CC_D1AO to recalc the 1e Density


                            +--------------------------+
                            ! CC2  Natural Occupations !
                            +--------------------------+

  
   Symmetry block number:  1
   ---------------------
  
   1.99995641   1.99004094   1.98178463   1.97730599   1.97493482
   0.02265814   0.02083231   0.01757075   0.01018175   0.00228575
   0.00171972   0.00044800   0.00028079
  
   Sum in this symmetry class:  10.000000
  
  
   Total Sum of natural occupation numbers:  10.000000
  
   Dynamical correlation move: 0.075977 electrons
   

 *****************************************************************
 **** Output from Coupled Cluster/Molecular Mechanics program ****
 *****************************************************************


                         +-------------------------------+
                         ! Coupled Cluster model is: CC2 !
                         +-------------------------------+

      QM3 induced Dipole vector converged in   4 iterations.
      Final norm2 of QM3 induced dipole moment vector:    0.042362630411847


 E(QM/MM) contribution in iteration  3:           -0.0084018951
 CC energy in the  current CCMM iteration:       -76.1208243313
 CC energy in the previous CCMM iteration:       -76.1208243507
 Change in Total energy in this CCMM it.:          0.193456E-07


 *****************************************************************
 ******* End of Coupled Cluster/Molecular Mechanics program ******
 *****************************************************************
  


             +--------------------------------------------------------+
             ! Unrelaxed  CC2    First-order one-electron properties: !
             +--------------------------------------------------------+



                            +-------------------------+
                            !  Electric Dipole Moment !
                            +-------------------------+



                          Total Molecular Dipole Moment
                          -----------------------------

                 au               Debye          C m (/(10**-30)

      x      0.10117411         0.25715892         0.85778984
      y      0.00512295         0.01302124         0.04343419
      z      1.04385123         2.65320500         8.85013924


   

 *******************************************************************
 *                                                                 *
 *<<<<<<<<<<                                             >>>>>>>>>>*
 *<<<<<<<<<< OUTPUT FROM COUPLED CLUSTER ENERGY PROGRAM  >>>>>>>>>>*
 *<<<<<<<<<<                                             >>>>>>>>>>*
 *                                                                 *
 *******************************************************************


             The Direct Coupled Cluster Energy Program
             -----------------------------------------


          Number of t1 amplitudes                 :        40
          Number of t2 amplitudes                 :       820
          Total number of amplitudes in ccsd      :       860

 Iter.  1: Coupled cluster RSTAR energy :     -75.8638398976619470
 Iter.  1: Coupled cluster CC2   energy :     -75.8638398962175415
 Iter.  2: Coupled cluster CC2   energy :     -75.8638398931037301
 Iter.  3: Coupled cluster CC2   energy :     -75.8638398931657605
 Iter.  4: Coupled cluster CC2   energy :     -75.8638398931738323

 CC2  energy will not be converged further

 right now in CCSLV calc.
 Accumulated inner iterations at this point are    40

 CC2   energy converged to within   0.10D-11 is          -75.863839893174
 Final 2-norm of the CC vector function:  7.33081795D-09
  Change in norm^2 of T-amplitudes in this solvent it.:  -3.0387726779323998E-009




                   +--------------------------------------------+
                   ! Calculating singlet intermediates for CCLR !
                   +--------------------------------------------+



            E-intermediates calculated 
            Fock-intermediate calculated 


   

 *******************************************************************
 *                                                                 *
 *<<<<<<<<<<<<< OUTPUT FROM COUPLED CLUSTER RESPONSE  >>>>>>>>>>>>>*
 *                                                                 *
 *<<<<<<<<<<    CALCULATION OF FIRST ORDER PROPERTIES    >>>>>>>>>>*
 *                                                                 *
 *******************************************************************



                         +-------------------------------+
                         ! Coupled Cluster model is: CC2 !
                         +-------------------------------+

 RPA: call cceq_str
 Vector nr.  1 of symmetry  1 found on file - RESTART SUCCESS
 Start vector is a CC2       L0  vector
 RPA: exit cceq_str
  CCSLV: We stop for now though not fully converged yet
  Accumulated inner iterations are:          45
  Change in norm^2 of L-amplitudes in this ccmm it.:  -1.5004070708091177E-008
 Total <Lambda|H|CC> energy:   -75.863854628577911     
            The singles contribution is:             0.0000166161
            The doubles contribution is:            -0.0000313515
 CCFOP: call CC_D1AO to recalc the 1e Density


                            +--------------------------+
                            ! CC2  Natural Occupations !
                            +--------------------------+

  
   Symmetry block number:  1
   ---------------------
  
   1.99995641   1.99004093   1.98178463   1.97730600   1.97493483
   0.02265814   0.02083230   0.01757075   0.01018176   0.00228575
   0.00171972   0.00044800   0.00028078
  
   Sum in this symmetry class:  10.000000
  
  
   Total Sum of natural occupation numbers:  10.000000
  
   Dynamical correlation move: 0.075977 electrons
   

 *****************************************************************
 **** Output from Coupled Cluster/Molecular Mechanics program ****
 *****************************************************************


                         +-------------------------------+
                         ! Coupled Cluster model is: CC2 !
                         +-------------------------------+

      QM3 induced Dipole vector converged in   4 iterations.
      Final norm2 of QM3 induced dipole moment vector:    0.042362761833454


 E(QM/MM) contribution in iteration  4:           -0.0084019209
 CC energy in the  current CCMM iteration:       -76.1208243309
 CC energy in the previous CCMM iteration:       -76.1208243313
 Change in Total energy in this CCMM it.:          0.486565E-09


 *****************************************************************
 ******* End of Coupled Cluster/Molecular Mechanics program ******
 *****************************************************************
  


             +--------------------------------------------------------+
             ! Unrelaxed  CC2    First-order one-electron properties: !
             +--------------------------------------------------------+



                            +-------------------------+
                            !  Electric Dipole Moment !
                            +-------------------------+



                          Total Molecular Dipole Moment
                          -----------------------------

                 au               Debye          C m (/(10**-30)

      x      0.10117521         0.25716172         0.85779916
      y      0.00512291         0.01302112         0.04343380
      z      1.04385183         2.65320653         8.85014434


   

 *******************************************************************
 *                                                                 *
 *<<<<<<<<<<                                             >>>>>>>>>>*
 *<<<<<<<<<< OUTPUT FROM COUPLED CLUSTER ENERGY PROGRAM  >>>>>>>>>>*
 *<<<<<<<<<<                                             >>>>>>>>>>*
 *                                                                 *
 *******************************************************************


             The Direct Coupled Cluster Energy Program
             -----------------------------------------


          Number of t1 amplitudes                 :        40
          Number of t2 amplitudes                 :       820
          Total number of amplitudes in ccsd      :       860

 Iter.  1: Coupled cluster RSTAR energy :     -75.8638398931738323
 Iter.  1: Coupled cluster CC2   energy :     -75.8638398931216216
 Iter.  2: Coupled cluster CC2   energy :     -75.8638398930116153
 Iter.  3: Coupled cluster CC2   energy :     -75.8638398930145144
 Iter.  4: Coupled cluster CC2   energy :     -75.8638398930152960

 CC2  energy will not be converged further

 right now in CCSLV calc.
 Accumulated inner iterations at this point are    49

 CC2   energy converged to within   0.10D-11 is          -75.863839893015
 Final 2-norm of the CC vector function:  2.80405398D-10
  Change in norm^2 of T-amplitudes in this solvent it.:  -1.0632252370190720E-010




                   +--------------------------------------------+
                   ! Calculating singlet intermediates for CCLR !
                   +--------------------------------------------+



            E-intermediates calculated 
            Fock-intermediate calculated 


   

 *******************************************************************
 *                                                                 *
 *<<<<<<<<<<<<< OUTPUT FROM COUPLED CLUSTER RESPONSE  >>>>>>>>>>>>>*
 *                                                                 *
 *<<<<<<<<<<    CALCULATION OF FIRST ORDER PROPERTIES    >>>>>>>>>>*
 *                                                                 *
 *******************************************************************



                         +-------------------------------+
                         ! Coupled Cluster model is: CC2 !
                         +-------------------------------+

 RPA: call cceq_str
 Vector nr.  1 of symmetry  1 found on file - RESTART SUCCESS
 Start vector is a CC2       L0  vector
 RPA: exit cceq_str
  CCSLV: We stop for now though not fully converged yet
  Accumulated inner iterations are:          54
  Change in norm^2 of L-amplitudes in this ccmm it.:  -5.2658843952002599E-010
 Total <Lambda|H|CC> energy:   -75.863854628323892     
            The singles contribution is:             0.0000166162
            The doubles contribution is:            -0.0000313515
 CCFOP: call CC_D1AO to recalc the 1e Density


                            +--------------------------+
                            ! CC2  Natural Occupations !
                            +--------------------------+

  
   Symmetry block number:  1
   ---------------------
  
   1.99995641   1.99004093   1.98178463   1.97730600   1.97493483
   0.02265814   0.02083230   0.01757075   0.01018176   0.00228575
   0.00171972   0.00044800   0.00028078
  
   Sum in this symmetry class:  10.000000
  
  
   Total Sum of natural occupation numbers:  10.000000
  
   Dynamical correlation move: 0.075977 electrons
   

 *****************************************************************
 **** Output from Coupled Cluster/Molecular Mechanics program ****
 *****************************************************************


                         +-------------------------------+
                         ! Coupled Cluster model is: CC2 !
                         +-------------------------------+

      QM3 induced Dipole vector converged in   3 iterations.
      Final norm2 of QM3 induced dipole moment vector:    0.042362766467498


 E(QM/MM) contribution in iteration  5:           -0.0084019218
 CC energy in the  current CCMM iteration:       -76.1208243308
 CC energy in the previous CCMM iteration:       -76.1208243309
 Change in Total energy in this CCMM it.:          0.139266E-10


 *****************************************************************
 ******* End of Coupled Cluster/Molecular Mechanics program ******
 *****************************************************************
  


             +--------------------------------------------------------+
             ! Unrelaxed  CC2    First-order one-electron properties: !
             +--------------------------------------------------------+



                            +-------------------------+
                            !  Electric Dipole Moment !
                            +-------------------------+



                          Total Molecular Dipole Moment
                          -----------------------------

                 au               Debye          C m (/(10**-30)

      x      0.10117525         0.25716182         0.85779948
      y      0.00512290         0.01302112         0.04343378
      z      1.04385185         2.65320658         8.85014452


   

 *******************************************************************
 *                                                                 *
 *<<<<<<<<<<                                             >>>>>>>>>>*
 *<<<<<<<<<< OUTPUT FROM COUPLED CLUSTER ENERGY PROGRAM  >>>>>>>>>>*
 *<<<<<<<<<<                                             >>>>>>>>>>*
 *                                                                 *
 *******************************************************************


             The Direct Coupled Cluster Energy Program
             -----------------------------------------


          Number of t1 amplitudes                 :        40
          Number of t2 amplitudes                 :       820
          Total number of amplitudes in ccsd      :       860

 Iter.  1: Coupled cluster RSTAR energy :     -75.8638398930152960
 Iter.  1: Coupled cluster CC2   energy :     -75.8638398930130222
 Iter.  2: Coupled cluster CC2   energy :     -75.8638398930091995
 Iter.  3: Coupled cluster CC2   energy :     -75.8638398930093274

 CC2   energy converged to within   0.10D-11 is          -75.863839893009
 Final 2-norm of the CC vector function:  2.83620095D-11
  Change in norm^2 of T-amplitudes in this solvent it.:  -3.4805561210937697E-012




                   +--------------------------------------------+
                   ! Calculating singlet intermediates for CCLR !
                   +--------------------------------------------+



            E-intermediates calculated 
            Fock-intermediate calculated 


   

 *******************************************************************
 *                                                                 *
 *<<<<<<<<<<<<< OUTPUT FROM COUPLED CLUSTER RESPONSE  >>>>>>>>>>>>>*
 *                                                                 *
 *<<<<<<<<<<    CALCULATION OF FIRST ORDER PROPERTIES    >>>>>>>>>>*
 *                                                                 *
 *******************************************************************



                         +-------------------------------+
                         ! Coupled Cluster model is: CC2 !
                         +-------------------------------+

 RPA: call cceq_str
 Vector nr.  1 of symmetry  1 found on file - RESTART SUCCESS
 Start vector is a CC2       L0  vector
 RPA: exit cceq_str
  CCSLV: We stop for now though not fully converged yet
  Accumulated inner iterations are:          62
  Change in norm^2 of L-amplitudes in this ccmm it.:  -1.8302859228214174E-011
 Total <Lambda|H|CC> energy:   -75.863854628315153     
            The singles contribution is:             0.0000166162
            The doubles contribution is:            -0.0000313515
 CCFOP: call CC_D1AO to recalc the 1e Density


                            +--------------------------+
                            ! CC2  Natural Occupations !
                            +--------------------------+

  
   Symmetry block number:  1
   ---------------------
  
   1.99995641   1.99004093   1.98178463   1.97730600   1.97493483
   0.02265814   0.02083230   0.01757075   0.01018176   0.00228575
   0.00171972   0.00044800   0.00028078
  
   Sum in this symmetry class:  10.000000
  
  
   Total Sum of natural occupation numbers:  10.000000
  
   Dynamical correlation move: 0.075977 electrons
   

 *****************************************************************
 **** Output from Coupled Cluster/Molecular Mechanics program ****
 *****************************************************************


                         +-------------------------------+
                         ! Coupled Cluster model is: CC2 !
                         +-------------------------------+

      QM3 induced Dipole vector converged in   2 iterations.
      Final norm2 of QM3 induced dipole moment vector:    0.042362766629055


 E(QM/MM) contribution in iteration  6:           -0.0084019218
 CC energy in the  current CCMM iteration:       -76.1208243308
 CC energy in the previous CCMM iteration:       -76.1208243308
 Change in Total energy in this CCMM it.:          0.369482E-12


 *****************************************************************
 ******* End of Coupled Cluster/Molecular Mechanics program ******
 *****************************************************************
  


             +--------------------------------------------------------+
             ! Unrelaxed  CC2    First-order one-electron properties: !
             +--------------------------------------------------------+



                            +-------------------------+
                            !  Electric Dipole Moment !
                            +-------------------------+



                          Total Molecular Dipole Moment
                          -----------------------------

                 au               Debye          C m (/(10**-30)

      x      0.10117525         0.25716182         0.85779950
      y      0.00512290         0.01302112         0.04343378
      z      1.04385185         2.65320658         8.85014453


   

 *******************************************************************
 *                                                                 *
 *<<<<<<<<<<                                             >>>>>>>>>>*
 *<<<<<<<<<< OUTPUT FROM COUPLED CLUSTER ENERGY PROGRAM  >>>>>>>>>>*
 *<<<<<<<<<<                                             >>>>>>>>>>*
 *                                                                 *
 *******************************************************************


             The Direct Coupled Cluster Energy Program
             -----------------------------------------


          Number of t1 amplitudes                 :        40
          Number of t2 amplitudes                 :       820
          Total number of amplitudes in ccsd      :       860

 Iter.  1: Coupled cluster RSTAR energy :     -75.8638398930093274
 Iter.  1: Coupled cluster CC2   energy :     -75.8638398930092421

 CC2   energy converged to within   0.10D-11 is          -75.863839893009
 Final 2-norm of the CC vector function:  1.26228059D-11
  Change in norm^2 of T-amplitudes in this solvent it.:  -5.3953369549830654E-014




                   +--------------------------------------------+
                   ! Calculating singlet intermediates for CCLR !
                   +--------------------------------------------+



            E-intermediates calculated 
            Fock-intermediate calculated 


   

 *******************************************************************
 *                                                                 *
 *<<<<<<<<<<<<< OUTPUT FROM COUPLED CLUSTER RESPONSE  >>>>>>>>>>>>>*
 *                                                                 *
 *<<<<<<<<<<    CALCULATION OF FIRST ORDER PROPERTIES    >>>>>>>>>>*
 *                                                                 *
 *******************************************************************



                         +-------------------------------+
                         ! Coupled Cluster model is: CC2 !
                         +-------------------------------+

 RPA: call cceq_str
 Vector nr.  1 of symmetry  1 found on file - RESTART SUCCESS
 Start vector is a CC2       L0  vector
 RPA: exit cceq_str
  Change in norm^2 of L-amplitudes in this ccmm it.:  -6.3615779311021470E-013
 Total <Lambda|H|CC> energy:   -75.863854628314371     
            The singles contribution is:             0.0000166162
            The doubles contribution is:            -0.0000313515
 CCFOP: call CC_D1AO to recalc the 1e Density


                            +--------------------------+
                            ! CC2  Natural Occupations !
                            +--------------------------+

  
   Symmetry block number:  1
   ---------------------
  
   1.99995641   1.99004093   1.98178463   1.97730600   1.97493483
   0.02265814   0.02083230   0.01757075   0.01018176   0.00228575
   0.00171972   0.00044800   0.00028078
  
   Sum in this symmetry class:  10.000000
  
  
   Total Sum of natural occupation numbers:  10.000000
  
   Dynamical correlation move: 0.075977 electrons
   

 *****************************************************************
 **** Output from Coupled Cluster/Molecular Mechanics program ****
 *****************************************************************


                         +-------------------------------+
                         ! Coupled Cluster model is: CC2 !
                         +-------------------------------+

      QM3 induced Dipole vector converged in   2 iterations.
      Final norm2 of QM3 induced dipole moment vector:    0.042362766633543


 E(QM/MM) contribution in iteration  7:           -0.0084019218
 CC energy in the  current CCMM iteration:       -76.1208243308
 CC energy in the previous CCMM iteration:       -76.1208243308
 Change in Total energy in this CCMM it.:          0.540012E-12




 ------------------------------------------------------------------------
 |<<<<<<<<<<<<<<< The MM/MM classical interaction energy >>>>>>>>>>>>>>>|
 ------------------------------------------------------------------------
 |  Eelec = Sum_n,s[ (Q_n*Q_s)/|R_n - R_s| ]        |       -0.00070616 |
 ------------------------------------------------------------------------
 |  Epol  = - 1/2*Sum_a[ MYind_a*E^site_a ]         |        0.00001096 |
[...]
 Printing first contribution.                                     Norm2 of singles:    1.2829271698315253E-006 Norm2 of doubles:    7.2821430338494341E-006
 Printing second contribution.                                  Norm2 of singles:    7.4214957964919778E-004 Norm2 of doubles:    2.1190453718378890E-003
 K matrix transformation for ITRAN,           6
 IADRTH:           1
 LISTA,IDLSTA:L1            7
 LISTB,IDLSTB:L1            1
 ISYMA,ISYMB,ISYMAB:           1           1           1
 Printing norm2 TGCMO in KMAT:    2.1474606445139204E-002
 Printing first contribution.                                     Norm2 of singles:    7.7253543178800040E-004 Norm2 of doubles:    2.2058227901574283E-003
 Printing second contribution.                                  Norm2 of singles:    1.3421599135185360E-006 Norm2 of doubles:    7.6066130869402298E-006
 K matrix transformation for ITRAN,           7
 IADRTH:           1
 LISTA,IDLSTA:L1            2
 LISTB,IDLSTB:L1            6
 ISYMA,ISYMB,ISYMAB:           1           1           1
 Printing norm2 TGCMO in KMAT:    9.3242001811120338E-006
 Printing first contribution.                                     Norm2 of singles:    1.3603600679494064E-006 Norm2 of doubles:    7.6998191130554872E-006
 Printing second contribution.                                  Norm2 of singles:    8.0097372721316172E-004 Norm2 of doubles:    2.2535702473049641E-003
 K matrix transformation for ITRAN,           8
 IADRTH:           1
 LISTA,IDLSTA:L1            6
 LISTB,IDLSTB:L1            4
 ISYMA,ISYMB,ISYMAB:           1           1           1
 Printing norm2 TGCMO in KMAT:    2.0357941794534772E-002
 Printing first contribution.                                     Norm2 of singles:    7.6964582907895806E-004 Norm2 of doubles:    2.1654109495299135E-003
 Printing second contribution.                                  Norm2 of singles:    1.3006895924791524E-006 Norm2 of doubles:    7.3733762437080635E-006
 K matrix transformation for ITRAN,           9
 IADRTH:           1
 LISTA,IDLSTA:L1            3
 LISTB,IDLSTB:L1           11
 ISYMA,ISYMB,ISYMAB:           1           1           1
 Printing norm2 TGCMO in KMAT:    4.0542813131402107E-003
 Printing first contribution.                                     Norm2 of singles:    1.1573641410156427E-003 Norm2 of doubles:    1.9901211048876542E-003
 Printing second contribution.                                  Norm2 of singles:    3.6114463259566609E-003 Norm2 of doubles:    4.7854293781763348E-003
 K matrix transformation for ITRAN,          10
 IADRTH:           1
 LISTA,IDLSTA:L1           11
 LISTB,IDLSTB:L1            1
 ISYMA,ISYMB,ISYMAB:           1           1           1
 Printing norm2 TGCMO in KMAT:    2.1474606445139204E-002
 Printing first contribution.                                     Norm2 of singles:    3.7592861796232348E-003 Norm2 of doubles:    4.9812000133041085E-003
 Printing second contribution.                                  Norm2 of singles:    1.2092954996992978E-003 Norm2 of doubles:    2.0817820192759865E-003
 K matrix transformation for ITRAN,          11
 IADRTH:           1
 LISTA,IDLSTA:L1            2
 LISTB,IDLSTB:L1           10
 ISYMA,ISYMB,ISYMAB:           1           1           1
 Printing norm2 TGCMO in KMAT:    4.1640491992223578E-003
 Printing first contribution.                                     Norm2 of singles:    1.2241920278187710E-003 Norm2 of doubles:    2.1060902339296917E-003
 Printing second contribution.                                  Norm2 of singles:    3.8451985551440668E-003 Norm2 of doubles:    5.0855967417329489E-003
 K matrix transformation for ITRAN,          12
 IADRTH:           1
 LISTA,IDLSTA:L1           10
 LISTB,IDLSTB:L1            4
 ISYMA,ISYMB,ISYMAB:           1           1           1
 Printing norm2 TGCMO in KMAT:    2.0357941794534772E-002
 Printing first contribution.                                     Norm2 of singles:    3.6948269959808065E-003 Norm2 of doubles:    4.8868420224068071E-003
 Printing second contribution.                                  Norm2 of singles:    1.1719514467696691E-003 Norm2 of doubles:    2.0139193768176846E-003
 K matrix transformation for ITRAN,          13
 IADRTH:           1
 LISTA,IDLSTA:L1            7
 LISTB,IDLSTB:L1            7
 ISYMA,ISYMB,ISYMAB:           1           1           1
 Printing norm2 TGCMO in KMAT:    9.0552756495791753E-006
 Printing first contribution.                                     Norm2 of singles:    6.4290976896796605E-007 Norm2 of doubles:    1.1223714108555599E-006
 K matrix transformation for ITRAN,          14
 IADRTH:           1
 LISTA,IDLSTA:L1            6
 LISTB,IDLSTB:L1            6
 ISYMA,ISYMB,ISYMAB:           1           1           1
 Printing norm2 TGCMO in KMAT:    9.3242001811120338E-006
 Printing first contribution.                                     Norm2 of singles:    6.8746083177059933E-007 Norm2 of doubles:    1.1918031141545747E-006
 K matrix transformation for ITRAN,          15
 IADRTH:           1
 LISTA,IDLSTA:L1            7
 LISTB,IDLSTB:L1           11
 ISYMA,ISYMB,ISYMAB:           1           1           1
 Printing norm2 TGCMO in KMAT:    4.0542813131402107E-003
 Printing first contribution.                                     Norm2 of singles:    1.6996377066641894E-004 Norm2 of doubles:    4.6030797790367803E-004
 Printing second contribution.                                  Norm2 of singles:    1.2820855063387693E-006 Norm2 of doubles:    4.4958801233269272E-006
 K matrix transformation for ITRAN,          16
 IADRTH:           1
 LISTA,IDLSTA:L1            6
 LISTB,IDLSTB:L1           10
 ISYMA,ISYMB,ISYMAB:           1           1           1
 Printing norm2 TGCMO in KMAT:    4.1640491992223578E-003
 Printing first contribution.                                     Norm2 of singles:    1.8350967541957058E-004 Norm2 of doubles:    4.8970151420482308E-004
 Printing second contribution.                                  Norm2 of singles:    1.3670815669905524E-006 Norm2 of doubles:    4.7769910155964767E-006
 K matrix transformation for ITRAN,          17
 IADRTH:           1
 LISTA,IDLSTA:L1           11
 LISTB,IDLSTB:L1           11
 ISYMA,ISYMB,ISYMAB:           1           1           1
 Printing norm2 TGCMO in KMAT:    4.0542813131402107E-003
 Printing first contribution.                                     Norm2 of singles:    8.3001423851732808E-004 Norm2 of doubles:    1.2217793043294975E-003
 K matrix transformation for ITRAN,          18
 IADRTH:           1
 LISTA,IDLSTA:L1           10
 LISTB,IDLSTB:L1           10
 ISYMA,ISYMB,ISYMAB:           1           1           1
 Printing norm2 TGCMO in KMAT:    4.1640491992223578E-003
 Printing first contribution.                                     Norm2 of singles:    8.8414164660240852E-004 Norm2 of doubles:    1.2983215200112865E-003
 K matrix transformation for ITRAN,          19
 IADRTH:           1
 LISTA,IDLSTA:L1            3
 LISTB,IDLSTB:L1            5
 ISYMA,ISYMB,ISYMAB:           1           1           1
 Printing norm2 TGCMO in KMAT:    9.4643900329578958E-006
 Printing first contribution.                                     Norm2 of singles:    1.3395634608993489E-006 Norm2 of doubles:    7.5828482615667261E-006
 Printing second contribution.                                  Norm2 of singles:    7.9983301761325353E-004 Norm2 of doubles:    2.2337518511079220E-003
 K matrix transformation for ITRAN,          20
 IADRTH:           1
 LISTA,IDLSTA:L1            2
 LISTB,IDLSTB:L1            8
 ISYMA,ISYMB,ISYMAB:           1           1           1
 Printing norm2 TGCMO in KMAT:    8.9262268587552908E-006
 Printing first contribution.                                     Norm2 of singles:    1.3035747081443260E-006 Norm2 of doubles:    7.3982621195913885E-006
 Printing second contribution.                                  Norm2 of singles:    7.4386152956351019E-004 Norm2 of doubles:    2.1395653110181179E-003
 K matrix transformation for ITRAN,          21
 IADRTH:           1
 LISTA,IDLSTA:L1            7
 LISTB,IDLSTB:L1            5
 ISYMA,ISYMB,ISYMAB:           1           1           1
 Printing norm2 TGCMO in KMAT:    9.4643900329578958E-006
 Printing first contribution.                                     Norm2 of singles:    6.6907036019560461E-007 Norm2 of doubles:    1.1695671330690326E-006
 Printing second contribution.                                  Norm2 of singles:    6.8353686928568761E-007 Norm2 of doubles:    1.1793285610354217E-006
 K matrix transformation for ITRAN,          22
 IADRTH:           1
 LISTA,IDLSTA:L1            6
 LISTB,IDLSTB:L1            8
 ISYMA,ISYMB,ISYMAB:           1           1           1
 Printing norm2 TGCMO in KMAT:    8.9262268587552908E-006
 Printing first contribution.                                     Norm2 of singles:    6.6090579199330668E-007 Norm2 of doubles:    1.1443034610812812E-006
 Printing second contribution.                                  Norm2 of singles:    6.4712000456213919E-007 Norm2 of doubles:    1.1351126017856288E-006
 K matrix transformation for ITRAN,          23
 IADRTH:           1
 LISTA,IDLSTA:L1           11
 LISTB,IDLSTB:L1            5
 ISYMA,ISYMB,ISYMAB:           1           1           1
 Printing norm2 TGCMO in KMAT:    9.4643900329578958E-006
 Printing first contribution.                                     Norm2 of singles:    1.3370823162976163E-006 Norm2 of doubles:    4.6781572033916446E-006
 Printing second contribution.                                  Norm2 of singles:    1.8319851181594995E-004 Norm2 of doubles:    4.8532421683841607E-004
 K matrix transformation for ITRAN,          24
 IADRTH:           1
 LISTA,IDLSTA:L1           10
 LISTB,IDLSTB:L1            8
 ISYMA,ISYMB,ISYMAB:           1           1           1
 Printing norm2 TGCMO in KMAT:    8.9262268587552908E-006
 Printing first contribution.                                     Norm2 of singles:    1.3115566624657855E-006 Norm2 of doubles:    4.5931683206362808E-006
 Printing second contribution.                                  Norm2 of singles:    1.7040136180610502E-004 Norm2 of doubles:    4.6483703539855237E-004
 K matrix transformation for ITRAN,          25
 IADRTH:           1
 LISTA,IDLSTA:L1            3
 LISTB,IDLSTB:L1            9
 ISYMA,ISYMB,ISYMAB:           1           1           1
 Printing norm2 TGCMO in KMAT:    4.2205442864179914E-003
 Printing first contribution.                                     Norm2 of singles:    1.2052912424325934E-003 Norm2 of doubles:    2.0717285028585340E-003
 Printing second contribution.                                  Norm2 of singles:    3.8129555347666249E-003 Norm2 of doubles:    5.0383879577368231E-003
 K matrix transformation for ITRAN,          26
 IADRTH:           1
 LISTA,IDLSTA:L1            2
 LISTB,IDLSTB:L1           12
 ISYMA,ISYMB,ISYMAB:           1           1           1
 Printing norm2 TGCMO in KMAT:    4.0009454970781387E-003
 Printing first contribution.                                     Norm2 of singles:    1.1757964257073149E-003 Norm2 of doubles:    2.0236006776659329E-003
 Printing second contribution.                                  Norm2 of singles:    3.6436020395795373E-003 Norm2 of doubles:    4.8324988799856479E-003
 K matrix transformation for ITRAN,          27
 IADRTH:           1
 LISTA,IDLSTA:L1            7
 LISTB,IDLSTB:L1            9
 ISYMA,ISYMB,ISYMAB:           1           1           1
 Printing norm2 TGCMO in KMAT:    4.2205442864179914E-003
 Printing first contribution.                                     Norm2 of singles:    1.7700732477691862E-004 Norm2 of doubles:    4.7931647125317676E-004
 Printing second contribution.                                  Norm2 of singles:    1.3542991700468977E-006 Norm2 of doubles:    4.7344835771307524E-006
 K matrix transformation for ITRAN,          28
 IADRTH:           1
 LISTA,IDLSTA:L1            6
 LISTB,IDLSTB:L1           12
 ISYMA,ISYMB,ISYMAB:           1           1           1
 Printing norm2 TGCMO in KMAT:    4.0009454970781387E-003
 Printing first contribution.                                     Norm2 of singles:    1.7624996493777919E-004 Norm2 of doubles:    4.7039329845333263E-004
 Printing second contribution.                                  Norm2 of singles:    1.2947928361858296E-006 Norm2 of doubles:    4.5382402105516149E-006
 K matrix transformation for ITRAN,          29
 IADRTH:           1
 LISTA,IDLSTA:L1           11
 LISTB,IDLSTB:L1            9
 ISYMA,ISYMB,ISYMAB:           1           1           1
 Printing norm2 TGCMO in KMAT:    4.2205442864179914E-003
 Printing first contribution.                                     Norm2 of singles:    8.6438852771652359E-004 Norm2 of doubles:    1.2726690620854402E-003
 Printing second contribution.                                  Norm2 of singles:    8.7653212328287552E-004 Norm2 of doubles:    1.2853063377766185E-003
 K matrix transformation for ITRAN,          30
 IADRTH:           1
 LISTA,IDLSTA:L1           10
 LISTB,IDLSTB:L1           12
 ISYMA,ISYMB,ISYMAB:           1           1           1
 Printing norm2 TGCMO in KMAT:    4.0009454970781387E-003
 Printing first contribution.                                     Norm2 of singles:    8.4918567501514927E-004 Norm2 of doubles:    1.2467120316951592E-003
 Printing second contribution.                                  Norm2 of singles:    8.3759244937565362E-004 Norm2 of doubles:    1.2346996330287428E-003
 +==================================================+



>>> Time used for   30 K matrix transformations:        0.15 seconds.

>>> Time used for   24 F{O} matrix transform.:          0.01 seconds.

>>> Time used for   36 ETA{O} vector calculat.:         0.02 seconds.

>>> Time used for    0 Xksi{O} and Eta{O2} vector calculat.:         0.00 seconds.

>>> Total time for  27 quadratic response func.:        1.02 seconds.


                 +---------------------------------------------------------------------------------------+
                 !                FINAL CCSD RESULTS FOR THE FIRST HYPERPOLARIZABILITIES                 !
                 +---------------------------------------------------------------------------------------+


  A operator                  B operator                  C operator                     property 
------------------------------------------------------------------------------------------------------

 XDIPLEN  (unrel.) -0.0080   XDIPLEN  (unrel.)  0.0040   XDIPLEN  (unrel.)  0.0040      2.6631474    

 XDIPLEN  (unrel.) -0.0080   XDIPLEN  (unrel.)  0.0040   YDIPLEN  (unrel.)  0.0040     0.77732186E-01

 XDIPLEN  (unrel.) -0.0080   XDIPLEN  (unrel.)  0.0040   ZDIPLEN  (unrel.)  0.0040     -23.699455    

 XDIPLEN  (unrel.) -0.0080   YDIPLEN  (unrel.)  0.0040   XDIPLEN  (unrel.)  0.0040     0.77732186E-01

 XDIPLEN  (unrel.) -0.0080   YDIPLEN  (unrel.)  0.0040   YDIPLEN  (unrel.)  0.0040     0.30841549    

 XDIPLEN  (unrel.) -0.0080   YDIPLEN  (unrel.)  0.0040   ZDIPLEN  (unrel.)  0.0040     0.47690049E-02

 XDIPLEN  (unrel.) -0.0080   ZDIPLEN  (unrel.)  0.0040   XDIPLEN  (unrel.)  0.0040     -23.699455    

 XDIPLEN  (unrel.) -0.0080   ZDIPLEN  (unrel.)  0.0040   YDIPLEN  (unrel.)  0.0040     0.47690049E-02

 XDIPLEN  (unrel.) -0.0080   ZDIPLEN  (unrel.)  0.0040   ZDIPLEN  (unrel.)  0.0040      2.1262799    

 YDIPLEN  (unrel.) -0.0080   XDIPLEN  (unrel.)  0.0040   XDIPLEN  (unrel.)  0.0040     0.77769489E-01

 YDIPLEN  (unrel.) -0.0080   XDIPLEN  (unrel.)  0.0040   YDIPLEN  (unrel.)  0.0040     0.30881056    

 YDIPLEN  (unrel.) -0.0080   XDIPLEN  (unrel.)  0.0040   ZDIPLEN  (unrel.)  0.0040     0.47630484E-02

 YDIPLEN  (unrel.) -0.0080   YDIPLEN  (unrel.)  0.0040   XDIPLEN  (unrel.)  0.0040     0.30881056    

 YDIPLEN  (unrel.) -0.0080   YDIPLEN  (unrel.)  0.0040   YDIPLEN  (unrel.)  0.0040     0.26270355E-01

 YDIPLEN  (unrel.) -0.0080   YDIPLEN  (unrel.)  0.0040   ZDIPLEN  (unrel.)  0.0040     -1.9487365    

 YDIPLEN  (unrel.) -0.0080   ZDIPLEN  (unrel.)  0.0040   XDIPLEN  (unrel.)  0.0040     0.47630484E-02

 YDIPLEN  (unrel.) -0.0080   ZDIPLEN  (unrel.)  0.0040   YDIPLEN  (unrel.)  0.0040     -1.9487365    

 YDIPLEN  (unrel.) -0.0080   ZDIPLEN  (unrel.)  0.0040   ZDIPLEN  (unrel.)  0.0040     0.65769292E-01

 ZDIPLEN  (unrel.) -0.0080   XDIPLEN  (unrel.)  0.0040   XDIPLEN  (unrel.)  0.0040     -23.700543    

 ZDIPLEN  (unrel.) -0.0080   XDIPLEN  (unrel.)  0.0040   YDIPLEN  (unrel.)  0.0040     0.47639793E-02

 ZDIPLEN  (unrel.) -0.0080   XDIPLEN  (unrel.)  0.0040   ZDIPLEN  (unrel.)  0.0040      2.1265525    

 ZDIPLEN  (unrel.) -0.0080   YDIPLEN  (unrel.)  0.0040   XDIPLEN  (unrel.)  0.0040     0.47639793E-02

 ZDIPLEN  (unrel.) -0.0080   YDIPLEN  (unrel.)  0.0040   YDIPLEN  (unrel.)  0.0040     -1.9474782    

 ZDIPLEN  (unrel.) -0.0080   YDIPLEN  (unrel.)  0.0040   ZDIPLEN  (unrel.)  0.0040     0.65749420E-01

 ZDIPLEN  (unrel.) -0.0080   ZDIPLEN  (unrel.)  0.0040   XDIPLEN  (unrel.)  0.0040      2.1265525    

 ZDIPLEN  (unrel.) -0.0080   ZDIPLEN  (unrel.)  0.0040   YDIPLEN  (unrel.)  0.0040     0.65749420E-01

 ZDIPLEN  (unrel.) -0.0080   ZDIPLEN  (unrel.)  0.0040   ZDIPLEN  (unrel.)  0.0040     -17.393995    


------------------------------------------------------------------------------------------------------



  

 *******************************************************************************
 *******************************************************************************
 *                                                                             *
 *                                                                             *
 *                   SUMMARY OF COUPLED CLUSTER CALCULATION                    *
 *                                                                             *
 *                                                                             *
 *******************************************************************************
 *******************************************************************************

             CC2 Total  energy:                   -76.1208243308                
             CC2 E(QM/MM)     :                    -0.0084019218                
                                                                                
            CCSD Total  energy:                   -76.1264845194                
            CCSD E(QM/MM)     :                    -0.0082991390                
                                                                                
  

 *******************************************************************************
 *******************************************************************************
 *                                                                             *
 *                                                                             *
 *                      END OF COUPLED CLUSTER CALCULATION                     *
 *                                                                             *
 *                                                                             *
 *******************************************************************************
 *******************************************************************************


 >>>> CPU and wall time for CC :      19.308      23.615

 
     Date and time (Linux)  : Sun Sep  8 20:42:20 2013
     Host name              : lpqlx131.ups-tlse.fr                    


                      .-------------------------------------.
                      | End of Coupled Cluster Section (CC) |
                      `-------------------------------------'

 >>>> Total CPU  time used in DALTON:  19.34 seconds
 >>>> Total wall time used in DALTON:  23.68 seconds

 
     Date and time (Linux)  : Sun Sep  8 20:42:20 2013
     Host name              : lpqlx131.ups-tlse.fr                    
