

     ************************************************************************
     *************** Dalton - An Electronic Structure Program ***************
     ************************************************************************

    This is output from DALTON (Release Dalton2013 patch 0)
   ----------------------------------------------------------------------------
    NOTE:
     
    Dalton is an experimental code for the evaluation of molecular
    properties using (MC)SCF, DFT, CI, and CC wave functions.
    The authors accept no responsibility for the performance of
    the code or for the correctness of the results.
     
    The code (in whole or part) is provided under a licence and
    is not to be reproduced for further distribution without
    the written permission of the authors or their representatives.
     
    See the home page "http://daltonprogram.org" for further information.
     
    If results obtained with this code are published,
    the appropriate citations would be both of:
     
       K. Aidas, C. Angeli, K. L. Bak, V. Bakken, R. Bast,
       L. Boman, O. Christiansen, R. Cimiraglia, S. Coriani,
       P. Dahle, E. K. Dalskov, U. Ekstroem, T. Enevoldsen,
       J. J. Eriksen, P. Ettenhuber, B. Fernandez, L. Ferrighi,
       H. Fliegl, L. Frediani, K. Hald, A. Halkier, C. Haettig,
       H. Heiberg, T. Helgaker, A. C. Hennum, H. Hettema,
       E. Hjertenaes, S. Hoest, I.-M. Hoeyvik, M. F. Iozzi,
       B. Jansik, H. J. Aa. Jensen, D. Jonsson, P. Joergensen,
       J. Kauczor, S. Kirpekar, T. Kjaergaard, W. Klopper,
       S. Knecht, R. Kobayashi, H. Koch, J. Kongsted, A. Krapp,
       K. Kristensen, A. Ligabue, O. B. Lutnaes, J. I. Melo,
       K. V. Mikkelsen, R. H. Myhre, C. Neiss, C. B. Nielsen,
       P. Norman, J. Olsen, J. M. H. Olsen, A. Osted,
       M. J. Packer, F. Pawlowski, T. B. Pedersen, P. F. Provasi,
       S. Reine, Z. Rinkevicius, T. A. Ruden, K. Ruud, V. Rybkin,
       P. Salek, C. C. M. Samson, A. Sanchez de Meras, T. Saue,
       S. P. A. Sauer, B. Schimmelpfennig, K. Sneskov,
       A. H. Steindal, K. O. Sylvester-Hvid, P. R. Taylor,
       A. M. Teale, E. I. Tellgren, D. P. Tew, A. J. Thorvaldsen,
       L. Thoegersen, O. Vahtras, M. A. Watson, D. J. D. Wilson,
       M. Ziolkowski and H. Agren.
       The Dalton quantum chemistry program system.
       WIREs Comput. Mol. Sci. 2013. doi: 10.1002/wcms.1172
    
    and
    
       Dalton, a Molecular Electronic Structure Program,
       Release DALTON2013.0 (2013), see http://daltonprogram.org
   ----------------------------------------------------------------------------

    Authors in alphabetical order (major contribution(s) in parenthesis):

  Kestutis Aidas,           Vilnius University,           Lithuania   (QM/MM)
  Celestino Angeli,         University of Ferrara,        Italy       (NEVPT2)
  Keld L. Bak,              UNI-C,                        Denmark     (AOSOPPA, non-adiabatic coupling, magnetic properties)
  Vebjoern Bakken,          University of Oslo,           Norway      (DALTON; geometry optimizer, symmetry detection)
  Radovan Bast,             KTH Stockholm                 Sweden      (DALTON installation and execution frameworks)
  Linus Boman,              NTNU,                         Norway      (Cholesky decomposition and subsystems)
  Ove Christiansen,         Aarhus University,            Denmark     (CC module)
  Renzo Cimiraglia,         University of Ferrara,        Italy       (NEVPT2)
  Sonia Coriani,            University of Trieste,        Italy       (CC module, MCD in RESPONS)
  Paal Dahle,               University of Oslo,           Norway      (Parallelization)
  Erik K. Dalskov,          UNI-C,                        Denmark     (SOPPA)
  Thomas Enevoldsen,        Univ. of Southern Denmark,    Denmark     (SOPPA)
  Janus J. Eriksen,         Aarhus University,            Denmark     (PE-MP2/SOPPA, TDA)
  Berta Fernandez,          U. of Santiago de Compostela, Spain       (doublet spin, ESR in RESPONS)
  Lara Ferrighi,            Aarhus University,            Denmark     (PCM Cubic response)
  Heike Fliegl,             University of Oslo,           Norway      (CCSD(R12))
  Luca Frediani,            UiT The Arctic U. of Norway,  Norway      (PCM)
  Bin Gao,                  UiT The Arctic U. of Norway,  Norway      (Gen1Int library)
  Christof Haettig,         Ruhr-University Bochum,       Germany     (CC module)
  Kasper Hald,              Aarhus University,            Denmark     (CC module)
  Asger Halkier,            Aarhus University,            Denmark     (CC module)
  Hanne Heiberg,            University of Oslo,           Norway      (geometry analysis, selected one-electron integrals)
  Trygve Helgaker,          University of Oslo,           Norway      (DALTON; ABACUS, ERI, DFT modules, London, and much more)
  Alf Christian Hennum,     University of Oslo,           Norway      (Parity violation)
  Hinne Hettema,            University of Auckland,       New Zealand (quadratic response in RESPONS; SIRIUS supersymmetry)
  Eirik Hjertenaes,         NTNU,                         Norway      (Cholesky decomposition)
  Maria Francesca Iozzi,    University of Oslo,           Norway      (RPA)
  Brano Jansik              Technical Univ. of Ostrava    Czech Rep.  (DFT cubic response)
  Hans Joergen Aa. Jensen,  Univ. of Southern Denmark,    Denmark     (DALTON; SIRIUS, RESPONS, ABACUS modules, London, and much more)
  Dan Jonsson,              UiT The Arctic U. of Norway,  Norway      (cubic response in RESPONS module)
  Poul Joergensen,          Aarhus University,            Denmark     (RESPONS, ABACUS, and CC modules)
  Joanna Kauczor,           Linkoeping University,        Sweden      (Complex polarization propagator (CPP) module)
  Sheela Kirpekar,          Univ. of Southern Denmark,    Denmark     (Mass-velocity & Darwin integrals)
  Wim Klopper,              KIT Karlsruhe,                Germany     (R12 code in CC, SIRIUS, and ABACUS modules)
  Stefan Knecht,            ETH Zurich,                   Switzerland (Parallel CI and MCSCF)
  Rika Kobayashi,           Australian National Univ.,    Australia   (DIIS in CC, London in MCSCF)
  Henrik Koch,              NTNU,                         Norway      (CC module, Cholesky decomposition)
  Jacob Kongsted,           Univ. of Southern Denmark,    Denmark     (Polarizable embedding, QM/MM)
  Andrea Ligabue,           University of Modena,         Italy       (CTOCD, AOSOPPA)
  Ola B. Lutnaes,           University of Oslo,           Norway      (DFT Hessian)
  Juan I. Melo,             University of Buenos Aires,   Argentina   (LRESC, Relativistic Effects on NMR Shieldings)
  Kurt V. Mikkelsen,        University of Copenhagen,     Denmark     (MC-SCRF and QM/MM)
  Rolf H. Myhre,            NTNU,                         Norway      (Cholesky, subsystems and ECC2)
  Christian Neiss,          Univ. Erlangen-Nuernberg,     Germany     (CCSD(R12))
  Christian B. Nielsen,     University of Copenhagen,     Denmark     (QM/MM)
  Patrick Norman,           Linkoeping University,        Sweden      (Cubic response and complex response in RESPONS)
  Jeppe Olsen,              Aarhus University,            Denmark     (SIRIUS CI/density modules)
  Jogvan Magnus H. Olsen,   Univ. of Southern Denmark,    Denmark     (Polarizable embedding, PE library, QM/MM)
  Anders Osted,             Copenhagen University,        Denmark     (QM/MM)
  Martin J. Packer,         University of Sheffield,      UK          (SOPPA)
  Filip Pawlowski,          Kazimierz Wielki University   Poland      (CC3)
  Thomas B. Pedersen,       University of Oslo,           Norway      (Cholesky decomposition)
  Patricio F. Provasi,      University of Northeastern,   Argentina   (Analysis of coupling constants in localized orbitals)
  Zilvinas Rinkevicius,     KTH Stockholm,                Sweden      (open-shell DFT, ESR)
  Elias Rudberg,            KTH Stockholm,                Sweden      (DFT grid and basis info)
  Torgeir A. Ruden,         University of Oslo,           Norway      (Numerical derivatives in ABACUS)
  Kenneth Ruud,             UiT The Arctic U. of Norway,  Norway      (DALTON; ABACUS magnetic properties and  much more)
  Pawel Salek,              KTH Stockholm,                Sweden      (DALTON; DFT code)
  Claire C. M. Samson       University of Karlsruhe       Germany     (Boys localization, r12 integrals in ERI)
  Alfredo Sanchez de Meras, University of Valencia,       Spain       (CC module, Cholesky decomposition)
  Trond Saue,               Paul Sabatier University,     France      (direct Fock matrix construction)
  Stephan P. A. Sauer,      University of Copenhagen,     Denmark     (SOPPA(CCSD), SOPPA prop., AOSOPPA, vibrational g-factors)
  Bernd Schimmelpfennig,    Forschungszentrum Karlsruhe,  Germany     (AMFI module)
  Kristian Sneskov,         Aarhus University,            Denmark     (QM/MM, PE-CC)
  Arnfinn H. Steindal,      UiT The Arctic U. of Norway,  Norway      (parallel QM/MM)
  K. O. Sylvester-Hvid,     University of Copenhagen,     Denmark     (MC-SCRF)
  Peter R. Taylor,          VLSCI/Univ. of Melbourne,     Australia   (Symmetry handling ABACUS, integral transformation)
  Andrew M. Teale,          University of Nottingham,     England     (DFT-AC, DFT-D)
  David P. Tew,             University of Bristol,        England     (CCSD(R12))
  Olav Vahtras,             KTH Stockholm,                Sweden      (triplet response, spin-orbit, ESR, TDDFT, open-shell DFT)
  David J. Wilson,          La Trobe University,          Australia   (DFT Hessian and DFT magnetizabilities)
  Hans Agren,               KTH Stockholm,                Sweden      (SIRIUS module, RESPONS, MC-SCRF solvation model)
 --------------------------------------------------------------------------------

     Date and time (Linux)  : Sun Sep  8 20:41:00 2013
     Host name              : lpqlx131.ups-tlse.fr                    

 * Work memory size             :    64000000 =  488.28 megabytes.

 * Directories for basis set searches:
   1) /home/bast/DALTON-2013.0-Source/build/test_ccsdmm_oldtg
   2) /home/bast/DALTON-2013.0-Source/build/basis


Compilation information
-----------------------

 Who compiled             | bast
 Host                     | lpqlx131.ups-tlse.fr
 System                   | Linux-3.8.5-201.fc18.x86_64
 CMake generator          | Unix Makefiles
 Processor                | x86_64
 64-bit integers          | OFF
 MPI                      | OFF
 Fortran compiler         | /usr/bin/gfortran
 Fortran compiler version | GNU Fortran (GCC) 4.7.2 20121109 (Red Hat 4.7.2-8)
 C compiler               | /usr/bin/gcc
 C compiler version       | gcc (GCC) 4.7.2 20121109 (Red Hat 4.7.2-8)
 C++ compiler             | /usr/bin/g++
 C++ compiler version     | g++ (GCC) 4.7.2 20121109 (Red Hat 4.7.2-8)
 Static linking           | OFF
 Last Git revision        | f34203295a86316e27f9e7b44f9b6769c4a046c0
 Configuration time       | 2013-09-08 20:31:27.952056


   Content of the .dal input file
 ----------------------------------

**DALTON INPUT                                    
.RUN WAVE FUNCTION                                
*QM3                                              
.QM3                                              
.THRDIP                                           
 1.0D-12                                          
.MAXDIP                                           
 80                                               
.OLDTG                                            
**INTEGRALS                                       
.DIPLEN                                           
.NUCPOT                                           
.NELFLD                                           
.THETA                                            
.SECMOM                                           
**WAVE FUNCTIONS                                  
.CC                                               
*SCF INPUT                                        
.THRESH                                           
1.0D-11                                           
*CC INP                                           
.CCSD                                             
.THRLEQ                                           
 1.0D-12                                          
.THRENR                                           
 1.0D-12                                          
.MAX IT                                           
 90                                               
.MXLRV                                            
 180                                              
*CCSLV                                            
.CCMM                                             
.ETOLSL                                           
 1.0D-11                                          
.TTOLSL                                           
 1.0D-11                                          
.LTOLSL                                           
 1.0D-11                                          
.MXSLIT                                           
 200                                              
.MXINIT                                           
 4 5                                              
*CCFOP                                            
.DIPMOM                                           
.QUADRU                                           
.SECMOM                                           
.NONREL                                           
*END OF INPUT                                     


   Content of the .mol file
 ----------------------------

ATOMBASIS                                                                      
QM/MM H2O(QM)+ 5 H2O(MM)                                                       
------------------------                                                       
    4    0         1 1.00D-12                                                  
        8.0   1    Bas=cc-pVDZ                                                 
O            0.000000        0.000000        0.000000 0 1                      
        1.0   2    Bas=cc-pVDZ                                                 
H           -0.756799        0.000000        0.586007 0 2                      
H            0.756799        0.000000        0.586007 0 3                      
   -0.669     5    Bas=MM                                                      
O          -6.022295       -6.249876       -2.389355 1 1                       
O          -0.590747        4.825666       -1.709744 2 1                       
O           2.365069       -0.266593        1.169946 3 1                       
O          -8.979615       -1.935917       -5.707554 4 1                       
O          -5.696915       -2.203270        0.274131 5 1                       
    0.3345   10   Bas=MM                                                       
H          -6.934736       -6.264225       -2.100595 1 2                       
H          -5.562128       -6.801680       -1.756974 1 3                       
H          -1.493716        5.142033       -1.683118 2 2                       
H          -0.065506        5.576575       -1.433333 2 3                       
H           2.261479       -1.103382        1.622925 3 2                       
H           3.132239       -0.390013        0.611059 3 3                       
H          -8.312439       -2.243695       -5.094117 4 2                       
H          -8.719849       -2.307644       -6.550450 4 3                       
H          -4.847884       -2.109424       -0.157695 5 2                       
H          -6.336813       -2.008951       -0.410639 5 3                       


       *******************************************************************
       *********** Output from DALTON general input processing ***********
       *******************************************************************

 --------------------------------------------------------------------------------
   Overall default print level:    0
   Print level for DALTON.STAT:    1

    HERMIT 1- and 2-electron integral sections will be executed
    "Old" integral transformation used (limited to max 255 basis functions)
    Wave function sections will be executed (SIRIUS module)
 --------------------------------------------------------------------------------


 Changes of defaults for *QM3   :
 --------------------------------

 +------------------+
 |  WORD: | CHANGE: |
 +------------------+
 |    QM3 |       T |
 | THDISC | 1.0D-12 |
 |  OLDTG |       T |
 |  PRINT |       0 |
 +------------------+
  Settings for determination of induced dipoles:
  Iterative Method is used
 +------------------+


    *************************************************************************
    *************** Output from MM potential input processing ***************
    *************************************************************************



 ------------------------------------------------------------------------
 | QM-sys type: | Systems:    | Model:  | Electric properties:          |
 ------------------------------------------------------------------------
 |          0   | [   0;   0] | SPC     |     No classical polarization |
 ------------------------------------------------------------------------


 ------------------------------------------------------------------------
 | MM-sys type: | Systems:    | Model:  | Electric properties:          |
 ------------------------------------------------------------------------
 |          1   | [   1;   5] | SPC     | No polarization in this model!|
 ------------------------------------------------------------------------




   ****************************************************************************
   *************** Output of molecule and basis set information ***************
   ****************************************************************************


    The two title cards from your ".mol" input:
    ------------------------------------------------------------------------
 1: QM/MM H2O(QM)+ 5 H2O(MM)                                                
 2: ------------------------                                                
    ------------------------------------------------------------------------

  Coordinates are entered in Angstrom and converted to atomic units.
          - Conversion factor : 1 bohr = 0.52917721 A

  Atomic type no.    1
  --------------------
  Nuclear charge:   8.00000
  Number of symmetry independent centers:    1
  Number of basis sets to read;    2
  The basis set is "cc-pVDZ" from the basis set library.
  Basis set file used for this atomic type with Z =   8 :
     "/home/bast/DALTON-2013.0-Source/build/basis/cc-pVDZ"

  Atomic type no.    2
  --------------------
  Nuclear charge:   1.00000
  Number of symmetry independent centers:    2
  Number of basis sets to read;    2
  The basis set is "cc-pVDZ" from the basis set library.
  Basis set file used for this atomic type with Z =   1 :
     "/home/bast/DALTON-2013.0-Source/build/basis/cc-pVDZ"

  Atomic type no.    3
  --------------------
  Nuclear charge:  -0.66900
  Number of symmetry independent centers:    5
  Number of basis sets to read;    2
  This is an MM atom without basis functions.

  Atomic type no.    4
  --------------------
  Nuclear charge:   0.33450
  Number of symmetry independent centers:   10
  Number of basis sets to read;    2
  This is an MM atom without basis functions.


                         SYMGRP: Point group information
                         -------------------------------

Point group: C1 


                                 Isotopic Masses
                                 ---------------

                           O          15.994915
                           H           1.007825
                           H           1.007825

                       Total mass:    18.010565 amu
                       Natural abundance:  99.730 %

 Center-of-mass coordinates (a.u.):    0.000000    0.000000    0.123934


  Atoms and basis sets
  --------------------

  Number of atom types :    5
  Total number of atoms:   18

  label    atoms   charge   prim   cont     basis
  ----------------------------------------------------------------------
  O           1    8.0000    26    14      [9s4p1d|3s2p1d]                                    
  H           2    1.0000     7     5      [4s1p|2s1p]                                        
  O           5   -0.6690     0     0      Point Charge                                       
  H          10    0.3345     0     0      Point Charge                                       
  H           0    0.3345     0     0      Point Charge                                       
  ----------------------------------------------------------------------
  total:     18   10.0000    40    24
  ----------------------------------------------------------------------
  Spherical harmonic basis used.

  Threshold for neglecting AO integrals:  1.00D-12


  Cartesian Coordinates (a.u.)
  ----------------------------

  Total number of coordinates:   54
  O       :     1  x   0.0000000000    2  y   0.0000000000    3  z   0.0000000000
  H       :     4  x  -1.4301428417    5  y   0.0000000000    6  z   1.1073927373
  H       :     7  x   1.4301428417    8  y   0.0000000000    9  z   1.1073927373

  Max    interatomic separation is    1.5136 Angstrom (    2.8603 Bohr)
  between atoms    3 and    2, "H     " and "H     ".

  Min HX interatomic separation is    0.9572 Angstrom (    1.8088 Bohr)

  Max QM+MM interatomic separation is   13.9799 Angstrom (   26.4181 Bohr)
  between the QM+MM centers   16 and   14, "H     " and "H     ".




 Principal moments of inertia (u*A**2) and principal axes
 --------------------------------------------------------

   IA       0.614717          1.000000    0.000000    0.000000
   IB       1.154453          0.000000    0.000000    1.000000
   IC       1.769170          0.000000    1.000000    0.000000


 Rotational constants
 --------------------

 The molecule is planar.

               A                   B                   C

         822132.5951         437764.9384         285658.8058 MHz
           27.423392           14.602267            9.528552 cm-1


@  Nuclear repulsion energy :    9.195434983361 Hartree

All MM models are SPC


    **************************************************************************
    ***************** The MM/MM classical interaction energy *****************
    **************************************************************************


 ------------------------------------------------------------------------
 |  Eelec = Sum_n,s[ (Q_n*Q_s)/|R_n - R_s| ]        |       -0.00070616 |
 |  Epol  = - 1/2*Sum_a[ Pind_a*E^site_a ]          |        0.00000000 |
 |  Evdw  = Sum_a[ A_ma/|R_ma|^12 - B_ma/|R_ma|^6 ] |       -0.00011662 |
 ------------------------------------------------------------------------
 |  E(MM/MM) = Eelec + Epol + Evdw                  |       -0.00082278 |
 ------------------------------------------------------------------------




     ************************************************************************
     *************** The "QM"/MM classical interaction energy ***************
     ************************************************************************


 ------------------------------------------------------------------------
 |  Eelec = Sum_n,s[ (Q_n*Q_s)/|R_n - R_s| ]        |       -0.00717456 |
 |  Epol  = - 1/2*Sum_a[ Pind_a*E^(QMclassic)_a ]   |        0.00000000 |
 |  Evdw  = Sum_a[ A_ma/|R_ma|^12 - B_ma/|R_ma|^6 ] |        0.00511097 |
 ------------------------------------------------------------------------
 |  E("QM"/MM) = Eelec + Epol + Evdw                |       -0.00206358 |
 ------------------------------------------------------------------------




                     .---------------------------------------.
                     | Starting in Integral Section (HERMIT) |
                     `---------------------------------------'



    *************************************************************************
    ****************** Output from HERMIT input processing ******************
    *************************************************************************


 Default print level:        1

 * Nuclear model: Point charge

 Calculation of one- and two-electron Hamiltonian integrals.

 The following one-electron property integrals are calculated as requested:
          - overlap integrals
          - dipole length integrals
          - traceless quadrupole moment integrals
          - second moment integrals
          - Electric field at the nuclei
          - Potential energy at the nuclei

 Center of mass  (bohr):      0.000000000000      0.000000000000      0.123933711741
 Operator center (bohr):      0.000000000000      0.000000000000      0.000000000000
 Gauge origin    (bohr):      0.000000000000      0.000000000000      0.000000000000
 Dipole origin   (bohr):      0.000000000000      0.000000000000      0.000000000000


     ************************************************************************
     ************************** Output from HERINT **************************
     ************************************************************************


 Threshold for neglecting two-electron integrals:  1.00D-12
 Number of two-electron integrals written:       21643 ( 47.9% )
 Megabytes written:                              0.254

 >>>> Total CPU  time used in HERMIT:   0.04 seconds
 >>>> Total wall time used in HERMIT:   0.04 seconds


                        .----------------------------------.
                        | End of Integral Section (HERMIT) |
                        `----------------------------------'



                   .--------------------------------------------.
                   | Starting in Wave Function Section (SIRIUS) |
                   `--------------------------------------------'


 *** Output from Huckel module :

     Using EWMO model:          F
     Using EHT  model:          T
     Number of Huckel orbitals each symmetry:    7

 Huckel EHT eigenvalues for symmetry :  1
          -20.705641      -1.506569      -0.731292      -0.670540      -0.616200
           -0.292149      -0.257509

 **********************************************************************
 *SIRIUS* a direct, restricted step, second order MCSCF program       *
 **********************************************************************

 
     Date and time (Linux)  : Sun Sep  8 20:41:00 2013
     Host name              : lpqlx131.ups-tlse.fr                    

 Title lines from ".mol" input file:
     QM/MM H2O(QM)+ 5 H2O(MM)                                                
     ------------------------                                                

 Print level on unit LUPRI =   2 is   0
 Print level on unit LUW4  =   2 is   5

@    (Integral direct) CC calculation.

@    This is a combination run starting with
@              a restricted, closed shell Hartree-Fock calculation


 Initial molecular orbitals are obtained according to
 ".MOSTART EHT   " input option

@    QM part is embedded in an environment :

@         Model: QM3

     Wave function specification
     ============================

     For the specification of the Coupled Cluster: see later.

@    For the wave function of type :      >>> CC <<<
@    Number of closed shell electrons          10
@    Number of electrons in active shells       0
@    Total charge of the molecule               0

@    Spin multiplicity and 2 M_S                1         0
     Total number of symmetries                 1
@    Reference state symmetry                   1

     Orbital specifications
     ======================
     Abelian symmetry species          All |    1
                                       --- |  ---
@    Occupied SCF orbitals               5 |    5
     Secondary orbitals                 19 |   19
     Total number of orbitals           24 |   24
     Number of basis functions          24 |   24

     Optimization information
     ========================
@    Number of configurations                 1
@    Number of orbital rotations             95
     ------------------------------------------
@    Total number of variables               96

     Maximum number of Fock   iterations      0
     Maximum number of DIIS   iterations     60
     Maximum number of QC-SCF iterations     60
     Threshold for SCF convergence     1.00D-11


 Changes of defaults for CC:
 ---------------------------

 -Dipole moment calculated
 -Traceless quadrupole moment calculated
 -Electronic second moment of charge calculated
  


 >>>>> DIIS optimization of Hartree-Fock <<<<<

 C1-DIIS algorithm; max error vectors =   10

 Iter      Total energy       Solvation energy    Error norm    Delta(E)
 -----------------------------------------------------------------------------
     (Precalculated two-electron integrals are transformed to P-supermatrix elements.
      Threshold for discarding integrals :  1.00D-12 )
@  1  -75.8010731200       0.00000000000        2.30134D+00   -7.58D+01
      Virial theorem: -V/T =      1.999431
@      MULPOP O      -0.43; H       0.22; H       0.22; 
 -----------------------------------------------------------------------------
@  2  -76.0187223592       0.00000000000        3.59597D-01   -2.18D-01
      Virial theorem: -V/T =      1.999461
@      MULPOP O      -0.27; H       0.13; H       0.13; 
 -----------------------------------------------------------------------------
@  3  -76.0261543892       0.00000000000        8.94992D-02   -7.43D-03
      Virial theorem: -V/T =      2.001631
@      MULPOP O      -0.28; H       0.14; H       0.14; 
 -----------------------------------------------------------------------------
@  4  -76.0267370307       0.00000000000        3.34896D-02   -5.83D-04
      Virial theorem: -V/T =      1.999950
@      MULPOP O      -0.31; H       0.15; H       0.15; 
 -----------------------------------------------------------------------------
@  5  -76.0267981926       0.00000000000        7.19500D-03   -6.12D-05
      Virial theorem: -V/T =      2.000604
@      MULPOP O      -0.30; H       0.15; H       0.15; 
 -----------------------------------------------------------------------------
@  6  -76.0268009919       0.00000000000        7.52588D-04   -2.80D-06
      Virial theorem: -V/T =      2.000488
@      MULPOP O      -0.31; H       0.15; H       0.15; 
 -----------------------------------------------------------------------------
@  7  -76.0268010521       0.00000000000        1.34040D-04   -6.02D-08
      Virial theorem: -V/T =      2.000495
@      MULPOP O      -0.31; H       0.15; H       0.15; 
 -----------------------------------------------------------------------------
@  8  -76.0268010543       0.00000000000        1.10543D-05   -2.23D-09
      Virial theorem: -V/T =      2.000496
@      MULPOP O      -0.31; H       0.15; H       0.15; 
 -----------------------------------------------------------------------------
@  9  -76.0268010543       0.00000000000        1.11773D-06   -1.28D-11
      Virial theorem: -V/T =      2.000496
@      MULPOP O      -0.31; H       0.15; H       0.15; 
 -----------------------------------------------------------------------------
@ 10  -76.0268010543       0.00000000000        2.75673D-07   -1.85D-13
      Virial theorem: -V/T =      2.000496
@      MULPOP O      -0.31; H       0.15; H       0.15; 
 -----------------------------------------------------------------------------
@ 11  -76.0268010543       0.00000000000        4.70577D-08   -1.28D-13
      Virial theorem: -V/T =      2.000496
@      MULPOP O      -0.31; H       0.15; H       0.15; 
 -----------------------------------------------------------------------------
@ 12  -76.0268010543       0.00000000000        3.65044D-09    9.95D-14
      Virial theorem: -V/T =      2.000496
@      MULPOP O      -0.31; H       0.15; H       0.15; 
 -----------------------------------------------------------------------------
@ 13  -76.0268010543       0.00000000000        3.08937D-10   -7.11D-14
      Virial theorem: -V/T =      2.000496
@      MULPOP O      -0.31; H       0.15; H       0.15; 
 -----------------------------------------------------------------------------
@ 14  -76.0268010543       0.00000000000        4.29620D-11    2.84D-14
      Virial theorem: -V/T =      2.000496
@      MULPOP O      -0.31; H       0.15; H       0.15; 
 -----------------------------------------------------------------------------
@ 15  -76.0268010543       0.00000000000        8.09268D-12   -4.26D-14

@ *** DIIS converged in  15 iterations !
@     Converged SCF energy, gradient:    -76.026801054310    8.09D-12
    - total time used in SIRFCK :              0.00 seconds


 *** SCF orbital energy analysis ***
    (incl. solvent contribution)

 Only the five lowest virtual orbital energies printed in each symmetry.

 Number of electrons :   10
 Orbital occupations :    5

 Sym       Hartree-Fock orbital energies

  1    -20.55041934    -1.33674880    -0.69931601    -0.56662274    -0.49315893
         0.18558182     0.25626805     0.78932884     0.85449225     1.16351330

    E(LUMO) :     0.18558182 au (symmetry 1)
  - E(HOMO) :    -0.49315893 au (symmetry 1)
  ------------------------------------------
    gap     :     0.67874075 au

 >>> Writing SIRIFC interface file <<<

 N(  1)_ao matrix: 

               Column   1     Column   2     Column   3     Column   4
       1      -0.03932628
       2      -0.00000004    -0.03932628
       3      -0.00754656    -0.03670415    -0.03932628
       4       0.00009506     0.00103113     0.00116518    -0.03934410
       5       0.00009865     0.00107010     0.00120921    -0.00007246
       6       0.00003771     0.00040910     0.00046229    -0.00002770
       7       0.00002036     0.00105703     0.00140256    -0.03166553
       8       0.00002113     0.00109697     0.00145556    -0.00010179
       9       0.00000808     0.00041938     0.00055647    -0.00003892
      10      -0.00000183    -0.00006717    -0.00007324     0.00075043
      11      -0.00000073    -0.00002665    -0.00002906     0.00000181
      12       0.00000090     0.00003292     0.00003590    -0.00041718
      13      -0.00000070    -0.00002568    -0.00002800     0.00028689
      14       0.00000007     0.00000249     0.00000272     0.00071855
      15      -0.00256377    -0.02070770    -0.02466953     0.01360862
      16      -0.00267949    -0.02130104    -0.02576489     0.00883203
      17      -0.00342943    -0.01325096    -0.01194633     0.00304101
      18       0.00000748     0.00046543     0.00062020    -0.00047271
      19       0.00266393     0.01078573     0.00995018    -0.01266874
      20      -0.00255246    -0.01984882    -0.02348096    -0.01165760
      21      -0.00267474    -0.02074802    -0.02495333    -0.00686631
      22       0.00340628     0.01318572     0.01207795     0.00317102
      23       0.00000720     0.00037741     0.00049186     0.00034382
      24       0.00263495     0.01007270     0.00917329     0.01151123

               Column   5     Column   6     Column   7     Column   8
       5      -0.03934948
       6      -0.00002875    -0.03928527
       7      -0.00010179    -0.00003892    -0.03936856
       8      -0.03167309    -0.00004039    -0.00017195    -0.03938132
       9      -0.00004039    -0.03158289    -0.00006574    -0.00006822
      10       0.00072344     0.00000181     0.00065037     0.00062707
      11       0.00028703     0.00074659     0.00000204     0.00024879
      12      -0.00043295     0.00032838    -0.00036148    -0.00037514
      13       0.00000181     0.00071941     0.00024864     0.00000204
      14      -0.00074605    -0.00000007     0.00062154    -0.00064543
      15       0.00073497    -0.00970811     0.01881069     0.00108167
      16       0.00094706    -0.00577015     0.01368686     0.00147467
      17       0.00029729    -0.01179984    -0.00328476     0.00022870
      18      -0.01265878     0.00033486    -0.00074335    -0.01582707
      19      -0.00026138    -0.00311640    -0.01051677    -0.00022643
      20       0.00065858    -0.00926635    -0.01584598     0.00094572
      21       0.00087230    -0.00563411    -0.01057493     0.00133105
      22      -0.00029295     0.01174290    -0.00232230    -0.00024139
      23      -0.01187626     0.00027334     0.00052486    -0.01461339
      24      -0.00021972    -0.00286336     0.00930354    -0.00017621

               Column   9     Column  10     Column  11     Column  12
       9      -0.03922896
      10       0.00000204    -0.03934914
      11       0.00064604    -0.00001540    -0.03931642
      12       0.00028383     0.00004619    -0.00000903    -0.03930372
      13       0.00062252    -0.00001597    -0.00003987    -0.00000870
      14      -0.00000008     0.00000002     0.00001580    -0.00000171
      15      -0.01334496    -0.00023835     0.00014540    -0.00016539
      16      -0.00893399    -0.00016222     0.00007721     0.00006976
      17      -0.00941987    -0.00017840     0.00027063    -0.00661718
      18       0.00052626     0.01023499    -0.00769540    -0.00011673
      19      -0.00789548     0.00031186    -0.00001880    -0.00831910
      20      -0.01261398     0.00015861     0.00013434    -0.00037711
      21      -0.00867268     0.00007794     0.00007516    -0.00006437
      22       0.00958232    -0.00014290    -0.00025572     0.00654452
      23       0.00041712    -0.00945086    -0.00738325    -0.00008944
      24      -0.00731591    -0.00024496    -0.00001676    -0.00767371

               Column  13     Column  14     Column  15     Column  16
      13      -0.03931346
      14      -0.00001521    -0.03934866
      15       0.00498892    -0.00337779    -0.04070557
      16       0.00082387    -0.00062875    -0.03678509    -0.04070557
      17       0.00658319     0.00073966     0.00099792     0.00088493
      18      -0.00018109    -0.00007494     0.00118448     0.00105037
      19      -0.00103290     0.00748434     0.00056389     0.00050005
      20      -0.00453259    -0.00287370    -0.01449754    -0.01849423
      21      -0.00067024    -0.00039413    -0.01894763    -0.02342509
      22       0.00612442    -0.00080891     0.00707795     0.00685940
      23       0.00014341    -0.00008856     0.00022136     0.00033880
      24       0.00096005     0.00665114     0.00010538     0.00016129

               Column  17     Column  18     Column  19     Column  20
      17      -0.04071074
      18      -0.00006764    -0.04073403
      19      -0.00003220    -0.00003822    -0.04067194
      20      -0.00694849     0.00026954     0.00012832    -0.03653963
      21      -0.00665009     0.00042690     0.00020323    -0.03302039
      22       0.00975569    -0.00011382    -0.00005419     0.00092931
      23       0.00010777    -0.00197276    -0.00000149     0.00085676
      24       0.00005130    -0.00000149    -0.00197033     0.00040788

               Column  21     Column  22     Column  23     Column  24
      21      -0.03653963
      22       0.00082409    -0.03655720
      23       0.00075976    -0.00005076    -0.03654894
      24       0.00036170    -0.00002416    -0.00002228    -0.03651276
    ==== End of matrix output ====

 N(  2)_ao matrix: 

               Column   1     Column   2     Column   3     Column   4
       1       0.01848032
       2       0.00000002     0.01848032
       3       0.00354630     0.01724812     0.01848032
       4      -0.00004544    -0.00049286    -0.00055693     0.01849268
       5      -0.00004104    -0.00044521    -0.00050308     0.00003066
       6      -0.00001376    -0.00014929    -0.00016870     0.00001028
       7      -0.00000973    -0.00050524    -0.00067039     0.01488596
       8      -0.00000879    -0.00045639    -0.00060557     0.00004308
       9      -0.00000295    -0.00015304    -0.00020307     0.00001444
      10       0.00000077     0.00002842     0.00003099    -0.00031237
      11       0.00000023     0.00000861     0.00000939    -0.00000059
      12      -0.00000040    -0.00001483    -0.00001617     0.00019942
      13       0.00000026     0.00000953     0.00001039    -0.00010475
      14       0.00000008     0.00000290     0.00000316    -0.00034384
      15       0.00120500     0.00975108     0.01162089    -0.00641867
      16       0.00125925     0.01002192     0.01212539    -0.00416563
      17       0.00161229     0.00624029     0.00562620    -0.00142610
      18      -0.00000312    -0.00019571    -0.00026110     0.00019913
      19      -0.00125215    -0.00506539    -0.00466787     0.00595330
      20       0.00119960     0.00933808     0.01104904     0.00548119
      21       0.00125698     0.00975676     0.01173613     0.00322303
      22      -0.00160120    -0.00620956    -0.00569046    -0.00149053
      23      -0.00000300    -0.00015793    -0.00020595    -0.00014377
      24      -0.00123828    -0.00472579    -0.00429877    -0.00540159

               Column   5     Column   6     Column   7     Column   8
       5       0.01848643
       6       0.00000929     0.01846185
       7       0.00004308     0.00001444     0.01850965
       8       0.01487718     0.00001305     0.00007276     0.01849482
       9       0.00001305     0.01484265     0.00002440     0.00002204
      10      -0.00034541    -0.00000059    -0.00027077    -0.00029930
      11      -0.00010463    -0.00031059    -0.00000067    -0.00009066
      12       0.00018014    -0.00011989     0.00017280     0.00015609
      13      -0.00000059    -0.00034384    -0.00009080    -0.00000067
      14       0.00031023    -0.00000006    -0.00029752     0.00026835
      15      -0.00030741     0.00460353    -0.00887867    -0.00045297
      16      -0.00039552     0.00275387    -0.00645851    -0.00061644
      17      -0.00012432     0.00556757     0.00155967    -0.00009569
      18       0.00596597    -0.00014184     0.00031369     0.00746510
      19       0.00010862     0.00147536     0.00493407     0.00009369
      20      -0.00027480     0.00438762     0.00745264    -0.00039488
      21      -0.00036370     0.00268547     0.00496515    -0.00055529
      22       0.00012253    -0.00554056     0.00109345     0.00010123
      23       0.00558952    -0.00011512    -0.00021968     0.00688063
      24       0.00009109     0.00135214    -0.00435802     0.00007267

               Column   9     Column  10     Column  11     Column  12
       9       0.01843648
      10      -0.00000067     0.01849059
      11      -0.00026876     0.00000570     0.01847349
      12      -0.00010364    -0.00001955     0.00000292     0.01847016
      13      -0.00029752     0.00000516     0.00001687     0.00000323
      14      -0.00000007     0.00000002    -0.00000510    -0.00000199
      15       0.00633478     0.00009981    -0.00006198     0.00008448
      16       0.00426585     0.00006792    -0.00003371    -0.00002867
      17       0.00444587     0.00007470    -0.00011395     0.00312844
      18      -0.00022330    -0.00482071     0.00363127     0.00004849
      19       0.00373983    -0.00013015     0.00000813     0.00391831
      20       0.00597683    -0.00006593    -0.00005716     0.00018540
      21       0.00413442    -0.00003218    -0.00003276     0.00003538
      22      -0.00452549     0.00005958     0.00010752    -0.00309270
      23      -0.00017582     0.00444447     0.00348048     0.00003693
      24       0.00345724     0.00010180     0.00000721     0.00360897

               Column  13     Column  14     Column  15     Column  16
      13       0.01847692
      14       0.00000566     0.01849042
      15      -0.00236028     0.00159453     0.01924187
      16      -0.00039462     0.00029920     0.01738863     0.01924187
      17      -0.00310787    -0.00034713    -0.00049470    -0.00043869
      18       0.00007646     0.00003117    -0.00050161    -0.00044482
      19       0.00049144    -0.00352341    -0.00021513    -0.00019077
      20       0.00213790     0.00135243     0.00684058     0.00872340
      21       0.00031763     0.00018675     0.00894284     0.01105178
      22      -0.00288618     0.00038034    -0.00333931    -0.00323599
      23      -0.00006020     0.00003700    -0.00009302    -0.00014233
      24      -0.00045534    -0.00312450    -0.00003990    -0.00006104

               Column  17     Column  18     Column  19     Column  20
      17       0.01924960
      18       0.00003004     0.01925043
      19       0.00001288     0.00001306     0.01922558
      20       0.00327637    -0.00011385    -0.00004883     0.01722377
      21       0.00313413    -0.00018042    -0.00007738     0.01556489
      22      -0.00460247     0.00004795     0.00002057    -0.00044173
      23      -0.00004534     0.00093055     0.00000051    -0.00035976
      24      -0.00001945     0.00000051     0.00092958    -0.00015429

               Column  21     Column  22     Column  23     Column  24
      21       0.01722377
      22      -0.00039171     0.01723445
      23      -0.00031902     0.00002149     0.01722557
      24      -0.00013682     0.00000922     0.00000751     0.01721128
    ==== End of matrix output ====

 N(  3)_ao matrix: 

               Column   1     Column   2     Column   3     Column   4
       1       0.01975488
       2       0.00000002     0.01975488
       3       0.00379089     0.01843770     0.01975488
       4      -0.00004451    -0.00048287    -0.00054564     0.01975900
       5      -0.00005443    -0.00059048    -0.00066724     0.00003727
       6      -0.00001406    -0.00015253    -0.00017236     0.00000963
       7      -0.00000953    -0.00049499    -0.00065680     0.01589984
       8      -0.00001166    -0.00060531    -0.00080317     0.00005236
       9      -0.00000301    -0.00015636    -0.00020747     0.00001353
      10       0.00000094     0.00003455     0.00003767    -0.00041374
      11       0.00000030     0.00001091     0.00001190    -0.00000069
      12      -0.00000051    -0.00001873    -0.00002042     0.00019549
      13       0.00000024     0.00000893     0.00000973    -0.00010688
      14      -0.00000019    -0.00000700    -0.00000763    -0.00033612
      15       0.00128790     0.01040472     0.01239587    -0.00681385
      16       0.00134601     0.01070183     0.01294494    -0.00440624
      17       0.00172307     0.00667422     0.00602411    -0.00153357
      18      -0.00000413    -0.00025714    -0.00034269     0.00026016
      19      -0.00133789    -0.00539725    -0.00497012     0.00633428
      20       0.00128260     0.01000012     0.01183567     0.00589581
      21       0.00134379     0.01044199     0.01256348     0.00348287
      22      -0.00171221    -0.00664327    -0.00608575    -0.00159497
      23      -0.00000398    -0.00021125    -0.00027573    -0.00019303
      24      -0.00132431    -0.00506484    -0.00460897    -0.00579452

               Column   5     Column   6     Column   7     Column   8
       5       0.01977409
       6       0.00001177     0.01973156
       7       0.00005236     0.00001353     0.01976464
       8       0.01592105     0.00001654     0.00008845     0.01980047
       9       0.00001654     0.01586129     0.00002285     0.00002794
      10      -0.00033923    -0.00000069    -0.00035849    -0.00029416
      11      -0.00010716    -0.00041178    -0.00000078    -0.00009292
      12       0.00023906    -0.00012239     0.00016943     0.00020719
      13      -0.00000069    -0.00033674    -0.00009260    -0.00000078
      14       0.00041210     0.00000014    -0.00029064     0.00035664
      15      -0.00040582     0.00491432    -0.00941692    -0.00059733
      16      -0.00052283     0.00294574    -0.00682832    -0.00081420
      17      -0.00016520     0.00595506     0.00163384    -0.00012795
      18       0.00636407    -0.00018649     0.00040917     0.00795857
      19       0.00014288     0.00156989     0.00524160     0.00012276
      20      -0.00036618     0.00470254     0.00802073    -0.00052673
      21      -0.00048415     0.00287837     0.00536553    -0.00073984
      22       0.00016292    -0.00592796     0.00118038     0.00013448
      23       0.00599395    -0.00015402    -0.00029523     0.00738370
      24       0.00012160     0.00144940    -0.00467851     0.00009727

               Column   9     Column  10     Column  11     Column  12
       9       0.01969953
      10      -0.00000078     0.01976787
      11      -0.00035627     0.00000537     0.01975257
      12      -0.00010577    -0.00002378     0.00000369     0.01974207
      13      -0.00029134     0.00000653     0.00002049     0.00000302
      14       0.00000016    -0.00000005    -0.00000648     0.00000482
      15       0.00675920     0.00013033    -0.00008215     0.00009494
      16       0.00456145     0.00008798    -0.00004494    -0.00002876
      17       0.00476274     0.00009829    -0.00015097     0.00334304
      18      -0.00029315    -0.00513747     0.00387767     0.00006355
      19       0.00398275    -0.00017074     0.00001081     0.00417354
      20       0.00640811    -0.00008915    -0.00007628     0.00019381
      21       0.00443202    -0.00004454    -0.00004377     0.00003404
      22      -0.00483961     0.00007986     0.00014313    -0.00330815
      23      -0.00023547     0.00476805     0.00372948     0.00004951
      24       0.00370624     0.00013631     0.00000967     0.00387058

               Column  13     Column  14     Column  15     Column  16
      13       0.01974427
      14       0.00000528     0.01976763
      15      -0.00251356     0.00168757     0.02046067
      16      -0.00041923     0.00030836     0.01849004     0.02046067
      17      -0.00331360    -0.00037441    -0.00046264    -0.00041025
      18       0.00010045     0.00004200    -0.00065484    -0.00058069
      19       0.00052476    -0.00374317    -0.00022557    -0.00020003
      20       0.00229532     0.00145090     0.00731311     0.00933630
      21       0.00034332     0.00019852     0.00955129     0.01181775
      22      -0.00309600     0.00040698    -0.00356966    -0.00345894
      23      -0.00008066     0.00004903    -0.00012439    -0.00019057
      24      -0.00048916    -0.00335317    -0.00004285    -0.00006565

               Column  17     Column  18     Column  19     Column  20
      17       0.02045871
      18       0.00003449     0.02048317
      19       0.00001188     0.00001682     0.02044014
      20       0.00350846    -0.00014969    -0.00005156     0.01848660
      21       0.00336007    -0.00023682    -0.00008158     0.01670610
      22      -0.00492185     0.00006352     0.00002188    -0.00044872
      23      -0.00006034     0.00099558     0.00000067    -0.00048300
      24      -0.00002078     0.00000067     0.00099386    -0.00016638

               Column  21     Column  22     Column  23     Column  24
      21       0.01848660
      22      -0.00039791     0.01849255
      23      -0.00042831     0.00002731     0.01849657
      24      -0.00014754     0.00000941     0.00001013     0.01847067
    ==== End of matrix output ====

 N(  4)_ao matrix: 

               Column   1     Column   2     Column   3     Column   4
       1      -0.06869407
       2      -0.00000008    -0.06869407
       3      -0.01318213    -0.06411381    -0.06869407
       4       0.00004970     0.00053909     0.00060917    -0.06842783
       5      -0.00040596    -0.00440372    -0.00497618     0.00008925
       6       0.00014383     0.00156025     0.00176307    -0.00003162
       7       0.00001064     0.00055263     0.00073328    -0.05489475
       8      -0.00008694    -0.00451431    -0.00598998     0.00012538
       9       0.00003080     0.00159943     0.00212226    -0.00004442
      10       0.00000225     0.00008273     0.00009021    -0.00305397
      11       0.00000652     0.00023944     0.00026109    -0.00000486
      12       0.00000406     0.00014903     0.00016251    -0.00021875
      13      -0.00000080    -0.00002931    -0.00003196     0.00108203
      14       0.00000906     0.00033284     0.00036293     0.00036690
      15      -0.00446767    -0.03527175    -0.04183390     0.02213495
      16      -0.00467611    -0.03665799    -0.04419236     0.01397957
      17      -0.00596365    -0.02289044    -0.02076713     0.00553746
      18      -0.00003018    -0.00168264    -0.00220892     0.00162698
      19       0.00463134     0.01848026     0.01707248    -0.02140717
      20      -0.00446177    -0.03483970    -0.04123843    -0.02115180
      21      -0.00467362    -0.03637418    -0.04377678    -0.01297371
      22       0.00595170     0.02284742     0.02081789     0.00557842
      23      -0.00002982    -0.00158414    -0.00206649    -0.00148473
      24       0.00461627     0.01810239     0.01665605     0.02079895

               Column   5     Column   6     Column   7     Column   8
       5      -0.06914597
       6       0.00025831    -0.06850842
       7       0.00012538    -0.00004442    -0.06806228
       8      -0.05590358     0.00036287     0.00021179    -0.06976641
       9       0.00036287    -0.05500797    -0.00007504     0.00061296
      10       0.00038736    -0.00000486    -0.00263777     0.00033817
      11       0.00112110    -0.00306635    -0.00000549     0.00097872
      12       0.00178693     0.00123998    -0.00018971     0.00154973
      13      -0.00000486     0.00037537     0.00093457    -0.00000549
      14       0.00310743    -0.00001954     0.00031505     0.00269819
      15      -0.00283483    -0.01586650     0.03027564    -0.00411018
      16      -0.00371876    -0.00915463     0.02153001    -0.00572308
      17      -0.00119209    -0.02014114    -0.00469595    -0.00094394
      18      -0.02138139    -0.00116273     0.00250315    -0.02648228
      19       0.00102014    -0.00504729    -0.01773766     0.00087947
      20      -0.00274592    -0.01566573    -0.02879345    -0.00395283
      21      -0.00362981    -0.00910387    -0.01994635    -0.00555273
      22       0.00118454     0.02010624    -0.00425661     0.00095402
      23      -0.02098057    -0.00109885    -0.00226551    -0.02586382
      24       0.00096802    -0.00493090     0.01709031     0.00081533

               Column   9     Column  10     Column  11     Column  12
       9      -0.06825353
      10      -0.00000549    -0.06879332
      11      -0.00265176    -0.00001843    -0.06884028
      12       0.00106849    -0.00005692     0.00007916    -0.06859182
      13       0.00032462     0.00014097     0.00004908    -0.00000969
      14      -0.00002208    -0.00000165    -0.00014561    -0.00022901
      15      -0.02159728     0.00083902    -0.00050612    -0.00024133
      16      -0.01410099     0.00053458    -0.00023242     0.00017503
      17      -0.01618960     0.00066461    -0.00102369    -0.01109699
      18      -0.00178969     0.01724168    -0.01299314     0.00044592
      19      -0.01281176    -0.00116439     0.00006017    -0.01397132
      20      -0.02126963    -0.00074330    -0.00049478    -0.00035366
      21      -0.01400392    -0.00043190    -0.00023117     0.00010429
      22       0.01625480     0.00062212     0.00100709     0.01106680
      23      -0.00167763    -0.01683610    -0.01283782     0.00041276
      24      -0.01254678     0.00108352     0.00005857    -0.01364058

               Column  13     Column  14     Column  15     Column  16
      13      -0.06844539
      14      -0.00001665    -0.06879956
      15       0.00815278    -0.00534794    -0.06621516
      16       0.00123120    -0.00074795    -0.05983777    -0.06621516
      17       0.01097211     0.00137898    -0.00013546    -0.00012012
      18       0.00063628     0.00033666    -0.00393664    -0.00349092
      19      -0.00165867     0.01238350     0.00187281     0.00166076
      20      -0.00794053    -0.00509633    -0.02469270    -0.03179206
      21      -0.00117182    -0.00063009    -0.03201085    -0.03997537
      22       0.01074588    -0.00141469     0.01205558     0.01168270
      23      -0.00059529     0.00035113    -0.00090091    -0.00139279
      24       0.00162779     0.01195916     0.00042860     0.00066260

               Column  17     Column  18     Column  19     Column  20
      17      -0.06599274
      18      -0.00001876    -0.06653725
      19       0.00000892     0.00025935    -0.06611548
      20      -0.01199800    -0.00095255     0.00045316    -0.06423630
      21      -0.01159129    -0.00148704     0.00070744    -0.05804950
      22       0.01666021     0.00042846    -0.00020383     0.00100365
      23      -0.00042182    -0.00338092     0.00001289    -0.00359414
      24       0.00020068     0.00001289    -0.00335996     0.00170987

               Column  21     Column  22     Column  23     Column  24
      21      -0.06423630
      22       0.00089001    -0.06406917
      23      -0.00318720     0.00013080    -0.06450107
      24       0.00151627    -0.00006223     0.00022285    -0.06413866
    ==== End of matrix output ====

 N(  5)_ao matrix: 

               Column   1     Column   2     Column   3     Column   4
       1       0.03153628
       2       0.00000004     0.03153628
       3       0.00605169     0.02943356     0.03153628
       4      -0.00004863    -0.00052755    -0.00059613     0.03145180
       5       0.00016742     0.00181606     0.00205214    -0.00007846
       6      -0.00005480    -0.00059444    -0.00067172     0.00002568
       7      -0.00001041    -0.00054080    -0.00071758     0.02525427
       8       0.00003585     0.00186167     0.00247022    -0.00011021
       9      -0.00001174    -0.00060937    -0.00080857     0.00003608
      10      -0.00000198    -0.00007273    -0.00007930     0.00126354
      11      -0.00000223    -0.00008195    -0.00008936     0.00000354
      12      -0.00000171    -0.00006288    -0.00006857     0.00021411
      13       0.00000065     0.00002380     0.00002596    -0.00041359
      14      -0.00000312    -0.00011461    -0.00012498    -0.00036118
      15       0.00205310     0.01635693     0.01943351    -0.01047745
      16       0.00214758     0.01693267     0.02044051    -0.00671245
      17       0.00274271     0.01055092     0.00954724    -0.00251352
      18       0.00001255     0.00073009     0.00096386    -0.00072059
      19      -0.00213068    -0.00857302    -0.00792495     0.00998830
      20       0.00204732     0.01592933     0.01884349     0.00950510
      21       0.00214514     0.01665338     0.02003127     0.00572188
      22      -0.00273098    -0.01051086    -0.00960127    -0.00256020
      23       0.00001224     0.00064105     0.00083482     0.00059156
      24      -0.00211591    -0.00820444    -0.00751997    -0.00939371

               Column   5     Column   6     Column   7     Column   8
       5       0.03169909
       6      -0.00008841     0.03145794
       7      -0.00011021     0.00003608     0.03133581
       8       0.02560166    -0.00012419    -0.00018618     0.03192263
       9      -0.00012419     0.02526291     0.00006094    -0.00020978
      10      -0.00037696     0.00000354     0.00109244    -0.00032854
      11      -0.00042475     0.00126439     0.00000400    -0.00037020
      12      -0.00073705    -0.00047332     0.00018569    -0.00063924
      13       0.00000354    -0.00036729    -0.00035758     0.00000400
      14      -0.00127745     0.00000558    -0.00031071    -0.00110816
      15       0.00119988     0.00745029    -0.01438844     0.00175004
      16       0.00156339     0.00433421    -0.01035990     0.00241757
      17       0.00049660     0.00931610     0.00232857     0.00038898
      18       0.00995902     0.00050988    -0.00111751     0.01238284
      19      -0.00043262     0.00237668     0.00829789    -0.00037575
      20       0.00112040     0.00724530     0.01291924     0.00160917
      21       0.00148438     0.00427860     0.00879780     0.00226610
      22      -0.00049042    -0.00928293     0.00188259    -0.00039905
      23       0.00956340     0.00045086     0.00090107     0.01177127
      24      -0.00038694     0.00225894    -0.00766753    -0.00031980

               Column   9     Column  10     Column  11     Column  12
       9       0.03135039
      10       0.00000400     0.03157897
      11       0.00109340     0.00001480     0.03158252
      12      -0.00040810     0.00005007    -0.00002720     0.03149324
      13      -0.00031762    -0.00004851    -0.00004310     0.00000790
      14       0.00000631     0.00000109     0.00004951     0.00007892
      15       0.01017483    -0.00037176     0.00022108     0.00010304
      16       0.00668679    -0.00024589     0.00010671    -0.00008397
      17       0.00746591    -0.00028639     0.00043458     0.00515763
      18       0.00079077    -0.00804461     0.00604313    -0.00019129
      19       0.00603011     0.00050195    -0.00002721     0.00652295
      20       0.00983890     0.00028698     0.00021052     0.00021262
      21       0.00658031     0.00015533     0.00010527    -0.00001483
      22      -0.00753441    -0.00024869    -0.00041952    -0.00512602
      23       0.00068690     0.00764583     0.00588858    -0.00016200
      24       0.00576128    -0.00043046    -0.00002554     0.00619736

               Column  13     Column  14     Column  15     Column  16
      13       0.03144666
      14       0.00001367     0.03158000
      15      -0.00383839     0.00255065     0.03122663
      16      -0.00059827     0.00039824     0.02821910     0.03122663
      17      -0.00513086    -0.00061940    -0.00025220    -0.00022365
      18      -0.00027886    -0.00013456     0.00175981     0.00156056
      19       0.00078527    -0.00581821    -0.00077659    -0.00068866
      20       0.00362298     0.00230131     0.01141992     0.01464243
      21       0.00053385     0.00028170     0.01486155     0.01847862
      22      -0.00490541     0.00065449    -0.00558189    -0.00541317
      23       0.00024145    -0.00014781     0.00036824     0.00056637
      24      -0.00075272    -0.00540006    -0.00016250    -0.00024993

               Column  17     Column  18     Column  19     Column  20
      17       0.03113780
      18      -0.00003311     0.03136406
      19       0.00001461    -0.00010194     0.03117804
      20       0.00552302     0.00041549    -0.00018335     0.02923715
      21       0.00531927     0.00065265    -0.00028801     0.02642123
      22      -0.00769974    -0.00018200     0.00008031    -0.00063218
      23       0.00017596     0.00156145    -0.00000458     0.00144443
      24      -0.00007765    -0.00000458     0.00155308    -0.00063741

               Column  21     Column  22     Column  23     Column  24
      21       0.02923715
      22      -0.00056061     0.02919218
      23       0.00128089    -0.00007275     0.02932656
      24      -0.00056524     0.00003210    -0.00007335     0.02919271
    ==== End of matrix output ====

 N(  6)_ao matrix: 

               Column   1     Column   2     Column   3     Column   4
       1       0.03074044
       2       0.00000003     0.03074044
       3       0.00589897     0.02869079     0.03074044
       4      -0.00000198    -0.00002143    -0.00002421     0.03064113
       5       0.00016816     0.00182416     0.00206129    -0.00000328
       6      -0.00004322    -0.00046886    -0.00052981     0.00000084
       7      -0.00000042    -0.00002197    -0.00002915     0.02459313
       8       0.00003601     0.00186997     0.00248124    -0.00000461
       9      -0.00000926    -0.00048063    -0.00063775     0.00000119
      10      -0.00000008    -0.00000304    -0.00000332     0.00126646
      11      -0.00000181    -0.00006660    -0.00007262     0.00000012
      12      -0.00000177    -0.00006493    -0.00007080     0.00000871
      13       0.00000002     0.00000078     0.00000085    -0.00032552
      14      -0.00000353    -0.00012955    -0.00014126    -0.00001464
      15       0.00199905     0.01577626     0.01871107    -0.00977243
      16       0.00209244     0.01639651     0.01976501    -0.00608010
      17       0.00266955     0.01030710     0.00937836    -0.00248360
      18       0.00001249     0.00069613     0.00091404    -0.00066492
      19      -0.00207041    -0.00816628    -0.00750513     0.00943671
      20       0.00199882     0.01575876     0.01868690     0.00973269
      21       0.00209235     0.01638512     0.01974831     0.00603970
      22      -0.00266907    -0.01030544    -0.00938054    -0.00248551
      23       0.00001247     0.00069233     0.00090853     0.00065943
      24      -0.00206981    -0.00815139    -0.00748882    -0.00941269

               Column   5     Column   6     Column   7     Column   8
       5       0.03092064
       6      -0.00007185     0.03065956
       7      -0.00000461     0.00000119     0.03050478
       8       0.02498579    -0.00010094    -0.00000779     0.03116805
       9      -0.00010094     0.02461902     0.00000200    -0.00017050
      10      -0.00001534     0.00000012     0.00109425    -0.00001338
      11      -0.00033573     0.00126908     0.00000014    -0.00029279
      12      -0.00074115    -0.00037331     0.00000755    -0.00064301
      13       0.00000012    -0.00001491    -0.00028125     0.00000014
      14      -0.00128633     0.00000511    -0.00001259    -0.00111669
      15       0.00117258     0.00725497    -0.01336019     0.00169980
      16       0.00153822     0.00429861    -0.00936823     0.00236662
      17       0.00050130     0.00912635     0.00205172     0.00040280
      18       0.00955764     0.00049285    -0.00102374     0.01183744
      19      -0.00041018     0.00227701     0.00775169    -0.00034560
      20       0.00116921     0.00724636     0.01330007     0.00169383
      21       0.00153488     0.00429613     0.00930446     0.00236022
      22      -0.00050103    -0.00912497     0.00203347    -0.00040322
      23       0.00954134     0.00049029     0.00101452     0.01181219
      24      -0.00040829     0.00227213    -0.00772637    -0.00034330

               Column   9     Column  10     Column  11     Column  12
       9       0.03054851
      10       0.00000014     0.03078396
      11       0.00109721     0.00000049     0.03079462
      12      -0.00032187     0.00000210    -0.00002209     0.03069613
      13      -0.00001289    -0.00003926    -0.00000180     0.00000026
      14       0.00000577     0.00000005     0.00004042     0.00008930
      15       0.00989275    -0.00033300     0.00022529     0.00016930
      16       0.00662422    -0.00020310     0.00011607    -0.00004067
      17       0.00737205    -0.00027121     0.00043678     0.00505384
      18       0.00075900    -0.00767187     0.00585321    -0.00017637
      19       0.00580046     0.00046865    -0.00002833     0.00621552
      20       0.00987860     0.00032943     0.00022483     0.00017374
      21       0.00661948     0.00019930     0.00011600    -0.00003787
      22      -0.00737487    -0.00026962    -0.00043613    -0.00505250
      23       0.00075449     0.00765554     0.00584681    -0.00017514
      24       0.00578926    -0.00046566    -0.00002825     0.00620225

               Column  13     Column  14     Column  15     Column  16
      13       0.03064130
      14       0.00000045     0.03078621
      15      -0.00366720     0.00236405     0.02964451
      16      -0.00056560     0.00032273     0.02678936     0.02964451
      17      -0.00492333    -0.00062494     0.00020242     0.00017950
      18      -0.00026588    -0.00014383     0.00163289     0.00144801
      19       0.00076345    -0.00546812    -0.00059129    -0.00052434
      20       0.00365818     0.00235389     0.01119435     0.01445696
      21       0.00056275     0.00031800     0.01446601     0.01811803
      22      -0.00491401     0.00062637    -0.00544859    -0.00526956
      23       0.00026427    -0.00014438     0.00039838     0.00061892
      24      -0.00076204    -0.00545115    -0.00014426    -0.00022412

               Column  17     Column  18     Column  19     Column  20
      17       0.02956766
      18       0.00002597     0.02977395
      19      -0.00000940    -0.00007586     0.02959192
      20       0.00544617     0.00040041    -0.00014499     0.02956241
      21       0.00526571     0.00062263    -0.00022546     0.02671517
      22      -0.00755018    -0.00018309     0.00006630    -0.00023879
      23       0.00018283     0.00153203    -0.00000401     0.00161936
      24      -0.00006621    -0.00000401     0.00152241    -0.00058639

               Column  21     Column  22     Column  23     Column  24
      21       0.02956241
      22      -0.00021175     0.02948751
      23       0.00143601    -0.00003047     0.02968963
      24      -0.00052000     0.00001103    -0.00007482     0.02951011
    ==== End of matrix output ====

 N(  7)_ao matrix: 

               Column   1     Column   2     Column   3     Column   4
       1      -0.13348876
       2      -0.00000015    -0.13348876
       3      -0.02561599    -0.12458822    -0.13348875
       4      -0.00145999    -0.01583733    -0.01789610    -0.13630731
       5       0.00016457     0.00178520     0.00201727     0.00054697
       6      -0.00072223    -0.00783437    -0.00885279    -0.00240039
       7      -0.00031265    -0.01623503    -0.02154205    -0.11135958
       8       0.00003524     0.00183003     0.00242824     0.00076836
       9      -0.00015466    -0.00803110    -0.01065636    -0.00337197
      10       0.00001380     0.00050702     0.00055286     0.00136406
      11       0.00000683     0.00025081     0.00027349     0.00007690
      12       0.00001850     0.00067948     0.00074091     0.00639877
      13      -0.00006057    -0.00222507    -0.00242624    -0.00598621
      14      -0.00006045    -0.00222044    -0.00242118    -0.01140294
      15      -0.00863487    -0.06489507    -0.07623932     0.03024714
      16      -0.00906736    -0.06890354    -0.08244633     0.01266085
      17      -0.01154652    -0.04635817    -0.04358764     0.01072369
      18       0.00001164     0.00051716     0.00065696    -0.00037678
      19       0.00880971     0.03007408     0.02635491    -0.03310181
      20      -0.00881091    -0.08056348    -0.09826545    -0.06529209
      21      -0.00913874    -0.07819802    -0.09621831    -0.04582503
      22       0.01192565     0.04644060     0.03947054     0.00544427
      23       0.00001322     0.00156760     0.00224130     0.00203164
      24       0.00926711     0.03984903     0.03612333     0.04918081

               Column   5     Column   6     Column   7     Column   8
       5      -0.13151653
       6       0.00027057    -0.13264230
       7       0.00076836    -0.00337197    -0.14017683
       8      -0.10462969     0.00038009     0.00129791    -0.12880875
       9       0.00038009    -0.10621111    -0.00569591     0.00064205
      10      -0.01073968     0.00007690     0.00121174    -0.00921122
      11      -0.00531268     0.00124665     0.00008690    -0.00455658
      12      -0.00072128    -0.00602148     0.00554209    -0.00062471
      13       0.00007690    -0.01105963    -0.00531772     0.00008690
      14      -0.00113187    -0.00033677    -0.00996075    -0.00094935
      15       0.00100055    -0.03468516     0.04000792     0.00140291
      16       0.00135907    -0.02510383     0.01943066     0.00203535
      17       0.00051527    -0.04314433    -0.00466916     0.00045909
      18      -0.03751525     0.00042278    -0.00055737    -0.04524613
      19      -0.00026795    -0.00885553    -0.02513210    -0.00017020
      20       0.00176645    -0.04617485    -0.09483427     0.00280059
      21       0.00202949    -0.03044849    -0.07305771     0.00334117
      22      -0.00042386     0.04308906    -0.02766705    -0.00006625
      23      -0.05163566     0.00138823     0.00353329    -0.06765664
      24      -0.00051311    -0.01475224     0.03962565    -0.00038722

               Column   9     Column  10     Column  11     Column  12
       9      -0.13148008
      10       0.00008690    -0.13387781
      11       0.00107905    -0.00127169    -0.13193614
      12      -0.00513372    -0.00034422     0.00007724    -0.13299007
      13      -0.00957278     0.00017778     0.00030613    -0.00068520
      14      -0.00038057     0.00003480    -0.00012569     0.00150747
      15      -0.04677281    -0.00007101     0.00032727    -0.00342749
      16      -0.03795936     0.00010129     0.00028233    -0.00146606
      17      -0.03657530    -0.00015211     0.00049611    -0.02477350
      18       0.00061687     0.02863680    -0.02510097    -0.00007110
      19      -0.02385325     0.00026886    -0.00004458    -0.02348071
      20      -0.06648448     0.00075839     0.00049337    -0.00042055
      21      -0.04828129     0.00057266     0.00034217     0.00053698
      22       0.03069567    -0.00046248    -0.00066688     0.02683559
      23       0.00239999    -0.04199443    -0.03132976    -0.00028653
      24      -0.03779881    -0.00080841    -0.00009305    -0.03415848

               Column  13     Column  14     Column  15     Column  16
      13      -0.13461748
      14      -0.00142049    -0.13402228
      15       0.01359377    -0.00824952    -0.11107539
      16       0.00087974    -0.00128836    -0.10037659    -0.11107324
      17       0.01927716     0.00298205    -0.01202189    -0.01066073
      18      -0.00019039    -0.00016914     0.00102661     0.00091038
      19      -0.00358172     0.01884267    -0.00224867    -0.00199407
      20      -0.02477673    -0.01719494    -0.05512065    -0.07570562
      21      -0.00666101    -0.00519815    -0.06605332    -0.08759582
      22       0.02849755    -0.00185073     0.02337998     0.02020569
      23       0.00068252     0.00001488     0.00101577     0.00172970
      24       0.00604018     0.03227997    -0.00222493    -0.00378870

               Column  17     Column  18     Column  19     Column  20
      17      -0.11305391
      18       0.00025881    -0.11004524
      19      -0.00056690     0.00004841    -0.11012918
      20      -0.02683989     0.00033726    -0.00073872    -0.20326140
      21      -0.02604523     0.00047647    -0.00104364    -0.18243415
      22       0.03631496    -0.00021073     0.00046159    -0.03860830
      23       0.00028530    -0.00726843     0.00000921     0.00639986
      24      -0.00062492     0.00000921    -0.00728439    -0.01401810

               Column  21     Column  22     Column  23     Column  24
      21      -0.19989111
      22      -0.03422949    -0.21486540
      23       0.00567401     0.00281623    -0.19834282
      24      -0.01242822    -0.00616860     0.00102253    -0.20011572
    ==== End of matrix output ====

 N(  8)_ao matrix: 

               Column   1     Column   2     Column   3     Column   4
       1       0.05911626
       2       0.00000007     0.05911626
       3       0.01134419     0.05517461     0.05911626
       4       0.00048501     0.00526112     0.00594504     0.05961886
       5      -0.00023664    -0.00256691    -0.00290060    -0.00058997
       6       0.00034806     0.00377558     0.00426639     0.00086777
       7       0.00010386     0.00539324     0.00715622     0.04826885
       8      -0.00005067    -0.00263138    -0.00349154    -0.00082878
       9       0.00007454     0.00387040     0.00513558     0.00121902
      10      -0.00001489    -0.00054687    -0.00059631    -0.00187573
      11      -0.00001068    -0.00039246    -0.00042794    -0.00009026
      12      -0.00000183    -0.00006731    -0.00007340    -0.00208626
      13       0.00002190     0.00080437     0.00087709     0.00275895
      14       0.00001162     0.00042702     0.00046563     0.00368491
      15       0.00383487     0.02950028     0.03480644    -0.01476625
      16       0.00402015     0.03102735     0.03726110    -0.00699719
      17       0.00513781     0.02093742     0.01967721    -0.00492827
      18      -0.00001720    -0.00084482    -0.00108842     0.00065018
      19      -0.00392573    -0.01362896    -0.01190822     0.01522156
      20       0.00389349     0.03472002     0.04214207     0.02631864
      21       0.00404385     0.03412995     0.04186024     0.01799754
      22      -0.00526371    -0.02123666    -0.01873705    -0.00373560
      23      -0.00001904    -0.00194939    -0.00274780    -0.00230945
      24      -0.00407802    -0.01667052    -0.01482777    -0.02023288

               Column   5     Column   6     Column   7     Column   8
       5       0.05869752
       6      -0.00042339     0.05903241
       7      -0.00082878     0.00121902     0.06030891
       8       0.04697456    -0.00059476    -0.00139998     0.05812259
       9      -0.00059476     0.04744501     0.00205918    -0.00100468
      10       0.00364806    -0.00009026    -0.00164557     0.00315077
      11       0.00261799    -0.00181473    -0.00010200     0.00226111
      12       0.00101789     0.00296103    -0.00179655     0.00087654
      13      -0.00009026     0.00371946     0.00242040    -0.00010200
      14       0.00170204     0.00007048     0.00319240     0.00144928
      15      -0.00153769     0.01613596    -0.01971502    -0.00219036
      16      -0.00205751     0.01170976    -0.01070873    -0.00312316
      17      -0.00078799     0.01961933     0.00232319    -0.00071335
      18       0.01736408    -0.00070780     0.00097637     0.02116485
      19       0.00040580     0.00426994     0.01152813     0.00025314
      20      -0.00235870     0.02010510     0.03773579    -0.00368634
      21      -0.00278502     0.01361235     0.02847880    -0.00454060
      22       0.00077426    -0.01987462     0.00886581     0.00046010
      23       0.02231852    -0.00175679    -0.00392706     0.02908968
      24       0.00063099     0.00645418    -0.01574443     0.00041203

               Column   9     Column  10     Column  11     Column  12
       9       0.05891728
      10      -0.00010200     0.05916388
      11      -0.00157663     0.00047761     0.05884110
      12       0.00254089     0.00036576    -0.00012847     0.05905391
      13       0.00323145    -0.00025642    -0.00033656     0.00026332
      14       0.00007965    -0.00001630     0.00021402    -0.00028560
      15       0.02196372     0.00018993    -0.00051215     0.00157140
      16       0.01784236    -0.00004605    -0.00043742     0.00072409
      17       0.01669513     0.00026872    -0.00076865     0.01130088
      18      -0.00105525    -0.01330786     0.01156527     0.00011188
      19       0.01136642    -0.00043950     0.00006891     0.01087102
      20       0.02879142    -0.00092725    -0.00069857     0.00063325
      21       0.02152427    -0.00068169    -0.00050629     0.00008190
      22      -0.01523473     0.00062561     0.00097027    -0.01201543
      23      -0.00298505     0.01785906     0.01375173     0.00032481
      24       0.01646634     0.00099764     0.00011740     0.01439339

               Column  13     Column  14     Column  15     Column  16
      13       0.05936671
      14       0.00048661     0.05915573
      15      -0.00653430     0.00378465     0.05241956
      16      -0.00065988     0.00043967     0.04737075     0.05241924
      17      -0.00907983    -0.00134806     0.00488651     0.00433324
      18       0.00032534     0.00025294    -0.00178634    -0.00158409
      19       0.00168008    -0.00877063     0.00167874     0.00148867
      20       0.01035107     0.00666993     0.02461399     0.03336741
      21       0.00267953     0.00168862     0.03008112     0.03947288
      22      -0.01230313     0.00093457    -0.01110769    -0.01016657
      23      -0.00086060     0.00008866    -0.00129189    -0.00215181
      24      -0.00246601    -0.01307562     0.00121407     0.00202219

[...]


 *****************************************************************
 ******* End of Coupled Cluster/Molecular Mechanics program ******
 *****************************************************************
  


             +--------------------------------------------------------+
             ! Unrelaxed CCSD    First-order one-electron properties: !
             +--------------------------------------------------------+



                            +-------------------------+
                            !  Electric Dipole Moment !
                            +-------------------------+



                          Total Molecular Dipole Moment
                          -----------------------------

                 au               Debye          C m (/(10**-30)

      x      0.07737791         0.19667501         0.65603722
      y      0.01153511         0.02931933         0.09779875
      z      0.79926614         2.03153177         6.77646055




                          +-----------------------------+
                          !  Electric Quadrupole Moment !
                          +-----------------------------+



                        Total Molecular quadrupole moment
                        ---------------------------------

                    X              Y              Z

               Column   1     Column   2     Column   3
       1       1.54254570     0.00245646     0.12096569
       2       0.00245646    -1.66220379     0.00675196
       3       0.12096569     0.00675196     0.11965809
    ==== End of matrix output ====


                      +-------------------------------------+
                      !  Electronic second moment of charge !
                      +-------------------------------------+

                    X              Y              Z

               Column   1     Column   2     Column   3
       1       7.21227682    -0.00163764    -0.08064379
       2      -0.00163764     5.25815938    -0.00450131
       3      -0.08064379    -0.00450131     6.52288882
    ==== End of matrix output ====

 Alfa**2 Invariant:                         40.082933
 Beta**2 Invariant:                          2.966265

 Isotropic Property:                         6.331108 a.u.
 Property anisotropy invariant:              1.722285 a.u.
   

 *******************************************************************
 *                                                                 *
 *<<<<<<<<<<                                             >>>>>>>>>>*
 *<<<<<<<<<< OUTPUT FROM COUPLED CLUSTER ENERGY PROGRAM  >>>>>>>>>>*
 *<<<<<<<<<<                                             >>>>>>>>>>*
 *                                                                 *
 *******************************************************************


             The Direct Coupled Cluster Energy Program
             -----------------------------------------


          Number of t1 amplitudes                 :        95
          Number of t2 amplitudes                 :      4560
          Total number of amplitudes in ccsd      :      4655

 Iter.  1: Coupled cluster RSTAR energy :     -76.2397167767557136
 Iter.  1: Coupled cluster CCSD  energy :     -76.2397167767139479
 Iter.  2: Coupled cluster CCSD  energy :     -76.2397167766934700
 Iter.  3: Coupled cluster CCSD  energy :     -76.2397167766975770
 Iter.  4: Coupled cluster CCSD  energy :     -76.2397167767001491

 CCSD energy will not be converged further

 right now in CCSLV calc.
 Accumulated inner iterations at this point are    40

 CCSD  energy converged to within   0.10D-11 is          -76.239716776700
 Final 2-norm of the CC vector function:  3.59525633D-11
  Change in norm^2 of T-amplitudes in this solvent it.:  -4.4978985813681760E-011




                   +--------------------------------------------+
                   ! Calculating singlet intermediates for CCLR !
                   +--------------------------------------------+



            E-intermediates calculated 
            Fock-intermediate calculated 
            Gamma-intermediate calculated 
            BF-intermediate calculated 
            C-intermediate calculated 
            D-intermediate calculated 


   

 *******************************************************************
 *                                                                 *
 *<<<<<<<<<<<<< OUTPUT FROM COUPLED CLUSTER RESPONSE  >>>>>>>>>>>>>*
 *                                                                 *
 *<<<<<<<<<<    CALCULATION OF FIRST ORDER PROPERTIES    >>>>>>>>>>*
 *                                                                 *
 *******************************************************************



                         +--------------------------------+
                         ! Coupled Cluster model is: CCSD !
                         +--------------------------------+

 RPA: call cceq_str
 Vector nr.  1 of symmetry  1 found on file - RESTART SUCCESS
 Start vector is a CCSD      L0  vector
 RPA: exit cceq_str
  CCSLV: We stop for now though not fully converged yet
  Accumulated inner iterations are:          45
  Change in norm^2 of L-amplitudes in this ccmm it.:  -1.3045897695462827E-011
 Total <Lambda|H|CC> energy:   -76.239411133359852     
            The singles contribution is:             0.0004380753
            The doubles contribution is:            -0.0001324319
 CCFOP: call CC_D1AO to recalc the 1e Density


                            +--------------------------+
                            ! CCSD Natural Occupations !
                            +--------------------------+

  
   Symmetry block number:  1
   ---------------------
  
   1.99991651   1.98465502   1.97309708   1.96755142   1.96475630
   0.02631592   0.02383749   0.01697471   0.01157258   0.00589645
   0.00561978   0.00509301   0.00451179   0.00440073   0.00115031
   0.00111522   0.00072406   0.00065839   0.00055793   0.00053395
   0.00049321   0.00047404   0.00005660   0.00003750
  
   Sum in this symmetry class:  10.000000
  
  
   Total Sum of natural occupation numbers:  10.000000
  
   Dynamical correlation move: 0.110024 electrons
   

 *****************************************************************
 **** Output from Coupled Cluster/Molecular Mechanics program ****
 *****************************************************************


                         +--------------------------------+
                         ! Coupled Cluster model is: CCSD !
                         +--------------------------------+



 E(QM/MM) contribution in iteration  4:           -0.0051877650
 CC energy in the  current CCMM iteration:       -76.2445988984
 CC energy in the previous CCMM iteration:       -76.2445988985
 Change in Total energy in this CCMM it.:          0.801208E-10


 *****************************************************************
 ******* End of Coupled Cluster/Molecular Mechanics program ******
 *****************************************************************
  


             +--------------------------------------------------------+
             ! Unrelaxed CCSD    First-order one-electron properties: !
             +--------------------------------------------------------+



                            +-------------------------+
                            !  Electric Dipole Moment !
                            +-------------------------+



                          Total Molecular Dipole Moment
                          -----------------------------

                 au               Debye          C m (/(10**-30)

      x      0.07737791         0.19667501         0.65603721
      y      0.01153511         0.02931933         0.09779875
      z      0.79926614         2.03153177         6.77646055




                          +-----------------------------+
                          !  Electric Quadrupole Moment !
                          +-----------------------------+



                        Total Molecular quadrupole moment
                        ---------------------------------

                    X              Y              Z

               Column   1     Column   2     Column   3
       1       1.54254570     0.00245646     0.12096569
       2       0.00245646    -1.66220379     0.00675196
       3       0.12096569     0.00675196     0.11965809
    ==== End of matrix output ====


                      +-------------------------------------+
                      !  Electronic second moment of charge !
                      +-------------------------------------+

                    X              Y              Z

               Column   1     Column   2     Column   3
       1       7.21227682    -0.00163764    -0.08064379
       2      -0.00163764     5.25815938    -0.00450131
       3      -0.08064379    -0.00450131     6.52288882
    ==== End of matrix output ====

 Alfa**2 Invariant:                         40.082933
 Beta**2 Invariant:                          2.966265

 Isotropic Property:                         6.331108 a.u.
 Property anisotropy invariant:              1.722285 a.u.
   

 *******************************************************************
 *                                                                 *
 *<<<<<<<<<<                                             >>>>>>>>>>*
 *<<<<<<<<<< OUTPUT FROM COUPLED CLUSTER ENERGY PROGRAM  >>>>>>>>>>*
 *<<<<<<<<<<                                             >>>>>>>>>>*
 *                                                                 *
 *******************************************************************


             The Direct Coupled Cluster Energy Program
             -----------------------------------------


          Number of t1 amplitudes                 :        95
          Number of t2 amplitudes                 :      4560
          Total number of amplitudes in ccsd      :      4655

 Iter.  1: Coupled cluster RSTAR energy :     -76.2397167767001491
 Iter.  1: Coupled cluster CCSD  energy :     -76.2397167766995949

 CCSD  energy converged to within   0.10D-11 is          -76.239716776700
 Final 2-norm of the CC vector function:  1.16733444D-11
  Change in norm^2 of T-amplitudes in this solvent it.:   3.6047553830798051E-014




                   +--------------------------------------------+
                   ! Calculating singlet intermediates for CCLR !
                   +--------------------------------------------+



            E-intermediates calculated 
            Fock-intermediate calculated 
            Gamma-intermediate calculated 
            BF-intermediate calculated 
            C-intermediate calculated 
            D-intermediate calculated 


   

 *******************************************************************
 *                                                                 *
 *<<<<<<<<<<<<< OUTPUT FROM COUPLED CLUSTER RESPONSE  >>>>>>>>>>>>>*
 *                                                                 *
 *<<<<<<<<<<    CALCULATION OF FIRST ORDER PROPERTIES    >>>>>>>>>>*
 *                                                                 *
 *******************************************************************



                         +--------------------------------+
                         ! Coupled Cluster model is: CCSD !
                         +--------------------------------+

 RPA: call cceq_str
 Vector nr.  1 of symmetry  1 found on file - RESTART SUCCESS
 Start vector is a CCSD      L0  vector
 RPA: exit cceq_str
  Change in norm^2 of L-amplitudes in this ccmm it.:   5.1689208468985726E-013
 Total <Lambda|H|CC> energy:   -76.239411133355773     
            The singles contribution is:             0.0004380753
            The doubles contribution is:            -0.0001324319
 CCFOP: call CC_D1AO to recalc the 1e Density


                            +--------------------------+
                            ! CCSD Natural Occupations !
                            +--------------------------+

  
   Symmetry block number:  1
   ---------------------
  
   1.99991651   1.98465502   1.97309708   1.96755142   1.96475630
   0.02631592   0.02383749   0.01697471   0.01157258   0.00589645
   0.00561978   0.00509301   0.00451179   0.00440073   0.00115031
   0.00111522   0.00072406   0.00065839   0.00055793   0.00053395
   0.00049321   0.00047404   0.00005660   0.00003750
  
   Sum in this symmetry class:  10.000000
  
  
   Total Sum of natural occupation numbers:  10.000000
  
   Dynamical correlation move: 0.110024 electrons
   

 *****************************************************************
 **** Output from Coupled Cluster/Molecular Mechanics program ****
 *****************************************************************


                         +--------------------------------+
                         ! Coupled Cluster model is: CCSD !
                         +--------------------------------+



 E(QM/MM) contribution in iteration  5:           -0.0051877650
 CC energy in the  current CCMM iteration:       -76.2445988984
 CC energy in the previous CCMM iteration:       -76.2445988984
 Change in Total energy in this CCMM it.:          0.393641E-11




 ------------------------------------------------------------------------
 |<<<<<<<<<<<<<<< The MM/MM classical interaction energy >>>>>>>>>>>>>>>|
 ------------------------------------------------------------------------
 |  Eelec = Sum_n,s[ (Q_n*Q_s)/|R_n - R_s| ]        |       -0.00070616 |
 ------------------------------------------------------------------------
 |  Epol  = - 1/2*Sum_a[ MYind_a*E^site_a ]         |        0.00000000 |
 ------------------------------------------------------------------------
 |  Evdw  = Sum_a[ A_ma/|R_ma|^12 - B_ma/|R_ma|^6 ] |       -0.00011662 |
 ------------------------------------------------------------------------
 |**************************************************|*******************|
 ------------------------------------------------------------------------
 |  E(MM/MM) = Eelec + Epol + Evdw                  |       -0.00082278 |
 ------------------------------------------------------------------------


 +======================================================================+
 |<<<<<<<<<<<<<< Final output from CCSD/MM energy program >>>>>>>>>>>>>>|
 +======================================================================+
 |      Eelec      |      Epol       |      Evdw       |    E(QM/MM)    |
 +----------------------------------------------------------------------+
 |   -0.0102987375 |    0.0000000000 |    0.0051109725 |  -0.0051877650 |
 +----------------------------------------------------------------------+
 +======================================================================+
 +----------------------------------------------------------------------+
 |  <L|H(vac)|CC>  | <H(qm)+H(qmmm)> | Delta E(mm/mm)  | E_rep          |
 +----------------------------------------------------------------------+
 |  -76.2394111334 |  -76.2445988984 |    0.0000000000 |   0.0000000000 |
 +======================================================================+


 Maximum inner iterations for t set to   4 in each outer iteration
 Maximum inner iterations for t-bar set to   5 in each outer iteration


  CCMM equations are converged in   5 outer iterations
  CCMM equations are converged in  51 inner iterations
 *****************************************************************
 ******* End of Coupled Cluster/Molecular Mechanics program ******
 *****************************************************************
  


             +--------------------------------------------------------+
             ! Unrelaxed CCSD    First-order one-electron properties: !
             +--------------------------------------------------------+



                            +-------------------------+
                            !  Electric Dipole Moment !
                            +-------------------------+



                          Total Molecular Dipole Moment
                          -----------------------------

                 au               Debye          C m (/(10**-30)

      x      0.07737791         0.19667501         0.65603721
      y      0.01153511         0.02931933         0.09779875
      z      0.79926614         2.03153177         6.77646055




                          +-----------------------------+
                          !  Electric Quadrupole Moment !
                          +-----------------------------+



                        Total Molecular quadrupole moment
                        ---------------------------------

                    X              Y              Z

               Column   1     Column   2     Column   3
       1       1.54254570     0.00245646     0.12096569
       2       0.00245646    -1.66220379     0.00675196
       3       0.12096569     0.00675196     0.11965809
    ==== End of matrix output ====


                      +-------------------------------------+
                      !  Electronic second moment of charge !
                      +-------------------------------------+

                    X              Y              Z

               Column   1     Column   2     Column   3
       1       7.21227682    -0.00163764    -0.08064379
       2      -0.00163764     5.25815938    -0.00450131
       3      -0.08064379    -0.00450131     6.52288882
    ==== End of matrix output ====

 Alfa**2 Invariant:                         40.082933
 Beta**2 Invariant:                          2.966265

 Isotropic Property:                         6.331108 a.u.
 Property anisotropy invariant:              1.722285 a.u.
  

 *******************************************************************************
 *******************************************************************************
 *                                                                             *
 *                                                                             *
 *                   SUMMARY OF COUPLED CLUSTER CALCULATION                    *
 *                                                                             *
 *                                                                             *
 *******************************************************************************
 *******************************************************************************

            CCSD Total  energy:                   -76.2445988984                
            CCSD E(QM/MM)     :                    -0.0051877650                
                                                                                
  

 *******************************************************************************
 *******************************************************************************
 *                                                                             *
 *                                                                             *
 *                      END OF COUPLED CLUSTER CALCULATION                     *
 *                                                                             *
 *                                                                             *
 *******************************************************************************
 *******************************************************************************


 >>>> CPU and wall time for CC :       2.132       2.838

 
     Date and time (Linux)  : Sun Sep  8 20:41:03 2013
     Host name              : lpqlx131.ups-tlse.fr                    


                      .-------------------------------------.
                      | End of Coupled Cluster Section (CC) |
                      `-------------------------------------'

 >>>> Total CPU  time used in DALTON:   2.20 seconds
 >>>> Total wall time used in DALTON:   2.91 seconds

 
     Date and time (Linux)  : Sun Sep  8 20:41:03 2013
     Host name              : lpqlx131.ups-tlse.fr                    
