

     ************************************************************************
     *************** Dalton - An Electronic Structure Program ***************
     ************************************************************************

    This is output from DALTON (Release Dalton2013 patch 0)
   ----------------------------------------------------------------------------
    NOTE:
     
    Dalton is an experimental code for the evaluation of molecular
    properties using (MC)SCF, DFT, CI, and CC wave functions.
    The authors accept no responsibility for the performance of
    the code or for the correctness of the results.
     
    The code (in whole or part) is provided under a licence and
    is not to be reproduced for further distribution without
    the written permission of the authors or their representatives.
     
    See the home page "http://daltonprogram.org" for further information.
     
    If results obtained with this code are published,
    the appropriate citations would be both of:
     
       K. Aidas, C. Angeli, K. L. Bak, V. Bakken, R. Bast,
       L. Boman, O. Christiansen, R. Cimiraglia, S. Coriani,
       P. Dahle, E. K. Dalskov, U. Ekstroem, T. Enevoldsen,
       J. J. Eriksen, P. Ettenhuber, B. Fernandez, L. Ferrighi,
       H. Fliegl, L. Frediani, K. Hald, A. Halkier, C. Haettig,
       H. Heiberg, T. Helgaker, A. C. Hennum, H. Hettema,
       E. Hjertenaes, S. Hoest, I.-M. Hoeyvik, M. F. Iozzi,
       B. Jansik, H. J. Aa. Jensen, D. Jonsson, P. Joergensen,
       J. Kauczor, S. Kirpekar, T. Kjaergaard, W. Klopper,
       S. Knecht, R. Kobayashi, H. Koch, J. Kongsted, A. Krapp,
       K. Kristensen, A. Ligabue, O. B. Lutnaes, J. I. Melo,
       K. V. Mikkelsen, R. H. Myhre, C. Neiss, C. B. Nielsen,
       P. Norman, J. Olsen, J. M. H. Olsen, A. Osted,
       M. J. Packer, F. Pawlowski, T. B. Pedersen, P. F. Provasi,
       S. Reine, Z. Rinkevicius, T. A. Ruden, K. Ruud, V. Rybkin,
       P. Salek, C. C. M. Samson, A. Sanchez de Meras, T. Saue,
       S. P. A. Sauer, B. Schimmelpfennig, K. Sneskov,
       A. H. Steindal, K. O. Sylvester-Hvid, P. R. Taylor,
       A. M. Teale, E. I. Tellgren, D. P. Tew, A. J. Thorvaldsen,
       L. Thoegersen, O. Vahtras, M. A. Watson, D. J. D. Wilson,
       M. Ziolkowski and H. Agren.
       The Dalton quantum chemistry program system.
       WIREs Comput. Mol. Sci. 2013. doi: 10.1002/wcms.1172
    
    and
    
       Dalton, a Molecular Electronic Structure Program,
       Release DALTON2013.0 (2013), see http://daltonprogram.org
   ----------------------------------------------------------------------------

    Authors in alphabetical order (major contribution(s) in parenthesis):

  Kestutis Aidas,           Vilnius University,           Lithuania   (QM/MM)
  Celestino Angeli,         University of Ferrara,        Italy       (NEVPT2)
  Keld L. Bak,              UNI-C,                        Denmark     (AOSOPPA, non-adiabatic coupling, magnetic properties)
  Vebjoern Bakken,          University of Oslo,           Norway      (DALTON; geometry optimizer, symmetry detection)
  Radovan Bast,             KTH Stockholm                 Sweden      (DALTON installation and execution frameworks)
  Linus Boman,              NTNU,                         Norway      (Cholesky decomposition and subsystems)
  Ove Christiansen,         Aarhus University,            Denmark     (CC module)
  Renzo Cimiraglia,         University of Ferrara,        Italy       (NEVPT2)
  Sonia Coriani,            University of Trieste,        Italy       (CC module, MCD in RESPONS)
  Paal Dahle,               University of Oslo,           Norway      (Parallelization)
  Erik K. Dalskov,          UNI-C,                        Denmark     (SOPPA)
  Thomas Enevoldsen,        Univ. of Southern Denmark,    Denmark     (SOPPA)
  Janus J. Eriksen,         Aarhus University,            Denmark     (PE-MP2/SOPPA, TDA)
  Berta Fernandez,          U. of Santiago de Compostela, Spain       (doublet spin, ESR in RESPONS)
  Lara Ferrighi,            Aarhus University,            Denmark     (PCM Cubic response)
  Heike Fliegl,             University of Oslo,           Norway      (CCSD(R12))
  Luca Frediani,            UiT The Arctic U. of Norway,  Norway      (PCM)
  Bin Gao,                  UiT The Arctic U. of Norway,  Norway      (Gen1Int library)
  Christof Haettig,         Ruhr-University Bochum,       Germany     (CC module)
  Kasper Hald,              Aarhus University,            Denmark     (CC module)
  Asger Halkier,            Aarhus University,            Denmark     (CC module)
  Hanne Heiberg,            University of Oslo,           Norway      (geometry analysis, selected one-electron integrals)
  Trygve Helgaker,          University of Oslo,           Norway      (DALTON; ABACUS, ERI, DFT modules, London, and much more)
  Alf Christian Hennum,     University of Oslo,           Norway      (Parity violation)
  Hinne Hettema,            University of Auckland,       New Zealand (quadratic response in RESPONS; SIRIUS supersymmetry)
  Eirik Hjertenaes,         NTNU,                         Norway      (Cholesky decomposition)
  Maria Francesca Iozzi,    University of Oslo,           Norway      (RPA)
  Brano Jansik              Technical Univ. of Ostrava    Czech Rep.  (DFT cubic response)
  Hans Joergen Aa. Jensen,  Univ. of Southern Denmark,    Denmark     (DALTON; SIRIUS, RESPONS, ABACUS modules, London, and much more)
  Dan Jonsson,              UiT The Arctic U. of Norway,  Norway      (cubic response in RESPONS module)
  Poul Joergensen,          Aarhus University,            Denmark     (RESPONS, ABACUS, and CC modules)
  Joanna Kauczor,           Linkoeping University,        Sweden      (Complex polarization propagator (CPP) module)
  Sheela Kirpekar,          Univ. of Southern Denmark,    Denmark     (Mass-velocity & Darwin integrals)
  Wim Klopper,              KIT Karlsruhe,                Germany     (R12 code in CC, SIRIUS, and ABACUS modules)
  Stefan Knecht,            ETH Zurich,                   Switzerland (Parallel CI and MCSCF)
  Rika Kobayashi,           Australian National Univ.,    Australia   (DIIS in CC, London in MCSCF)
  Henrik Koch,              NTNU,                         Norway      (CC module, Cholesky decomposition)
  Jacob Kongsted,           Univ. of Southern Denmark,    Denmark     (Polarizable embedding, QM/MM)
  Andrea Ligabue,           University of Modena,         Italy       (CTOCD, AOSOPPA)
  Ola B. Lutnaes,           University of Oslo,           Norway      (DFT Hessian)
  Juan I. Melo,             University of Buenos Aires,   Argentina   (LRESC, Relativistic Effects on NMR Shieldings)
  Kurt V. Mikkelsen,        University of Copenhagen,     Denmark     (MC-SCRF and QM/MM)
  Rolf H. Myhre,            NTNU,                         Norway      (Cholesky, subsystems and ECC2)
  Christian Neiss,          Univ. Erlangen-Nuernberg,     Germany     (CCSD(R12))
  Christian B. Nielsen,     University of Copenhagen,     Denmark     (QM/MM)
  Patrick Norman,           Linkoeping University,        Sweden      (Cubic response and complex response in RESPONS)
  Jeppe Olsen,              Aarhus University,            Denmark     (SIRIUS CI/density modules)
  Jogvan Magnus H. Olsen,   Univ. of Southern Denmark,    Denmark     (Polarizable embedding, PE library, QM/MM)
  Anders Osted,             Copenhagen University,        Denmark     (QM/MM)
  Martin J. Packer,         University of Sheffield,      UK          (SOPPA)
  Filip Pawlowski,          Kazimierz Wielki University   Poland      (CC3)
  Thomas B. Pedersen,       University of Oslo,           Norway      (Cholesky decomposition)
  Patricio F. Provasi,      University of Northeastern,   Argentina   (Analysis of coupling constants in localized orbitals)
  Zilvinas Rinkevicius,     KTH Stockholm,                Sweden      (open-shell DFT, ESR)
  Elias Rudberg,            KTH Stockholm,                Sweden      (DFT grid and basis info)
  Torgeir A. Ruden,         University of Oslo,           Norway      (Numerical derivatives in ABACUS)
  Kenneth Ruud,             UiT The Arctic U. of Norway,  Norway      (DALTON; ABACUS magnetic properties and  much more)
  Pawel Salek,              KTH Stockholm,                Sweden      (DALTON; DFT code)
  Claire C. M. Samson       University of Karlsruhe       Germany     (Boys localization, r12 integrals in ERI)
  Alfredo Sanchez de Meras, University of Valencia,       Spain       (CC module, Cholesky decomposition)
  Trond Saue,               Paul Sabatier University,     France      (direct Fock matrix construction)
  Stephan P. A. Sauer,      University of Copenhagen,     Denmark     (SOPPA(CCSD), SOPPA prop., AOSOPPA, vibrational g-factors)
  Bernd Schimmelpfennig,    Forschungszentrum Karlsruhe,  Germany     (AMFI module)
  Kristian Sneskov,         Aarhus University,            Denmark     (QM/MM, PE-CC)
  Arnfinn H. Steindal,      UiT The Arctic U. of Norway,  Norway      (parallel QM/MM)
  K. O. Sylvester-Hvid,     University of Copenhagen,     Denmark     (MC-SCRF)
  Peter R. Taylor,          VLSCI/Univ. of Melbourne,     Australia   (Symmetry handling ABACUS, integral transformation)
  Andrew M. Teale,          University of Nottingham,     England     (DFT-AC, DFT-D)
  David P. Tew,             University of Bristol,        England     (CCSD(R12))
  Olav Vahtras,             KTH Stockholm,                Sweden      (triplet response, spin-orbit, ESR, TDDFT, open-shell DFT)
  David J. Wilson,          La Trobe University,          Australia   (DFT Hessian and DFT magnetizabilities)
  Hans Agren,               KTH Stockholm,                Sweden      (SIRIUS module, RESPONS, MC-SCRF solvation model)
 --------------------------------------------------------------------------------

     Date and time (Linux)  : Sun Sep  8 20:41:17 2013
     Host name              : lpqlx131.ups-tlse.fr                    

 * Work memory size             :    64000000 =  488.28 megabytes.

 * Directories for basis set searches:
   1) /home/bast/DALTON-2013.0-Source/build/test_ccsdmm_twopar_vdw
   2) /home/bast/DALTON-2013.0-Source/build/basis


Compilation information
-----------------------

 Who compiled             | bast
 Host                     | lpqlx131.ups-tlse.fr
 System                   | Linux-3.8.5-201.fc18.x86_64
 CMake generator          | Unix Makefiles
 Processor                | x86_64
 64-bit integers          | OFF
 MPI                      | OFF
 Fortran compiler         | /usr/bin/gfortran
 Fortran compiler version | GNU Fortran (GCC) 4.7.2 20121109 (Red Hat 4.7.2-8)
 C compiler               | /usr/bin/gcc
 C compiler version       | gcc (GCC) 4.7.2 20121109 (Red Hat 4.7.2-8)
 C++ compiler             | /usr/bin/g++
 C++ compiler version     | g++ (GCC) 4.7.2 20121109 (Red Hat 4.7.2-8)
 Static linking           | OFF
 Last Git revision        | f34203295a86316e27f9e7b44f9b6769c4a046c0
 Configuration time       | 2013-09-08 20:31:27.952056


   Content of the .dal input file
 ----------------------------------

**DALTON                                          
.RUN WAVEFUNCTION                                 
*QM3                                              
.QM3                                              
.THRDIP                                           
 1.0D-10                                          
.MAXDIP                                           
 40                                               
.OLDTG                                            
.ATMVDW                                           
 TWOPAR                                           
**INTEGRALS                                       
.DIPLEN                                           
.NUCPOT                                           
.NELFLD                                           
.THETA                                            
.SECMOM                                           
**WAVE FUNCTIONS                                  
.CC                                               
*SCF INPUT                                        
.THRESH                                           
1.0D-11                                           
*CC INP                                           
.CCSD                                             
.THRLEQ                                           
 1.0D-9                                           
.THRENR                                           
 1.0D-9                                           
.MAX IT                                           
 90                                               
.MXLRV                                            
 180                                              
*CCSLV                                            
.CCMM                                             
.ETOLSL                                           
 1.0D-8                                           
.TTOLSL                                           
 1.0D-8                                           
.LTOLSL                                           
 1.0D-8                                           
.MXSLIT                                           
 200                                              
.MXINIT                                           
 4 4                                              
*CCFOP                                            
.DIPMOM                                           
.NONREL                                           
*CCQR                                             
.AVANEW  # This calculates beta_i = sum_j(beta_ijj
.DIPOLE  # and the dot product of beta nad the dip
.SHGFRE                                           
 1                                                
 0.0428                                           
**END OF                                          


   Content of the .mol file
 ----------------------------

ATOMBASIS                                                                      
QM/MM H2O(QM)+127H2O(MM)                                                       
------------------------                                                       
    4    0         1 1.00D-15                                                  
        8.0   1    Bas=3-21G                                                   
O           0.000000        0.000000        0.000000   0   1                   
        1.0   2    Bas=3-21G                                                   
H          -0.756799        0.000000        0.586007   0   2                   
H           0.756799        0.000000        0.586007   0   3                   
   -0.669   10     Bas=MM                                                      
O           0.604942       -1.464902       -2.080125   1   1                   
O           2.365069       -0.266593        1.169946   2   1                   
O          -2.759906       -0.379311        1.045437   3   1                   
O           0.733903       -1.884401        2.723730   4   1                   
O           2.460561        1.944952       -2.002151   5   1                   
O          -3.133168       -1.603974       -1.328620   6   1                   
O          -2.626900        2.287818       -1.724587   7   1                   
O          -0.660918       -3.692339       -1.551068   8   1                   
O          -2.868308        1.938360        2.370089   9   1                   
O           3.156437        2.388549        1.959717  10   1                   
   0.3345    20    Bas=MM                                                      
H           1.560922       -1.471653       -2.033169   1   2                   
H           0.332598       -0.920447       -1.341521   1   3                   
H           2.261479       -1.103382        1.622925   2   2                   
H           3.132239       -0.390013        0.611059   2   3                   
H          -3.112587       -0.718384        0.222763   3   2                   
H          -3.082963       -0.985077        1.712387   3   3                   
H           1.246666       -1.505809        3.437785   4   2                   
H           1.195918       -2.691958        2.498932   4   3                   
H           2.807099        1.143747       -2.394746   5   2                   
H           1.799290        1.640651       -1.380644   5   3                   
H          -3.059022       -2.413515       -1.833877   6   2                   
H          -3.287608       -0.924951       -1.985298   6   3                   
H          -3.317520        2.941969       -1.618379   7   2                   
H          -1.815685        2.765653       -1.552094   7   3                   
H          -1.258556       -3.490347       -0.831234   8   2                   
H          -0.112653       -2.912107       -1.633436   8   3                   
H          -3.427665        2.515559        1.850371   9   2                   
H          -2.796111        1.140017        1.847043   9   3                   
H           2.774429        1.622566        1.531355  10   2                   
H           2.506254        2.646944        2.612892  10   3                   


       *******************************************************************
       *********** Output from DALTON general input processing ***********
       *******************************************************************

 --------------------------------------------------------------------------------
   Overall default print level:    0
   Print level for DALTON.STAT:    1

    HERMIT 1- and 2-electron integral sections will be executed
    "Old" integral transformation used (limited to max 255 basis functions)
    Wave function sections will be executed (SIRIUS module)
 --------------------------------------------------------------------------------


 Changes of defaults for *QM3   :
 --------------------------------

 +------------------+
 |  WORD: | CHANGE: |
 +------------------+
 |    QM3 |       T |
 | THDISC | 1.0D-10 |
 | MXDIIT |      40 |
 |  OLDTG |       T |
 |  PRINT |       0 |
 +------------------+
  Settings for determination of induced dipoles:
  Iterative Method is used
 +------------------+


    *************************************************************************
    *************** Output from MM potential input processing ***************
    *************************************************************************



 ------------------------------------------------------------------------
 | QM-sys type: | Systems:    | Model:  | Electric properties:          |
 ------------------------------------------------------------------------
 |          0   | [   0;   0] | SPC_E01 |                               |
 |              |             |         |   Q( 1)= -0.6690              |
 |              |             |         |   Q( 2)=  0.3345              |
 |              |             |         |   Q( 3)=  0.3345              |
 |              |             |         | Isotropic polarizability:     |
 |              |             |         | alp( 1)=  9.7180              |
 ------------------------------------------------------------------------


 ------------------------------------------------------------------------
 | MM-sys type: | Systems:    | Model:  | Electric properties:          |
 ------------------------------------------------------------------------
 |          1   | [   1;  10] | SPC_E01 | Isotropic polarizability:     |
 |              |             |         | alp( 1)=  9.7180              |
 ------------------------------------------------------------------------




   ****************************************************************************
   *************** Output of molecule and basis set information ***************
   ****************************************************************************


    The two title cards from your ".mol" input:
    ------------------------------------------------------------------------
 1: QM/MM H2O(QM)+127H2O(MM)                                                
 2: ------------------------                                                
    ------------------------------------------------------------------------

  Coordinates are entered in Angstrom and converted to atomic units.
          - Conversion factor : 1 bohr = 0.52917721 A

  Atomic type no.    1
  --------------------
  Nuclear charge:   8.00000
  Number of symmetry independent centers:    1
  Number of basis sets to read;    2
  The basis set is "3-21G" from the basis set library.
  Basis set file used for this atomic type with Z =   8 :
     "/home/bast/DALTON-2013.0-Source/build/basis/3-21G"

  Info about the basis set file: your basis has no documentation.
  Basis set: 3-21G                                                                           

  Atomic type no.    2
  --------------------
  Nuclear charge:   1.00000
  Number of symmetry independent centers:    2
  Number of basis sets to read;    2
  The basis set is "3-21G" from the basis set library.
  Basis set file used for this atomic type with Z =   1 :
     "/home/bast/DALTON-2013.0-Source/build/basis/3-21G"

  Info about the basis set file: your basis has no documentation.
  Basis set: 3-21G                                                                           

  Atomic type no.    3
  --------------------
  Nuclear charge:  -0.66900
  Number of symmetry independent centers:   10
  Number of basis sets to read;    2
  This is an MM atom without basis functions.

  Atomic type no.    4
  --------------------
  Nuclear charge:   0.33450
  Number of symmetry independent centers:   20
  Number of basis sets to read;    2
  This is an MM atom without basis functions.


                         SYMGRP: Point group information
                         -------------------------------

Point group: C1 


                                 Isotopic Masses
                                 ---------------

                           O          15.994915
                           H           1.007825
                           H           1.007825

                       Total mass:    18.010565 amu
                       Natural abundance:  99.730 %

 Center-of-mass coordinates (a.u.):    0.000000    0.000000    0.123934


  Atoms and basis sets
  --------------------

  Number of atom types :    5
  Total number of atoms:   44

  label    atoms   charge   prim   cont     basis
  ----------------------------------------------------------------------
  O           1    8.0000    15     9      [6s3p|3s2p]                                        
  H           2    1.0000     3     2      [3s|2s]                                            
  O          10   -0.6690     0     0      Point Charge                                       
  H          20    0.3345     0     0      Point Charge                                       
  a          11    0.0000     0     0      Point Charge                                       
  ----------------------------------------------------------------------
  total:     44   10.0000    21    13
  ----------------------------------------------------------------------

  Threshold for neglecting AO integrals:  1.00D-15


  Cartesian Coordinates (a.u.)
  ----------------------------

  Total number of coordinates:  132
  O       :     1  x   0.0000000000    2  y   0.0000000000    3  z   0.0000000000
  H       :     4  x  -1.4301428417    5  y   0.0000000000    6  z   1.1073927373
  H       :     7  x   1.4301428417    8  y   0.0000000000    9  z   1.1073927373

  Max    interatomic separation is    1.5136 Angstrom (    2.8603 Bohr)
  between atoms    3 and    2, "H     " and "H     ".

  Min HX interatomic separation is    0.9572 Angstrom (    1.8088 Bohr)

  Max QM+MM interatomic separation is    8.7381 Angstrom (   16.5126 Bohr)
  between the QM+MM centers   33 and   24, "H     " and "H     ".




 Principal moments of inertia (u*A**2) and principal axes
 --------------------------------------------------------

   IA       0.614717          1.000000    0.000000    0.000000
   IB       1.154453          0.000000    0.000000    1.000000
   IC       1.769170          0.000000    1.000000    0.000000


 Rotational constants
 --------------------

 The molecule is planar.

               A                   B                   C

         822132.5951         437764.9384         285658.8058 MHz
           27.423392           14.602267            9.528552 cm-1


@  Nuclear repulsion energy :    9.195434983361 Hartree
      QM3 induced dipole vector converged in  17 iterations.
      Final norm2 of QM3 induced dipole moment vector:    0.446730942088080


    **************************************************************************
    ***************** The MM/MM classical interaction energy *****************
    **************************************************************************


 ------------------------------------------------------------------------
 |  Eelec = Sum_n,s[ (Q_n*Q_s)/|R_n - R_s| ]        |       -0.03220417 |
 |  Epol  = - 1/2*Sum_a[ Pind_a*E^site_a ]          |       -0.00995104 |
 |  Evdw  = Sum_a[ A_ma/|R_ma|^12 - B_ma/|R_ma|^6 ] |       -0.00165340 |
 ------------------------------------------------------------------------
 |  E(MM/MM) = Eelec + Epol + Evdw                  |       -0.04380861 |
 ------------------------------------------------------------------------




     ************************************************************************
     *************** The "QM"/MM classical interaction energy ***************
     ************************************************************************


 ------------------------------------------------------------------------
 |  Eelec = Sum_n,s[ (Q_n*Q_s)/|R_n - R_s| ]        |       -0.02490604 |
 |  Epol  = - 1/2*Sum_a[ Pind_a*E^(QMclassic)_a ]   |       -0.00328719 |
 |  Evdw  = Sum_a[ A_ma/|R_ma|^12 - B_ma/|R_ma|^6 ] |       -0.00112491 |
 ------------------------------------------------------------------------
 |  E("QM"/MM) = Eelec + Epol + Evdw                |       -0.02931814 |
 ------------------------------------------------------------------------




                     .---------------------------------------.
                     | Starting in Integral Section (HERMIT) |
                     `---------------------------------------'



    *************************************************************************
    ****************** Output from HERMIT input processing ******************
    *************************************************************************


 Default print level:        1

 * Nuclear model: Point charge

 Calculation of one- and two-electron Hamiltonian integrals.

 The following one-electron property integrals are calculated as requested:
          - overlap integrals
          - dipole length integrals
          - traceless quadrupole moment integrals
          - second moment integrals
          - Electric field at the nuclei
          - Potential energy at the nuclei

 Center of mass  (bohr):      0.000000000000      0.000000000000      0.123933711741
 Operator center (bohr):      0.000000000000      0.000000000000      0.000000000000
 Gauge origin    (bohr):      0.000000000000      0.000000000000      0.000000000000
 Dipole origin   (bohr):      0.000000000000      0.000000000000      0.000000000000


     ************************************************************************
     ************************** Output from HERINT **************************
     ************************************************************************


 Threshold for neglecting two-electron integrals:  1.00D-15
 Number of two-electron integrals written:        2260 ( 54.0% )
 Megabytes written:                              0.027

 >>>> Total CPU  time used in HERMIT:   0.01 seconds
 >>>> Total wall time used in HERMIT:   0.01 seconds


                        .----------------------------------.
                        | End of Integral Section (HERMIT) |
                        `----------------------------------'



                   .--------------------------------------------.
                   | Starting in Wave Function Section (SIRIUS) |
                   `--------------------------------------------'


 *** Output from Huckel module :

     Using EWMO model:          F
     Using EHT  model:          T
     Number of Huckel orbitals each symmetry:    7

 Huckel EHT eigenvalues for symmetry :  1
          -20.705641      -1.506569      -0.731292      -0.670540      -0.616200
           -0.292149      -0.257509

 **********************************************************************
 *SIRIUS* a direct, restricted step, second order MCSCF program       *
 **********************************************************************

 
     Date and time (Linux)  : Sun Sep  8 20:41:17 2013
     Host name              : lpqlx131.ups-tlse.fr                    

 Title lines from ".mol" input file:
     QM/MM H2O(QM)+127H2O(MM)                                                
     ------------------------                                                

 Print level on unit LUPRI =   2 is   0
 Print level on unit LUW4  =   2 is   5

@    (Integral direct) CC calculation.

@    This is a combination run starting with
@              a restricted, closed shell Hartree-Fock calculation


 Initial molecular orbitals are obtained according to
 ".MOSTART EHT   " input option

@    QM part is embedded in an environment :

@         Model: QM3

     Wave function specification
     ============================

     For the specification of the Coupled Cluster: see later.

@    For the wave function of type :      >>> CC <<<
@    Number of closed shell electrons          10
@    Number of electrons in active shells       0
@    Total charge of the molecule               0

@    Spin multiplicity and 2 M_S                1         0
     Total number of symmetries                 1
@    Reference state symmetry                   1

     Orbital specifications
     ======================
     Abelian symmetry species          All |    1
                                       --- |  ---
@    Occupied SCF orbitals               5 |    5
     Secondary orbitals                  8 |    8
     Total number of orbitals           13 |   13
     Number of basis functions          13 |   13

     Optimization information
     ========================
@    Number of configurations                 1
@    Number of orbital rotations             40
     ------------------------------------------
@    Total number of variables               41

     Maximum number of Fock   iterations      0
     Maximum number of DIIS   iterations     60
     Maximum number of QC-SCF iterations     60
     Threshold for SCF convergence     1.00D-11


 Changes of defaults for CC:
 ---------------------------

 -Quadratic response properties calculated
 -Dipole moment calculated
  


 >>>>> DIIS optimization of Hartree-Fock <<<<<

 C1-DIIS algorithm; max error vectors =   10

 Iter      Total energy       Solvation energy    Error norm    Delta(E)
 -----------------------------------------------------------------------------
     (Precalculated two-electron integrals are transformed to P-supermatrix elements.
      Threshold for discarding integrals :  1.00D-15 )
@  1  -75.3897473301       0.00000000000        2.18975D+00   -7.54D+01
      Virial theorem: -V/T =      1.996699
@      MULPOP O      -0.39; H       0.19; H       0.19; 
 -----------------------------------------------------------------------------
@  2  -75.5787943288       0.00000000000        2.72416D-01   -1.89D-01
      Virial theorem: -V/T =      2.003094
@      MULPOP O      -0.66; H       0.33; H       0.33; 
 -----------------------------------------------------------------------------
@  3  -75.5851900841       0.00000000000        4.97921D-02   -6.40D-03
      Virial theorem: -V/T =      2.001784
@      MULPOP O      -0.72; H       0.36; H       0.36; 
 -----------------------------------------------------------------------------
@  4  -75.5853831338       0.00000000000        4.93248D-03   -1.93D-04
      Virial theorem: -V/T =      2.001615
@      MULPOP O      -0.73; H       0.36; H       0.36; 
 -----------------------------------------------------------------------------
@  5  -75.5853844062       0.00000000000        1.83298D-03   -1.27D-06
      Virial theorem: -V/T =      2.001528
@      MULPOP O      -0.73; H       0.36; H       0.36; 
 -----------------------------------------------------------------------------
@  6  -75.5853845837       0.00000000000        3.11639D-04   -1.78D-07
      Virial theorem: -V/T =      2.001560
@      MULPOP O      -0.73; H       0.36; H       0.36; 
 -----------------------------------------------------------------------------
@  7  -75.5853846004       0.00000000000        7.25447D-05   -1.67D-08
      Virial theorem: -V/T =      2.001557
@      MULPOP O      -0.73; H       0.36; H       0.36; 
 -----------------------------------------------------------------------------
@  8  -75.5853846015       0.00000000000        6.03983D-06   -1.14D-09
      Virial theorem: -V/T =      2.001557
@      MULPOP O      -0.73; H       0.36; H       0.36; 
 -----------------------------------------------------------------------------
@  9  -75.5853846015       0.00000000000        6.48415D-07   -3.24D-12
      Virial theorem: -V/T =      2.001557
@      MULPOP O      -0.73; H       0.36; H       0.36; 
 -----------------------------------------------------------------------------
@ 10  -75.5853846015       0.00000000000        7.39715D-08   -1.42D-14
      Virial theorem: -V/T =      2.001557
@      MULPOP O      -0.73; H       0.36; H       0.36; 
 -----------------------------------------------------------------------------
@ 11  -75.5853846015       0.00000000000        1.48688D-08    0.00D+00
      Virial theorem: -V/T =      2.001557
@      MULPOP O      -0.73; H       0.36; H       0.36; 
 -----------------------------------------------------------------------------
@ 12  -75.5853846015       0.00000000000        7.25051D-10    0.00D+00
      Virial theorem: -V/T =      2.001557
@      MULPOP O      -0.73; H       0.36; H       0.36; 
 -----------------------------------------------------------------------------
@ 13  -75.5853846015       0.00000000000        2.99923D-11   -2.84D-14
      Virial theorem: -V/T =      2.001557
@      MULPOP O      -0.73; H       0.36; H       0.36; 
 -----------------------------------------------------------------------------
@ 14  -75.5853846015       0.00000000000        1.19486D-12    1.42D-14

@ *** DIIS converged in  14 iterations !
@     Converged SCF energy, gradient:    -75.585384601545    1.19D-12
    - total time used in SIRFCK :              0.00 seconds


 *** SCF orbital energy analysis ***
    (incl. solvent contribution)

 Only the five lowest virtual orbital energies printed in each symmetry.

 Number of electrons :   10
 Orbital occupations :    5

 Sym       Hartree-Fock orbital energies

  1    -20.42812629    -1.32952766    -0.68568839    -0.53765979    -0.47962337
         0.26378497     0.36216849     1.19345016     1.30881396     1.78232569

    E(LUMO) :     0.26378497 au (symmetry 1)
  - E(HOMO) :    -0.47962337 au (symmetry 1)
  ------------------------------------------
    gap     :     0.74340834 au

 >>> Writing SIRIFC interface file <<<

 N(  1)_ao matrix: 

               Column   1     Column   2     Column   3     Column   4
       1      -0.13537451
       2      -0.02832233    -0.13537451
       3      -0.02478537    -0.10017932    -0.13537451
       4      -0.00041126    -0.00269506    -0.00258515    -0.13477223
       5       0.00099588     0.00652626     0.00626010     0.00027891
       6       0.00141413     0.00926712     0.00888918     0.00039604
       7      -0.00005819    -0.00163856    -0.00518309    -0.06695132
       8       0.00014090     0.00396786     0.01255115     0.00026348
       9       0.00020008     0.00563426     0.01782233     0.00037414
      10      -0.00303927    -0.01996228    -0.04162965     0.01971518
      11      -0.00821009    -0.03982319    -0.07606248     0.01116270
      12      -0.00306543    -0.02085325    -0.04470314    -0.02123082
      13      -0.00822686    -0.04041453    -0.07908248    -0.01345907

               Column   5     Column   6     Column   7     Column   8
       5      -0.13533244
       6      -0.00095903    -0.13601886
       7       0.00026348     0.00037414    -0.13226138
       8      -0.06748055    -0.00090600     0.00144164    -0.13515706
       9      -0.00090600    -0.06812901     0.00204709    -0.00495715
      10       0.00080332    -0.01438210     0.04961181     0.00165634
      11       0.00254196    -0.00584684     0.03905825     0.00804924
      12       0.00090344    -0.01486777    -0.05477189     0.00204739
      13       0.00264247    -0.00582446    -0.04768566     0.00904657

               Column   9     Column  10     Column  11     Column  12
       9      -0.13870508
      10      -0.03659325    -0.10621817
      11      -0.02138783    -0.06860621    -0.10621817
      12      -0.03884922    -0.00325380    -0.02180847    -0.11622978
      13      -0.02118546    -0.02053308    -0.05394976    -0.07507269

               Column  13
      13      -0.11622969
    ==== End of matrix output ====

 N(  2)_ao matrix: 

               Column   1     Column   2     Column   3     Column   4
       1       0.05988810
       2       0.01252947     0.05988810
       3       0.01096476     0.04431816     0.05988810
       4       0.00036750     0.00240828     0.00231007     0.05984753
       5      -0.00034648    -0.00227055    -0.00217795    -0.00019600
       6      -0.00047868    -0.00313689    -0.00300896    -0.00027079
       7       0.00005200     0.00146420     0.00463156     0.02983186
       8      -0.00004902    -0.00138046    -0.00436668    -0.00018516
       9      -0.00006773    -0.00190718    -0.00603281    -0.00025581
      10       0.00134238     0.00877316     0.01827016    -0.00853760
      11       0.00363060     0.01756988     0.03344732    -0.00447129
      12       0.00136597     0.00960935     0.02129690     0.00996521
      13       0.00364562     0.01810562     0.03626842     0.00655245

               Column   5     Column   6     Column   7     Column   8
       5       0.05982443
       6       0.00025530     0.05999235
       7      -0.00018516    -0.00025581     0.05967838
       8       0.02981004     0.00024118    -0.00101312     0.05955898
       9       0.00024118     0.02996867    -0.00139968     0.00131963
      10      -0.00027452     0.00645706    -0.02153644    -0.00056260
      11      -0.00087812     0.00297025    -0.01585606    -0.00275033
      12      -0.00035070     0.00694375     0.02667410    -0.00088737
      13      -0.00095036     0.00298021     0.02398725    -0.00350660

               Column   9     Column  10     Column  11     Column  12
       9       0.06042694
      10       0.01636096     0.04664994
      11       0.01073681     0.03013114     0.04664994
      12       0.01869962     0.00149065     0.01040907     0.05691527
      13       0.01084937     0.00912505     0.02471237     0.03676151

               Column  13
      13       0.05691524
    ==== End of matrix output ====

 N(  3)_ao matrix: 

               Column   1     Column   2     Column   3     Column   4
       1       0.10659521
       2       0.02230128     0.10659521
       3       0.01951625     0.07888218     0.10658191
       4       0.00044155     0.00289359     0.00277559     0.10536277
       5      -0.00122197    -0.00800786    -0.00768128    -0.00046664
       6      -0.00178098    -0.01167120    -0.01119521    -0.00068011
       7       0.00006247     0.00175926     0.00555336     0.05200185
       8      -0.00017289    -0.00486865    -0.01536862    -0.00044083
       9      -0.00025199    -0.00709590    -0.02239926    -0.00064250
      10       0.00237247     0.01495427     0.02993757    -0.01463627
      11       0.00645168     0.03088440     0.05731298    -0.00826174
      12       0.00239990     0.01579548     0.03248921     0.01605335
      13       0.00646960     0.03149715     0.06018798     0.01063853

               Column   5     Column   6     Column   7     Column   8
       5       0.10648554
       6       0.00188216     0.10793733
       7      -0.00044083    -0.00064250     0.10021639
       8       0.05306253     0.00177807    -0.00238394     0.10595239
       9       0.00177807     0.05443404    -0.00347451     0.00961553
      10      -0.00086348     0.01031631    -0.03513685    -0.00155296
      11      -0.00299727     0.00286746    -0.02750994    -0.00863501
      12      -0.00100038     0.01069256     0.03929570    -0.00198218
      13      -0.00315608     0.00275471     0.03552645    -0.00998222

               Column   9     Column  10     Column  11     Column  12
       9       0.11336928
      10       0.02537840     0.07382221
      11       0.01113239     0.04768169     0.07381446
      12       0.02698401     0.00233366     0.01549633     0.08128157
      13       0.01016721     0.01450006     0.03868465     0.05249968

               Column  13
      13       0.08124686
    ==== End of matrix output ====

 N(  4)_ao matrix: 

               Column   1     Column   2     Column   3     Column   4
       1      -0.13348876
       2      -0.02792780    -0.13348876
       3      -0.02444012    -0.09878383    -0.13348876
       4      -0.00154158    -0.01010236    -0.00969036    -0.13444207
       5       0.00017377     0.00113875     0.00109231     0.00018500
       6      -0.00076259    -0.00499741    -0.00479360    -0.00081187
       7      -0.00021811    -0.00614207    -0.01942863    -0.06748034
       8       0.00002459     0.00069234     0.00219002     0.00017477
       9      -0.00010790    -0.00303834    -0.00961090    -0.00076697
      10      -0.00301387    -0.02025469    -0.04300191     0.01894834
      11      -0.00810661    -0.03965066    -0.07693855     0.00811010
      12      -0.00311794    -0.02482022    -0.06449629    -0.02677390
      13      -0.00817037    -0.04207337    -0.09193802    -0.01750105

               Column   5     Column   6     Column   7     Column   8
       5      -0.13282172
       6       0.00009151    -0.13320248
       7       0.00017477    -0.00076697    -0.13841634
       8      -0.06594960     0.00008645     0.00095624    -0.13004091
       9       0.00008645    -0.06630930    -0.00419646     0.00047303
      10       0.00015136    -0.01637613     0.04897772     0.00033186
      11       0.00045498    -0.01140200     0.02938870     0.00151606
      12       0.00026162    -0.02008260    -0.08665700     0.00109897
      13       0.00053206    -0.01223149    -0.07341369     0.00258668

               Column   9     Column  10     Column  11     Column  12
       9      -0.13200901
      10      -0.04166062    -0.11107611
      11      -0.03982395    -0.07174394    -0.11107608
      12      -0.06437413    -0.00412220    -0.03353313    -0.20444137
      13      -0.05042870    -0.02268655    -0.06827634    -0.13204804

               Column  13
      13      -0.20340042
    ==== End of matrix output ====

 N(  5)_ao matrix: 

               Column   1     Column   2     Column   3     Column   4
       1       0.05911626
       2       0.01236799     0.05911626
       3       0.01082345     0.04374699     0.05911626
       4       0.00051211     0.00335597     0.00321911     0.05928625
       5      -0.00024986    -0.00163739    -0.00157061    -0.00019954
       6       0.00036751     0.00240838     0.00231016     0.00029349
       7       0.00007246     0.00204038     0.00645413     0.02964581
       8      -0.00003535    -0.00099551    -0.00314899    -0.00018850
       9       0.00005200     0.00146425     0.00463174     0.00027726
      10       0.00134103     0.00920780     0.01995560    -0.00873883
      11       0.00359403     0.01770420     0.03487029    -0.00405964
      12       0.00137566     0.01073224     0.02709462     0.01133701
      13       0.00361522     0.01851100     0.03987967     0.00718376

               Column   5     Column   6     Column   7     Column   8
       5       0.05897464
       6      -0.00014320     0.05908790
       7      -0.00018850     0.00027726     0.05999491
       8       0.02935143    -0.00013528    -0.00103139     0.05838421
       9      -0.00013528     0.02945843     0.00151704    -0.00074017
      10      -0.00023346     0.00748058    -0.02301875    -0.00054823
      11      -0.00066849     0.00518766    -0.01474064    -0.00233662
      12      -0.00035263     0.00873754     0.03533066    -0.00135319
      13      -0.00075191     0.00547520     0.02931343    -0.00349522

               Column   9     Column  10     Column  11     Column  12
       9       0.05896967
      10       0.01950038     0.05241967
      11       0.01855918     0.03385781     0.05241967
      12       0.02720014     0.00185516     0.01425222     0.08292232
      13       0.02229200     0.01056921     0.03074162     0.05355944

               Column  13
      13       0.08287636
    ==== End of matrix output ====

 N(  6)_ao matrix: 

               Column   1     Column   2     Column   3     Column   4
       1       0.05505694
       2       0.01151872     0.05505694
       3       0.01008024     0.04074302     0.05505694
       4       0.00057298     0.00375488     0.00360175     0.05541361
       5      -0.00007135    -0.00046754    -0.00044847    -0.00006845
       6       0.00011178     0.00073253     0.00070265     0.00010724
       7       0.00008107     0.00228290     0.00722130     0.02779751
       8      -0.00001009    -0.00028426    -0.00089917    -0.00006466
       9       0.00001582     0.00044537     0.00140878     0.00010131
      10       0.00124018     0.00827194     0.01751732    -0.00782691
      11       0.00334164     0.01628999     0.03144880    -0.00352497
      12       0.00127835     0.00985549     0.02447974     0.01054511
      13       0.00336526     0.01717267     0.03668881     0.00695039

               Column   5     Column   6     Column   7     Column   8
       5       0.05487241
       6      -0.00001335     0.05488481
       7      -0.00006466     0.00010131     0.05690051
       8       0.02728624    -0.00001262    -0.00035381     0.05410311
       9      -0.00001262     0.02729795     0.00055433    -0.00006902
      10      -0.00006050     0.00653154    -0.02018594    -0.00013127
      11      -0.00018489     0.00416892    -0.01283632    -0.00060588
      12      -0.00009693     0.00771441     0.03235114    -0.00035337
      13      -0.00021249     0.00439334     0.02821481    -0.00096200

               Column   9     Column  10     Column  11     Column  12
       9       0.05416720
      10       0.01665243     0.04528696
      11       0.01465650     0.02925080     0.04528696
      12       0.02340639     0.00159975     0.01243747     0.07352814
      13       0.01737224     0.00911111     0.02650581     0.04749175

               Column  13
      13       0.07352089
    ==== End of matrix output ====

 N(  7)_ao matrix: 

               Column   1     Column   2     Column   3     Column   4
       1      -0.11897618
       2      -0.02489156    -0.11897618
       3      -0.02178305    -0.08804429    -0.11897618
       4       0.00127369     0.00834678     0.00800638    -0.11974616
       5       0.00017505     0.00114715     0.00110037    -0.00017276
       6      -0.00048247    -0.00316172    -0.00303277     0.00047615
       7       0.00018021     0.00507471     0.01605236    -0.06006875
       8       0.00002477     0.00069745     0.00220617    -0.00016321
       9      -0.00006826    -0.00192227    -0.00608054     0.00044982
      10      -0.00277017    -0.02167980    -0.05500078     0.02324969
      11      -0.00727684    -0.03729140    -0.08051852     0.01520750
      12      -0.00268470    -0.01802374    -0.03832037    -0.01698068
      13      -0.00722423    -0.03530762    -0.06846720    -0.00751419

               Column   5     Column   6     Column   7     Column   8
       5      -0.11851289
       6       0.00006544    -0.11866951
       7      -0.00016321     0.00044982    -0.12295611
       8      -0.05890368     0.00006182    -0.00089298    -0.11658145
       9       0.00006182    -0.05905164     0.00246117     0.00033825
      10       0.00024954    -0.01728463     0.07313087     0.00097225
      11       0.00052816    -0.01025553     0.06267989     0.00247239
      12       0.00015179    -0.01442204    -0.04395944     0.00033406
      13       0.00045723    -0.00965469    -0.02732321     0.00152012

               Column   9     Column  10     Column  11     Column  12
       9      -0.11739100
      10      -0.05382888    -0.16940111
      11      -0.04141918    -0.10941599    -0.16927858
      12      -0.03684165    -0.00357726    -0.02009292    -0.09925370
      13      -0.03391112    -0.02831422    -0.05926442    -0.06410786

               Column  13
      13      -0.09925370
    ==== End of matrix output ====

 N(  8)_ao matrix: 

               Column   1     Column   2     Column   3     Column   4
       1       0.05527806
       2       0.01156498     0.05527806
       3       0.01012072     0.04090665     0.05527806
       4      -0.00057627    -0.00377646    -0.00362244     0.05563650
       5      -0.00013300    -0.00087161    -0.00083606     0.00012782
       6       0.00004124     0.00027028     0.00025925    -0.00003964
       7      -0.00008154    -0.00229602    -0.00726280     0.02790947
       8      -0.00001882    -0.00052992    -0.00167625     0.00012076
       9       0.00000584     0.00016432     0.00051979    -0.00003744
      10       0.00128159     0.00979892     0.02403827    -0.01047920
      11       0.00337765     0.01719696     0.03652649    -0.00695738
      12       0.00124339     0.00824535     0.01738078     0.00781173
      13       0.00335392     0.01631543     0.03137233     0.00353521

               Column   5     Column   6     Column   7     Column   8
       5       0.05511217
       6      -0.00000915     0.05508551
       7       0.00012076    -0.00003744     0.05713081
       8       0.02741414    -0.00000864     0.00066071     0.05442060
       9      -0.00000864     0.02738895    -0.00020488    -0.00004729
      10      -0.00017602     0.00757834    -0.03166498    -0.00061716
      11      -0.00039343     0.00418932    -0.02797963    -0.00174854
      12      -0.00011061     0.00645418     0.02005276    -0.00023625
      13      -0.00034247     0.00399255     0.01286087    -0.00110788

               Column   9     Column  10     Column  11     Column  12
       9       0.05428277
      10       0.02263975     0.07110169
      11       0.01634120     0.04592451     0.07109768
      12       0.01639319     0.00157057     0.00899220     0.04478725
      13       0.01401890     0.01210856     0.02602374     0.02892804

               Column  13
      13       0.04478725
    ==== End of matrix output ====

 N(  9)_ao matrix: 

               Column   1     Column   2     Column   3     Column   4
       1       0.04834221
       2       0.01011390     0.04834221
       3       0.00885085     0.03577401     0.04834221
       4      -0.00038177    -0.00250180    -0.00239977     0.04848946
       5      -0.00012198    -0.00079938    -0.00076678     0.00008881
       6       0.00021205     0.00138959     0.00133292    -0.00015437
       7      -0.00005401    -0.00152105    -0.00481141     0.02425059
       8      -0.00001726    -0.00048601    -0.00153735     0.00008389
       9       0.00003000     0.00084485     0.00267243    -0.00014584
      10       0.00112134     0.00860909     0.02131854    -0.00905902
      11       0.00295415     0.01505283     0.03206609    -0.00573782
      12       0.00109569     0.00750825     0.01629456     0.00717852
      13       0.00293838     0.01445721     0.02843811     0.00342958

               Column   5     Column   6     Column   7     Column   8
       5       0.04823990
       6      -0.00004933     0.04829727
       7       0.00008389    -0.00014584     0.04910332
       8       0.02401483    -0.00004660     0.00045903     0.04781338
       9      -0.00004660     0.02406903    -0.00079794    -0.00025496
      10      -0.00016341     0.00690267    -0.02764641    -0.00058953
      11      -0.00036169     0.00419515    -0.02311098    -0.00162220
      12      -0.00011307     0.00602906     0.01895106    -0.00026639
      13      -0.00032515     0.00400878     0.01252996    -0.00113153

               Column   9     Column  10     Column  11     Column  12
       9       0.04810992
      10       0.02100340     0.06399740
      11       0.01678409     0.04133585     0.06399691
      12       0.01578286     0.00147324     0.00856916     0.04295281
      13       0.01441134     0.01109398     0.02441445     0.02774317

               Column  13
      13       0.04295281
    ==== End of matrix output ====

 N( 10)_ao matrix: 

               Column   1     Column   2     Column   3     Column   4
       1      -0.10435708
       2      -0.02183303    -0.10435708
       3      -0.01910647    -0.07722592    -0.10435708
       4      -0.00022856    -0.00149778    -0.00143670    -0.10407457
       5       0.00058685     0.00384578     0.00368893     0.00011849
       6      -0.00084824    -0.00555872    -0.00533202    -0.00017126
       7      -0.00003234    -0.00091063    -0.00288051    -0.05178294
       8       0.00008303     0.00233817     0.00739611     0.00011194
       9      -0.00012002    -0.00337961    -0.01069041    -0.00016179
      10      -0.00239486    -0.01736929    -0.03986626     0.01706073
      11      -0.00636159    -0.03188925    -0.06526262     0.00912731
      12      -0.00241042    -0.01807048    -0.04319510    -0.01824524
      13      -0.00637106    -0.03225296    -0.06756207    -0.01053313

               Column   5     Column   6     Column   7     Column   8
       5      -0.10433265
       6       0.00043974    -0.10466403
       7       0.00011194    -0.00016179    -0.10289678
       8      -0.05202676     0.00041542     0.00061245    -0.10423081
       9       0.00041542    -0.05233981    -0.00088524     0.00227299
      10       0.00065539    -0.01435548     0.04754176     0.00185777
      11       0.00165576    -0.00996006     0.03412695     0.00654036
      12       0.00072908    -0.01496166    -0.05314587     0.00235431
      13       0.00170608    -0.01010752    -0.04072827     0.00725633

               Column   9     Column  10     Column  11     Column  12
       9      -0.10594365
      10      -0.04005817    -0.11007877
      11      -0.03785116    -0.07109976    -0.11007875
      12      -0.04384503    -0.00342953    -0.02321245    -0.12422617
      13      -0.03983692    -0.02140478    -0.05686368    -0.08023755

               Column  13
      13      -0.12422567
    ==== End of matrix output ====

 N( 11)_ao matrix: 

               Column   1     Column   2     Column   3     Column   4
       1       0.04475884
       2       0.00936420     0.04475884
       3       0.00819478     0.03312226     0.04475884
       4       0.00012253     0.00080296     0.00077021     0.04468604
       5      -0.00014800    -0.00096986    -0.00093031    -0.00003735
       6       0.00033788     0.00221422     0.00212391     0.00008527
       7       0.00001734     0.00048818     0.00154423     0.02225544
       8      -0.00002094    -0.00058966    -0.00186522    -0.00003528
       9       0.00004781     0.00134621     0.00425833     0.00008055
      10       0.00102571     0.00739701     0.01691106    -0.00725424
      11       0.00272758     0.01364430     0.02781353    -0.00384652
      12       0.00103404     0.00777048     0.01868898     0.00788699
      13       0.00273265     0.01383873     0.02903829     0.00459850

               Column   5     Column   6     Column   7     Column   8
       5       0.04470023
       6      -0.00010299     0.04489026
       7      -0.00003528     0.00008055     0.04438253
       8       0.02226885    -0.00009730    -0.00019306     0.04445589
       9      -0.00009730     0.02244837     0.00044075    -0.00053237
      10      -0.00016212     0.00609118    -0.02015933    -0.00045333
      11      -0.00041491     0.00419167    -0.01439074    -0.00161820
      12      -0.00018510     0.00641101     0.02317577    -0.00060899
      13      -0.00043070     0.00426790     0.01792261    -0.00184153

               Column   9     Column  10     Column  11     Column  12
       9       0.04543811
      10       0.01693541     0.04662356
      11       0.01587485     0.03011411     0.04662356
      12       0.01894546     0.00145959     0.01002202     0.05426566
      13       0.01690159     0.00906231     0.02419854     0.03505013

               Column  13
      13       0.05426565
    ==== End of matrix output ====

 N( 12)_ao matrix: 

               Column   1     Column   2     Column   3     Column   4
       1       0.04582376
       2       0.00958700     0.04582376
       3       0.00838976     0.03391032     0.04582376
       4       0.00012613     0.00082657     0.00079286     0.04574446
       5      -0.00028392    -0.00186057    -0.00178469    -0.00007204
       6       0.00026356     0.00172716     0.00165672     0.00006688
       7       0.00001785     0.00050254     0.00158964     0.02278045
       8      -0.00004017    -0.00113119    -0.00357820    -0.00006806
       9       0.00003729     0.00105008     0.00332163     0.00006318
      10       0.00104795     0.00748175     0.01691236    -0.00734500
      11       0.00279114     0.01391879     0.02817355    -0.00392503
      12       0.00105647     0.00785217     0.01860590     0.00797296
      13       0.00279636     0.01411694     0.02939337     0.00469175

               Column   5     Column   6     Column   7     Column   8
       5       0.04587462
       6      -0.00015054     0.04585220
       7      -0.00006806     0.00006318     0.04541387
       8       0.02290341    -0.00014221    -0.00037239     0.04608666
       9      -0.00014221     0.02288223     0.00034568    -0.00077812
      10      -0.00030103     0.00607040    -0.02017274    -0.00081139
      11      -0.00078844     0.00404237    -0.01459128    -0.00300669
      12      -0.00034285     0.00637397     0.02304532    -0.00107586
      13      -0.00081840     0.00411112     0.01810780    -0.00341438

               Column   9     Column  10     Column  11     Column  12
       9       0.04597076
      10       0.01665255     0.04613789
      11       0.01512375     0.02980042     0.04613789
      12       0.01847315     0.00143682     0.00983049     0.05313251
      13       0.01601630     0.00895221     0.02382106     0.03431823

               Column  13
      13       0.05313250
    ==== End of matrix output ====

 N( 13)_ao matrix: 

               Column   1     Column   2     Column   3     Column   4
       1      -0.09514109
       2      -0.01990491    -0.09514109
       3      -0.01741914    -0.07040594    -0.09514109
       4      -0.00058067    -0.00380525    -0.00365006    -0.09521874
       5      -0.00045899    -0.00300786    -0.00288519    -0.00025825
       6       0.00047249     0.00309632     0.00297004     0.00026584
       7      -0.00008216    -0.00231353    -0.00731818    -0.04752657
       8      -0.00006494    -0.00182873    -0.00578466    -0.00024397
       9       0.00006685     0.00188251     0.00595478     0.00025114
      10      -0.00213985    -0.01420030    -0.03000658     0.01381187
      11      -0.00577237    -0.02807801    -0.05402042     0.00715905
      12      -0.00217754    -0.01560166    -0.03538329    -0.01620834
      13      -0.00579617    -0.02893878    -0.05872137    -0.01050206

               Column   5     Column   6     Column   7     Column   8
       5      -0.09509617
       6       0.00021013    -0.09510835
       7      -0.00024397     0.00025114    -0.09554249
       8      -0.04741077     0.00019851    -0.00133485    -0.09490890
       9       0.00019851    -0.04742228     0.00137411     0.00108617
      10      -0.00038227    -0.01067581     0.03542311    -0.00082260
      11      -0.00118148    -0.00548457     0.02573852    -0.00382840
      12      -0.00049242    -0.01156122    -0.04462663    -0.00134181
      13      -0.00127928    -0.00556191    -0.03936735    -0.00491737

               Column   9     Column  10     Column  11     Column  12
       9      -0.09497187
      10      -0.02738796    -0.07756278
      11      -0.01973923    -0.05009772    -0.07756278
      12      -0.03185972    -0.00248240    -0.01752074    -0.09676782
      13      -0.02060403    -0.01515597    -0.04114989    -0.06250223

               Column  13
      13      -0.09676782
    ==== End of matrix output ====

 N( 14)_ao matrix: 

               Column   1     Column   2     Column   3     Column   4
       1       0.04582184
       2       0.00958660     0.04582184
       3       0.00838940     0.03390890     0.04582184
       4       0.00029602     0.00193990     0.00186079     0.04588685
       5       0.00012061     0.00079041     0.00075817     0.00007183
       6      -0.00025254    -0.00165494    -0.00158745    -0.00015040
       7       0.00004188     0.00117943     0.00373078     0.02291582
       8       0.00001707     0.00048056     0.00152010     0.00006786
       9      -0.00003573    -0.00100618    -0.00318274    -0.00014208
      10       0.00102948     0.00680370     0.01433636    -0.00661093
      11       0.00277936     0.01349799     0.02589637    -0.00340443
      12       0.00104866     0.00751245     0.01704435     0.00782440
      13       0.00279149     0.01393559     0.02827520     0.00510453

               Column   5     Column   6     Column   7     Column   8
       5       0.04573982
       6      -0.00006128     0.04583886
       7       0.00006786    -0.00014208     0.04615786
       8       0.02277692    -0.00005789     0.00037130     0.04539787
       9      -0.00005789     0.02287048    -0.00077741    -0.00031675
      10       0.00009906     0.00509984    -0.01691221     0.00021106
      11       0.00030897     0.00257639    -0.01224450     0.00099207
      12       0.00012932     0.00554209     0.02155771     0.00035277
      13       0.00033605     0.00261031     0.01915181     0.00129134

               Column   9     Column  10     Column  11     Column  12
       9       0.04590980
      10       0.01305471     0.03699410
      11       0.00928938     0.02389445     0.03699410
      12       0.01528361     0.00118728     0.00841680     0.04665140
      13       0.00967181     0.00723256     0.01968056     0.03013209

               Column  13
      13       0.04665140
    ==== End of matrix output ====

 N( 15)_ao matrix: 

               Column   1     Column   2     Column   3     Column   4
       1       0.06323650
       2       0.01323000     0.06323650
       3       0.01157781     0.04679603     0.06323650
       4       0.00049872     0.00326821     0.00313492     0.06330657
       5       0.00045475     0.00298006     0.00285852     0.00033062
       6      -0.00038268    -0.00250778    -0.00240551    -0.00027822
       7       0.00007056     0.00198702     0.00628534     0.03160646
       8       0.00006434     0.00181183     0.00573118     0.00031234
       9      -0.00005414    -0.00152469    -0.00482291    -0.00026284
      10       0.00141691     0.00924192     0.01920130    -0.00890413
      11       0.00383327     0.01854004     0.03524513    -0.00443427
      12       0.00144915     0.01041595     0.02356799     0.01090935
      13       0.00385369     0.01927469     0.03919457     0.00728746

               Column   5     Column   6     Column   7     Column   8
       5       0.06324546
       6      -0.00025369     0.06315747
       7       0.00031234    -0.00026284     0.06359870
       8       0.03154872    -0.00023966     0.00170894     0.06328278
       9      -0.00023966     0.03146560    -0.00143811    -0.00131132
      10       0.00035806     0.00689742    -0.02243993     0.00072822
      11       0.00115053     0.00344238    -0.01579363     0.00358764
      12       0.00049398     0.00761218     0.02987357     0.00133870
      13       0.00127449     0.00348805     0.02720650     0.00493388

               Column   9     Column  10     Column  11     Column  12
       9       0.06282802
      10       0.01738135     0.04891893
      11       0.01225690     0.03159669     0.04891893
      12       0.02086843     0.00161250     0.01154279     0.06401376
      13       0.01272483     0.00966275     0.02673045     0.04134642

               Column  13
      13       0.06401326
    ==== End of matrix output ====

 N( 16)_ao matrix: 

               Column   1     Column   2     Column   3     Column   4
       1      -0.09409723
       2      -0.01968652    -0.09409723
       3      -0.01722802    -0.06963347    -0.09409723
       4       0.00071532     0.00468769     0.00449651    -0.09435759
       5       0.00036620     0.00239979     0.00230192    -0.00025664
       6       0.00030333     0.00198782     0.00190675    -0.00021258
       7       0.00010121     0.00285004     0.00901527    -0.04717853
       8       0.00005181     0.00145903     0.00461522    -0.00024244
       9       0.00004292     0.00120856     0.00382292    -0.00020082
      10      -0.00216267    -0.01581715    -0.03672487     0.01659253
      11      -0.00573811    -0.02883084    -0.05935313     0.01087560
      12      -0.00211594    -0.01403088    -0.02963431    -0.01353296
      13      -0.00570875    -0.02776019    -0.05338114    -0.00671756

               Column   5     Column   6     Column   7     Column   8
       5      -0.09398767
       6      -0.00010883    -0.09394643
       7      -0.00024244    -0.00020082    -0.09544302
       8      -0.04682906    -0.00010281    -0.00132652    -0.09353091
       9      -0.00010281    -0.04679010    -0.00109880    -0.00056251
      10       0.00041993    -0.01186497     0.04695365     0.00123477
      11       0.00104049    -0.00598557     0.04166916     0.00418758
      12       0.00030419    -0.01068702    -0.03474019     0.00065347
      13       0.00094176    -0.00584593    -0.02428043     0.00304646

               Column   9     Column  10     Column  11     Column  12
       9      -0.09331776
      10      -0.03346684    -0.10268704
      11      -0.02246278    -0.06632545    -0.10268703
      12      -0.02734725    -0.00251955    -0.01508590    -0.07658103
      13      -0.02088534    -0.01826228    -0.04176110    -0.04946361

               Column  13
      13      -0.07658103
    ==== End of matrix output ====

 N( 17)_ao matrix: 

               Column   1     Column   2     Column   3     Column   4
       1       0.04110312
       2       0.00859937     0.04110312
       3       0.00752547     0.03041697     0.04110312
       4      -0.00023284    -0.00152585    -0.00146362     0.04114438
       5      -0.00018371    -0.00120387    -0.00115477     0.00009594
       6      -0.00013959    -0.00091474    -0.00087744     0.00007289
       7      -0.00003294    -0.00092769    -0.00293448     0.02053985
       8      -0.00002599    -0.00073193    -0.00231525     0.00009063
       9      -0.00001975    -0.00055615    -0.00175921     0.00006886
      10       0.00094185     0.00679305     0.01554885    -0.00704426
      11       0.00250474     0.01252827     0.02554104    -0.00450291
      12       0.00092665     0.00621391     0.01325970     0.00605373
      13       0.00249519     0.01218013     0.02360399     0.00315118

               Column   5     Column   6     Column   7     Column   8
       5       0.04109848
       6       0.00005751     0.04106649
       7       0.00009063     0.00006886     0.04131641
       8       0.02049648     0.00005433     0.00049588     0.04107915
       9       0.00005433     0.02046626     0.00037679     0.00029728
      10      -0.00020123     0.00510413    -0.01961912    -0.00056468
      11      -0.00051484     0.00259025    -0.01702933    -0.00200845
      12      -0.00015834     0.00472263     0.01568996    -0.00035207
      13      -0.00047800     0.00254595     0.01140395    -0.00158526

               Column   9     Column  10     Column  11     Column  12
       9       0.04091379
      10       0.01420829     0.04295503
      11       0.00968898     0.02774461     0.04295503
      12       0.01222711     0.00110041     0.00673708     0.03455444
      13       0.00918161     0.00776570     0.01824077     0.02231868

               Column  13
      13       0.03455444
    ==== End of matrix output ====

 N( 18)_ao matrix: 

               Column   1     Column   2     Column   3     Column   4
       1       0.04480857
       2       0.00937461     0.04480857
       3       0.00820389     0.03315906     0.04480857
       4      -0.00032420    -0.00212456    -0.00203791     0.04492074
       5      -0.00009121    -0.00059773    -0.00057336     0.00006084
       6      -0.00019578    -0.00128296    -0.00123064     0.00013058
       7      -0.00004587    -0.00129169    -0.00408590     0.02245499
       8      -0.00001291    -0.00036341    -0.00114955     0.00005747
       9      -0.00002770    -0.00078002    -0.00246736     0.00012336
      10       0.00102797     0.00745289     0.01714150    -0.00780192
      11       0.00273130     0.01368546     0.02800184    -0.00511503
      12       0.00100688     0.00665937     0.01404354     0.00644215
      13       0.00271800     0.01320318     0.02534419     0.00324146

               Column   5     Column   6     Column   7     Column   8
       5       0.04472161
       6       0.00003674     0.04478335
       7       0.00005747     0.00012336     0.04538836
       8       0.02226688     0.00003471     0.00031447     0.04435911
       9       0.00003471     0.02232520     0.00067496     0.00018990
      10      -0.00010166     0.00554323    -0.02184193    -0.00028985
      11      -0.00025699     0.00270177    -0.01943855    -0.00101432
      12      -0.00007509     0.00503380     0.01650796    -0.00016043
      13      -0.00023382     0.00265159     0.01170218    -0.00075205

               Column   9     Column  10     Column  11     Column  12
       9       0.04467823
      10       0.01549285     0.04752538
      11       0.01008298     0.03069659     0.04752538
      12       0.01287969     0.00118075     0.00711963     0.03626490
      13       0.00951689     0.00849087     0.01957113     0.02342346

               Column  13
      13       0.03626490
    ==== End of matrix output ====

 N( 19)_ao matrix: 

               Column   1     Column   2     Column   3     Column   4
       1      -0.09107740
       2      -0.01905472    -0.09107740
       3      -0.01667513    -0.06739874    -0.09107740
       4       0.00054383     0.00356386     0.00341851    -0.09115827
       5      -0.00047363    -0.00310383    -0.00297725     0.00026072
       6       0.00035703     0.00233971     0.00224429    -0.00019653
       7       0.00007695     0.00216677     0.00685393    -0.04550277
       8      -0.00006701    -0.00188708    -0.00596922     0.00024630
       9       0.00005052     0.00142250     0.00449968    -0.00018566
      10      -0.00208663    -0.01502743    -0.03429540     0.01560307
      11      -0.00554988    -0.02775153    -0.05651644     0.01004402
      12      -0.00205119    -0.01368950    -0.02907128    -0.01331556
      13      -0.00552757    -0.02694078    -0.05203628    -0.00689603

               Column   5     Column   6     Column   7     Column   8
       5      -0.09108598
       6       0.00017116    -0.09098794
       7       0.00024630    -0.00018566    -0.09149544
       8      -0.04543448     0.00016170     0.00134762    -0.09112175
       9       0.00016170    -0.04534186    -0.00101585     0.00088473
      10      -0.00051659    -0.01123312     0.04328322    -0.00143639
      11      -0.00132623    -0.00559845     0.03786751    -0.00515681
      12      -0.00040196    -0.01036492    -0.03433219    -0.00087961
      13      -0.00122659    -0.00550569    -0.02487097    -0.00402509

               Column   9     Column  10     Column  11     Column  12
       9      -0.09061500
      10      -0.03115535    -0.09437927
      11      -0.02084957    -0.06095947    -0.09437927
      12      -0.02670320    -0.00241489    -0.01473910    -0.07543887
      13      -0.01980266    -0.01706671    -0.04003041    -0.04872589

               Column  13
      13      -0.07543887
    ==== End of matrix output ====

 N( 20)_ao matrix: 

               Column   1     Column   2     Column   3     Column   4
       1       0.03750050
       2       0.00784565     0.03750050
       3       0.00686587     0.02775097     0.03750050
       4      -0.00019177    -0.00125669    -0.00120544     0.03752990
       5       0.00017006     0.00111443     0.00106898    -0.00008017
       6      -0.00009355    -0.00061305    -0.00058805     0.00004410
       7      -0.00002713    -0.00076405    -0.00241685     0.01873177
       8       0.00002406     0.00067756     0.00214325    -0.00007574
       9      -0.00001324    -0.00037272    -0.00117901     0.00004166
      10       0.00085950     0.00620914     0.01425213    -0.00641919
      11       0.00228532     0.01143506     0.02333917    -0.00405471
      12       0.00084694     0.00572403     0.01230362     0.00558980
      13       0.00227745     0.01114691     0.02171927     0.00293622

               Column   5     Column   6     Column   7     Column   8
       5       0.03751059
       6      -0.00003911     0.03746101
       7      -0.00007574     0.00004166     0.03765246
       8       0.01871353    -0.00003695    -0.00041439     0.03755265
       9      -0.00003695     0.01866669     0.00022795    -0.00020215
      10       0.00018720     0.00470409    -0.01794320     0.00052991
      11       0.00047712     0.00246058    -0.01537284     0.00186805
      12       0.00015040     0.00437690     0.01459729     0.00034267
      13       0.00044609     0.00241770     0.01066763     0.00150546

               Column   9     Column  10     Column  11     Column  12
       9       0.03729638
      10       0.01313963     0.03950974
      11       0.00924481     0.02551930     0.03950974
      12       0.01141373     0.00101929     0.00627188     0.03225588
      13       0.00874656     0.00715913     0.01689611     0.02083404

               Column  13
      13       0.03225588
    ==== End of matrix output ====

 N( 21)_ao matrix: 

               Column   1     Column   2     Column   3     Column   4
       1       0.04843761
       2       0.01013386     0.04843761
       3       0.00886832     0.03584461     0.04843761
       4      -0.00022617    -0.00148215    -0.00142171     0.04840351
       5       0.00034450     0.00225762     0.00216555    -0.00014829
       6      -0.00019334    -0.00126698    -0.00121531     0.00008322
       7      -0.00003200    -0.00090113    -0.00285045     0.02412685
       8       0.00004874     0.00137260     0.00434180    -0.00014009
       9      -0.00002735    -0.00077031    -0.00243664     0.00007862
      10       0.00110751     0.00789649     0.01781053    -0.00812951
      11       0.00295023     0.01470753     0.02974195    -0.00514252
      12       0.00109278     0.00734274     0.01566891     0.00718484
      13       0.00294095     0.01437058     0.02788623     0.00383478

               Column   5     Column   6     Column   7     Column   8
       5       0.04853203
       6      -0.00012677     0.04837729
       7      -0.00014009     0.00007862     0.04826134
       8       0.02424827    -0.00011976    -0.00076652     0.04892567
       9      -0.00011976     0.02410208     0.00043017    -0.00065524
      10       0.00036381     0.00590576    -0.02224415     0.00097382
      11       0.00095580     0.00295969    -0.01916592     0.00363414
      12       0.00029916     0.00554758     0.01859497     0.00066578
      13       0.00089920     0.00292183     0.01380362     0.00299545

               Column   9     Column  10     Column  11     Column  12
       9       0.04812583
      10       0.01618260     0.04846119
      11       0.01095371     0.03130103     0.04846119
      12       0.01436333     0.00128120     0.00792661     0.04078308
      13       0.01053015     0.00888009     0.02123961     0.02634175

               Column  13
      13       0.04078308
    ==== End of matrix output ====

 N( 22)_ao matrix: 

               Column   1     Column   2     Column   3     Column   4
       1      -0.08721706
       2      -0.01824708    -0.08721706
       3      -0.01596835    -0.06454203    -0.08721706
       4       0.00012015     0.00078740     0.00075529    -0.08704046
       5       0.00067127     0.00439897     0.00421957    -0.00008525
       6       0.00028198     0.00184791     0.00177254    -0.00003581
       7       0.00001700     0.00047873     0.00151432    -0.04333413
       8       0.00009498     0.00267450     0.00846000    -0.00008054
       9       0.00003990     0.00112350     0.00355385    -0.00003383
      10      -0.00198645    -0.01391941    -0.03088581     0.01406355
      11      -0.00530735    -0.02630477    -0.05255408     0.00841868
      12      -0.00197861    -0.01362139    -0.02972085    -0.01355589
      13      -0.00530242    -0.02612504    -0.05155647    -0.00772144

               Column   5     Column   6     Column   7     Column   8
       5      -0.08750148
       6      -0.00020007    -0.08710925
       7      -0.00008054    -0.00003383    -0.08630423
       8      -0.04376965    -0.00018901    -0.00044066    -0.08868719
       9      -0.00018901    -0.04339911    -0.00018511    -0.00103416
      10       0.00066938    -0.01051576     0.03784190     0.00169702
      11       0.00182960    -0.00549662     0.03097510     0.00669200
      12       0.00063151    -0.01031888    -0.03586168     0.00151404
      13       0.00179685    -0.00547312    -0.02809773     0.00631809

               Column   9     Column  10     Column  11     Column  12
       9      -0.08665978
      10      -0.02835377    -0.08296147
      11      -0.02024606    -0.05358473    -0.08296147
      12      -0.02734236    -0.00233794    -0.01502477    -0.07874809
      13      -0.01997833    -0.01555024    -0.03876052    -0.05086331

               Column  13
      13      -0.07874809
    ==== End of matrix output ====

 N( 23)_ao matrix: 

               Column   1     Column   2     Column   3     Column   4
       1       0.04655342
       2       0.00973966     0.04655342
       3       0.00852335     0.03445028     0.04655342
       4      -0.00013918    -0.00091208    -0.00087488     0.04647508
       5      -0.00038599    -0.00252946    -0.00242630     0.00010638
       6      -0.00009192    -0.00060240    -0.00057783     0.00002534
       7      -0.00001969    -0.00055453    -0.00175409     0.02314528
       8      -0.00005461    -0.00153787    -0.00486461     0.00010050
       9      -0.00001301    -0.00036625    -0.00115852     0.00002393
      10       0.00106426     0.00758459     0.01710851    -0.00772859
      11       0.00283536     0.01413165     0.02856843    -0.00472618
      12       0.00105513     0.00723168     0.01570424     0.00712782
      13       0.00282964     0.01392205     0.02738936     0.00391335

               Column   5     Column   6     Column   7     Column   8
       5       0.04673175
[...]
 Printing first contribution.                                     Norm2 of singles:    8.7998969274565800E-004 Norm2 of doubles:    1.6034377312499196E-003
 Printing second contribution.                                  Norm2 of singles:    1.2859282956496890E-006 Norm2 of doubles:    1.5453145931313524E-005
 K matrix transformation for ITRAN,           9
 IADRTH:           1
 LISTA,IDLSTA:L1            3
 LISTB,IDLSTB:L1           11
 ISYMA,ISYMB,ISYMAB:           1           1           1
 Printing norm2 TGCMO in KMAT:    2.4617688537176240E-003
 Printing first contribution.                                     Norm2 of singles:    1.0675715502485939E-003 Norm2 of doubles:    1.0209451011379930E-003
 Printing second contribution.                                  Norm2 of singles:    3.6780214204481594E-003 Norm2 of doubles:    2.8325831243070382E-003
 K matrix transformation for ITRAN,          10
 IADRTH:           1
 LISTA,IDLSTA:L1           11
 LISTB,IDLSTB:L1            1
 ISYMA,ISYMB,ISYMAB:           1           1           1
 Printing norm2 TGCMO in KMAT:    1.7367250221576307E-002
 Printing first contribution.                                     Norm2 of singles:    5.6453091234634888E-003 Norm2 of doubles:    4.3499849643737765E-003
 Printing second contribution.                                  Norm2 of singles:    1.7386662004472962E-003 Norm2 of doubles:    1.6168989506281184E-003
 K matrix transformation for ITRAN,          11
 IADRTH:           1
 LISTA,IDLSTA:L1            2
 LISTB,IDLSTB:L1           10
 ISYMA,ISYMB,ISYMAB:           1           1           1
 Printing norm2 TGCMO in KMAT:    3.2613411560270863E-003
 Printing first contribution.                                     Norm2 of singles:    1.9340611481782413E-003 Norm2 of doubles:    1.8186528154238572E-003
 Printing second contribution.                                  Norm2 of singles:    6.8716686615839656E-003 Norm2 of doubles:    5.1643553287269769E-003
 K matrix transformation for ITRAN,          12
 IADRTH:           1
 LISTA,IDLSTA:L1           10
 LISTB,IDLSTB:L1            4
 ISYMA,ISYMB,ISYMAB:           1           1           1
 Printing norm2 TGCMO in KMAT:    9.9835121942340281E-003
 Printing first contribution.                                     Norm2 of singles:    4.5899995912858840E-003 Norm2 of doubles:    3.4483778028657638E-003
 Printing second contribution.                                  Norm2 of singles:    1.2262283499964301E-003 Norm2 of doubles:    1.1819043187699507E-003
 K matrix transformation for ITRAN,          13
 IADRTH:           1
 LISTA,IDLSTA:L1            7
 LISTB,IDLSTB:L1            7
 ISYMA,ISYMB,ISYMAB:           1           1           1
 Printing norm2 TGCMO in KMAT:    7.5018373754455695E-005
 Printing first contribution.                                     Norm2 of singles:    4.5380726763694622E-007 Norm2 of doubles:    1.1289471925002797E-006
 K matrix transformation for ITRAN,          14
 IADRTH:           1
 LISTA,IDLSTA:L1            6
 LISTB,IDLSTB:L1            6
 ISYMA,ISYMB,ISYMAB:           1           1           1
 Printing norm2 TGCMO in KMAT:    9.0702706524560089E-005
 Printing first contribution.                                     Norm2 of singles:    7.8176452834409183E-007 Norm2 of doubles:    1.7147767864704459E-006
 K matrix transformation for ITRAN,          15
 IADRTH:           1
 LISTA,IDLSTA:L1            7
 LISTB,IDLSTB:L1           11
 ISYMA,ISYMB,ISYMAB:           1           1           1
 Printing norm2 TGCMO in KMAT:    2.4617688537176240E-003
 Printing first contribution.                                     Norm2 of singles:    1.1391899645185205E-004 Norm2 of doubles:    2.1983330208798091E-004
 Printing second contribution.                                  Norm2 of singles:    1.0465456504614073E-006 Norm2 of doubles:    7.8459446104509218E-006
 K matrix transformation for ITRAN,          16
 IADRTH:           1
 LISTA,IDLSTA:L1            6
 LISTB,IDLSTB:L1           10
 ISYMA,ISYMB,ISYMAB:           1           1           1
 Printing norm2 TGCMO in KMAT:    3.2613411560270863E-003
 Printing first contribution.                                     Norm2 of singles:    2.2039703135768611E-004 Norm2 of doubles:    3.7981843579625214E-004
 Printing second contribution.                                  Norm2 of singles:    1.7547116420546929E-006 Norm2 of doubles:    1.2842858128448317E-005
 K matrix transformation for ITRAN,          17
 IADRTH:           1
 LISTA,IDLSTA:L1           11
 LISTB,IDLSTB:L1           11
 ISYMA,ISYMB,ISYMAB:           1           1           1
 Printing norm2 TGCMO in KMAT:    2.4617688537176240E-003
 Printing first contribution.                                     Norm2 of singles:    7.2867893458974020E-004 Norm2 of doubles:    1.5108588264655934E-003
 K matrix transformation for ITRAN,          18
 IADRTH:           1
 LISTA,IDLSTA:L1           10
 LISTB,IDLSTB:L1           10
 ISYMA,ISYMB,ISYMAB:           1           1           1
 Printing norm2 TGCMO in KMAT:    3.2613411560270863E-003
 Printing first contribution.                                     Norm2 of singles:    1.3963771204464248E-003 Norm2 of doubles:    2.6818488480777024E-003
 K matrix transformation for ITRAN,          19
 IADRTH:           1
 LISTA,IDLSTA:L1            3
 LISTB,IDLSTB:L1            5
 ISYMA,ISYMB,ISYMAB:           1           1           1
 Printing norm2 TGCMO in KMAT:    1.0174308061371139E-004
 Printing first contribution.                                     Norm2 of singles:    1.6266727799097774E-006 Norm2 of doubles:    1.9623393780555965E-005
 Printing second contribution.                                  Norm2 of singles:    1.2714275607969470E-003 Norm2 of doubles:    2.1763629852872557E-003
 K matrix transformation for ITRAN,          20
 IADRTH:           1
 LISTA,IDLSTA:L1            2
 LISTB,IDLSTB:L1            8
 ISYMA,ISYMB,ISYMAB:           1           1           1
 Printing norm2 TGCMO in KMAT:    6.9114253915246253E-005
 Printing first contribution.                                     Norm2 of singles:    1.5909580714305798E-006 Norm2 of doubles:    1.8235322306368430E-005
 Printing second contribution.                                  Norm2 of singles:    7.5476683438091389E-004 Norm2 of doubles:    1.6157502790475843E-003
 K matrix transformation for ITRAN,          21
 IADRTH:           1
 LISTA,IDLSTA:L1            7
 LISTB,IDLSTB:L1            5
 ISYMA,ISYMB,ISYMAB:           1           1           1
 Printing norm2 TGCMO in KMAT:    1.0174308061371139E-004
 Printing first contribution.                                     Norm2 of singles:    5.9591712843535415E-007 Norm2 of doubles:    1.4943193422852289E-006
 Printing second contribution.                                  Norm2 of singles:    8.3177355340632648E-007 Norm2 of doubles:    1.6825709390617166E-006
 K matrix transformation for ITRAN,          22
 IADRTH:           1
 LISTA,IDLSTA:L1            6
 LISTB,IDLSTB:L1            8
 ISYMA,ISYMB,ISYMAB:           1           1           1
 Printing norm2 TGCMO in KMAT:    6.9114253915246253E-005
 Printing first contribution.                                     Norm2 of singles:    6.1168241522959978E-007 Norm2 of doubles:    1.3334705684567837E-006
 Printing second contribution.                                  Norm2 of singles:    4.6120452529359727E-007 Norm2 of doubles:    1.2190172725428868E-006
 K matrix transformation for ITRAN,          23
 IADRTH:           1
 LISTA,IDLSTA:L1           11
 LISTB,IDLSTB:L1            5
 ISYMA,ISYMB,ISYMAB:           1           1           1
 Printing norm2 TGCMO in KMAT:    1.0174308061371139E-004
 Printing first contribution.                                     Norm2 of singles:    1.3564490097698617E-006 Norm2 of doubles:    1.0350000459206728E-005
 Printing second contribution.                                  Norm2 of singles:    2.1060562222025605E-004 Norm2 of doubles:    3.4039736325666925E-004
 K matrix transformation for ITRAN,          24
 IADRTH:           1
 LISTA,IDLSTA:L1           10
 LISTB,IDLSTB:L1            8
 ISYMA,ISYMB,ISYMAB:           1           1           1
 Printing norm2 TGCMO in KMAT:    6.9114253915246253E-005
 Printing first contribution.                                     Norm2 of singles:    1.3879492532679683E-006 Norm2 of doubles:    1.0012249041834189E-005
 Printing second contribution.                                  Norm2 of singles:    1.2885536584335196E-004 Norm2 of doubles:    2.6139822158344509E-004
 K matrix transformation for ITRAN,          25
 IADRTH:           1
 LISTA,IDLSTA:L1            3
 LISTB,IDLSTB:L1            9
 ISYMA,ISYMB,ISYMAB:           1           1           1
 Printing norm2 TGCMO in KMAT:    3.8033926325810718E-003
 Printing first contribution.                                     Norm2 of singles:    1.6508140558714210E-003 Norm2 of doubles:    1.5805466690954248E-003
 Printing second contribution.                                  Norm2 of singles:    6.3571454289331709E-003 Norm2 of doubles:    4.7235862894735442E-003
 K matrix transformation for ITRAN,          26
 IADRTH:           1
 LISTA,IDLSTA:L1            2
 LISTB,IDLSTB:L1           12
 ISYMA,ISYMB,ISYMAB:           1           1           1
 Printing norm2 TGCMO in KMAT:    2.1570884201809215E-003
 Printing first contribution.                                     Norm2 of singles:    1.2810951238793561E-003 Norm2 of doubles:    1.2037064166925788E-003
 Printing second contribution.                                  Norm2 of singles:    4.1427413057543933E-003 Norm2 of doubles:    3.2376510667239304E-003
 K matrix transformation for ITRAN,          27
 IADRTH:           1
 LISTA,IDLSTA:L1            7
 LISTB,IDLSTB:L1            9
 ISYMA,ISYMB,ISYMAB:           1           1           1
 Printing norm2 TGCMO in KMAT:    3.8033926325810718E-003
 Printing first contribution.                                     Norm2 of singles:    1.7615447435866978E-004 Norm2 of doubles:    3.3994679345331942E-004
 Printing second contribution.                                  Norm2 of singles:    1.8248673214962307E-006 Norm2 of doubles:    1.2929842811358889E-005
 K matrix transformation for ITRAN,          28
 IADRTH:           1
 LISTA,IDLSTA:L1            6
 LISTB,IDLSTB:L1           12
 ISYMA,ISYMB,ISYMAB:           1           1           1
 Printing norm2 TGCMO in KMAT:    2.1570884201809215E-003
 Printing first contribution.                                     Norm2 of singles:    1.4603279836045260E-004 Norm2 of doubles:    2.5159997025403811E-004
 Printing second contribution.                                  Norm2 of singles:    1.0518245611623083E-006 Norm2 of doubles:    8.0687357987616698E-006
 K matrix transformation for ITRAN,          29
 IADRTH:           1
 LISTA,IDLSTA:L1           11
 LISTB,IDLSTB:L1            9
 ISYMA,ISYMB,ISYMAB:           1           1           1
 Printing norm2 TGCMO in KMAT:    3.8033926325810718E-003
 Printing first contribution.                                     Norm2 of singles:    1.1268062227692192E-003 Norm2 of doubles:    2.3352943460403582E-003
 Printing second contribution.                                  Norm2 of singles:    1.3000170065932371E-003 Norm2 of doubles:    2.3876614268864647E-003
 K matrix transformation for ITRAN,          30
 IADRTH:           1
 LISTA,IDLSTA:L1           10
 LISTB,IDLSTB:L1           12
 ISYMA,ISYMB,ISYMAB:           1           1           1
 Printing norm2 TGCMO in KMAT:    2.1570884201809215E-003
 Printing first contribution.                                     Norm2 of singles:    9.2504578497006550E-004 Norm2 of doubles:    1.7774354755293014E-003
 Printing second contribution.                                  Norm2 of singles:    8.1697967411032812E-004 Norm2 of doubles:    1.7492340220699270E-003
 +==================================================+



>>> Time used for   30 K matrix transformations:        0.28 seconds.

>>> Time used for   24 F{O} matrix transform.:          0.01 seconds.

>>> Time used for   36 ETA{O} vector calculat.:         0.02 seconds.

>>> Time used for    0 Xksi{O} and Eta{O2} vector calculat.:         0.00 seconds.

>>> Total time for  27 quadratic response func.:        1.70 seconds.


                 +---------------------------------------------------------------------------------------+
                 !                FINAL CCSD RESULTS FOR THE FIRST HYPERPOLARIZABILITIES                 !
                 +---------------------------------------------------------------------------------------+


  A operator                  B operator                  C operator                     property 
------------------------------------------------------------------------------------------------------

 XDIPLEN  (unrel.) -0.0856   XDIPLEN  (unrel.)  0.0428   XDIPLEN  (unrel.)  0.0428    -0.85151847    

 XDIPLEN  (unrel.) -0.0856   XDIPLEN  (unrel.)  0.0428   YDIPLEN  (unrel.)  0.0428     0.11419348    

 XDIPLEN  (unrel.) -0.0856   XDIPLEN  (unrel.)  0.0428   ZDIPLEN  (unrel.)  0.0428     -18.242156    

 XDIPLEN  (unrel.) -0.0856   YDIPLEN  (unrel.)  0.0428   XDIPLEN  (unrel.)  0.0428     0.11419348    

 XDIPLEN  (unrel.) -0.0856   YDIPLEN  (unrel.)  0.0428   YDIPLEN  (unrel.)  0.0428    -0.22651071E-01

 XDIPLEN  (unrel.) -0.0856   YDIPLEN  (unrel.)  0.0428   ZDIPLEN  (unrel.)  0.0428    -0.76524453E-02

 XDIPLEN  (unrel.) -0.0856   ZDIPLEN  (unrel.)  0.0428   XDIPLEN  (unrel.)  0.0428     -18.242156    

 XDIPLEN  (unrel.) -0.0856   ZDIPLEN  (unrel.)  0.0428   YDIPLEN  (unrel.)  0.0428    -0.76524453E-02

 XDIPLEN  (unrel.) -0.0856   ZDIPLEN  (unrel.)  0.0428   ZDIPLEN  (unrel.)  0.0428    -0.50421530    

 YDIPLEN  (unrel.) -0.0856   XDIPLEN  (unrel.)  0.0428   XDIPLEN  (unrel.)  0.0428     0.12003950    

 YDIPLEN  (unrel.) -0.0856   XDIPLEN  (unrel.)  0.0428   YDIPLEN  (unrel.)  0.0428    -0.23059199E-01

 YDIPLEN  (unrel.) -0.0856   XDIPLEN  (unrel.)  0.0428   ZDIPLEN  (unrel.)  0.0428    -0.76379737E-02

 YDIPLEN  (unrel.) -0.0856   YDIPLEN  (unrel.)  0.0428   XDIPLEN  (unrel.)  0.0428    -0.23059199E-01

 YDIPLEN  (unrel.) -0.0856   YDIPLEN  (unrel.)  0.0428   YDIPLEN  (unrel.)  0.0428     0.12151228E-01

 YDIPLEN  (unrel.) -0.0856   YDIPLEN  (unrel.)  0.0428   ZDIPLEN  (unrel.)  0.0428    -0.91025205    

 YDIPLEN  (unrel.) -0.0856   ZDIPLEN  (unrel.)  0.0428   XDIPLEN  (unrel.)  0.0428    -0.76379737E-02

 YDIPLEN  (unrel.) -0.0856   ZDIPLEN  (unrel.)  0.0428   YDIPLEN  (unrel.)  0.0428    -0.91025205    

 YDIPLEN  (unrel.) -0.0856   ZDIPLEN  (unrel.)  0.0428   ZDIPLEN  (unrel.)  0.0428     0.98289762E-01

 ZDIPLEN  (unrel.) -0.0856   XDIPLEN  (unrel.)  0.0428   XDIPLEN  (unrel.)  0.0428     -18.268447    

 ZDIPLEN  (unrel.) -0.0856   XDIPLEN  (unrel.)  0.0428   YDIPLEN  (unrel.)  0.0428    -0.72944893E-02

 ZDIPLEN  (unrel.) -0.0856   XDIPLEN  (unrel.)  0.0428   ZDIPLEN  (unrel.)  0.0428    -0.50320756    

 ZDIPLEN  (unrel.) -0.0856   YDIPLEN  (unrel.)  0.0428   XDIPLEN  (unrel.)  0.0428    -0.72944893E-02

 ZDIPLEN  (unrel.) -0.0856   YDIPLEN  (unrel.)  0.0428   YDIPLEN  (unrel.)  0.0428    -0.87262953    

 ZDIPLEN  (unrel.) -0.0856   YDIPLEN  (unrel.)  0.0428   ZDIPLEN  (unrel.)  0.0428     0.95052360E-01

 ZDIPLEN  (unrel.) -0.0856   ZDIPLEN  (unrel.)  0.0428   XDIPLEN  (unrel.)  0.0428    -0.50320756    

 ZDIPLEN  (unrel.) -0.0856   ZDIPLEN  (unrel.)  0.0428   YDIPLEN  (unrel.)  0.0428     0.95052360E-01

 ZDIPLEN  (unrel.) -0.0856   ZDIPLEN  (unrel.)  0.0428   ZDIPLEN  (unrel.)  0.0428     -11.278042    


                 +---------------------------------------------------------------------------------------+
                 !                FINAL CCSD   AVERAGES FOR SECOND HARMONIC GENERATION                   !
                 +---------------------------------------------------------------------------------------+






                    +----------+----------+----------+----------+----------+
                    | Property:| Freq_A:  | Freq_B:  | Freq_C:  | Value:   |
                    |----------+----------+----------+----------+----------|
                    | Dipole_x |   0.0000 |   0.0000 |   0.0000 |  -0.0177 |
                    | Dipole_y |   0.0000 |   0.0000 |   0.0000 |   0.0053 |
                    | Dipole_z |   0.0000 |   0.0000 |   0.0000 |   1.0542 |
                    |----------+----------+----------+----------+----------|
                    | beta_x   |  -0.0856 |   0.0428 |   0.0428 |  -1.3780 |
                    | beta_y   |  -0.0856 |   0.0428 |   0.0428 |   0.2244 |
                    | beta_z   |  -0.0856 |   0.0428 |   0.0428 | -30.4267 |
                    +----------+----------+----------+----------+----------+
                    | mu*bet_x |  -0.0856 |   0.0428 |   0.0428 |   0.0244 |
                    | mu*bet_y |  -0.0856 |   0.0428 |   0.0428 |   0.0012 |
                    | mu*bet_z |  -0.0856 |   0.0428 |   0.0428 | -32.0758 |
                    +----------+----------+----------+----------+----------+
                    |  mu*bet  |  -0.0856 |   0.0428 |   0.0428 | -32.0502 |
                    +----------+----------+----------+----------+----------+
                    | |mu*bet| |  -0.0856 |   0.0428 |   0.0428 |  32.0758 |
                    +----------+----------+----------+----------+----------+
                    | <beta>   |  -0.0856 |   0.0428 |   0.0428 |   0.0000 |
                    +----------+----------+----------+----------+----------+


------------------------------------------------------------------------------------------------------



  

 *******************************************************************************
 *******************************************************************************
 *                                                                             *
 *                                                                             *
 *                   SUMMARY OF COUPLED CLUSTER CALCULATION                    *
 *                                                                             *
 *                                                                             *
 *******************************************************************************
 *******************************************************************************

            CCSD Total  energy:                   -75.7546727456                
            CCSD E(QM/MM)     :                    -0.0427513845                
                                                                                
  

 *******************************************************************************
 *******************************************************************************
 *                                                                             *
 *                                                                             *
 *                      END OF COUPLED CLUSTER CALCULATION                     *
 *                                                                             *
 *                                                                             *
 *******************************************************************************
 *******************************************************************************


 >>>> CPU and wall time for CC :      13.294      17.271

 
     Date and time (Linux)  : Sun Sep  8 20:41:34 2013
     Host name              : lpqlx131.ups-tlse.fr                    


                      .-------------------------------------.
                      | End of Coupled Cluster Section (CC) |
                      `-------------------------------------'

 >>>> Total CPU  time used in DALTON:  13.33 seconds
 >>>> Total wall time used in DALTON:  17.30 seconds

 
     Date and time (Linux)  : Sun Sep  8 20:41:34 2013
     Host name              : lpqlx131.ups-tlse.fr                    
