

     ************************************************************************
     *************** Dalton - An Electronic Structure Program ***************
     ************************************************************************

    This is output from DALTON (Release Dalton2013 patch 0)
   ----------------------------------------------------------------------------
    NOTE:
     
    Dalton is an experimental code for the evaluation of molecular
    properties using (MC)SCF, DFT, CI, and CC wave functions.
    The authors accept no responsibility for the performance of
    the code or for the correctness of the results.
     
    The code (in whole or part) is provided under a licence and
    is not to be reproduced for further distribution without
    the written permission of the authors or their representatives.
     
    See the home page "http://daltonprogram.org" for further information.
     
    If results obtained with this code are published,
    the appropriate citations would be both of:
     
       K. Aidas, C. Angeli, K. L. Bak, V. Bakken, R. Bast,
       L. Boman, O. Christiansen, R. Cimiraglia, S. Coriani,
       P. Dahle, E. K. Dalskov, U. Ekstroem, T. Enevoldsen,
       J. J. Eriksen, P. Ettenhuber, B. Fernandez, L. Ferrighi,
       H. Fliegl, L. Frediani, K. Hald, A. Halkier, C. Haettig,
       H. Heiberg, T. Helgaker, A. C. Hennum, H. Hettema,
       E. Hjertenaes, S. Hoest, I.-M. Hoeyvik, M. F. Iozzi,
       B. Jansik, H. J. Aa. Jensen, D. Jonsson, P. Joergensen,
       J. Kauczor, S. Kirpekar, T. Kjaergaard, W. Klopper,
       S. Knecht, R. Kobayashi, H. Koch, J. Kongsted, A. Krapp,
       K. Kristensen, A. Ligabue, O. B. Lutnaes, J. I. Melo,
       K. V. Mikkelsen, R. H. Myhre, C. Neiss, C. B. Nielsen,
       P. Norman, J. Olsen, J. M. H. Olsen, A. Osted,
       M. J. Packer, F. Pawlowski, T. B. Pedersen, P. F. Provasi,
       S. Reine, Z. Rinkevicius, T. A. Ruden, K. Ruud, V. Rybkin,
       P. Salek, C. C. M. Samson, A. Sanchez de Meras, T. Saue,
       S. P. A. Sauer, B. Schimmelpfennig, K. Sneskov,
       A. H. Steindal, K. O. Sylvester-Hvid, P. R. Taylor,
       A. M. Teale, E. I. Tellgren, D. P. Tew, A. J. Thorvaldsen,
       L. Thoegersen, O. Vahtras, M. A. Watson, D. J. D. Wilson,
       M. Ziolkowski and H. Agren.
       The Dalton quantum chemistry program system.
       WIREs Comput. Mol. Sci. 2013. doi: 10.1002/wcms.1172
    
    and
    
       Dalton, a Molecular Electronic Structure Program,
       Release DALTON2013.0 (2013), see http://daltonprogram.org
   ----------------------------------------------------------------------------

    Authors in alphabetical order (major contribution(s) in parenthesis):

  Kestutis Aidas,           Vilnius University,           Lithuania   (QM/MM)
  Celestino Angeli,         University of Ferrara,        Italy       (NEVPT2)
  Keld L. Bak,              UNI-C,                        Denmark     (AOSOPPA, non-adiabatic coupling, magnetic properties)
  Vebjoern Bakken,          University of Oslo,           Norway      (DALTON; geometry optimizer, symmetry detection)
  Radovan Bast,             KTH Stockholm                 Sweden      (DALTON installation and execution frameworks)
  Linus Boman,              NTNU,                         Norway      (Cholesky decomposition and subsystems)
  Ove Christiansen,         Aarhus University,            Denmark     (CC module)
  Renzo Cimiraglia,         University of Ferrara,        Italy       (NEVPT2)
  Sonia Coriani,            University of Trieste,        Italy       (CC module, MCD in RESPONS)
  Paal Dahle,               University of Oslo,           Norway      (Parallelization)
  Erik K. Dalskov,          UNI-C,                        Denmark     (SOPPA)
  Thomas Enevoldsen,        Univ. of Southern Denmark,    Denmark     (SOPPA)
  Janus J. Eriksen,         Aarhus University,            Denmark     (PE-MP2/SOPPA, TDA)
  Berta Fernandez,          U. of Santiago de Compostela, Spain       (doublet spin, ESR in RESPONS)
  Lara Ferrighi,            Aarhus University,            Denmark     (PCM Cubic response)
  Heike Fliegl,             University of Oslo,           Norway      (CCSD(R12))
  Luca Frediani,            UiT The Arctic U. of Norway,  Norway      (PCM)
  Bin Gao,                  UiT The Arctic U. of Norway,  Norway      (Gen1Int library)
  Christof Haettig,         Ruhr-University Bochum,       Germany     (CC module)
  Kasper Hald,              Aarhus University,            Denmark     (CC module)
  Asger Halkier,            Aarhus University,            Denmark     (CC module)
  Hanne Heiberg,            University of Oslo,           Norway      (geometry analysis, selected one-electron integrals)
  Trygve Helgaker,          University of Oslo,           Norway      (DALTON; ABACUS, ERI, DFT modules, London, and much more)
  Alf Christian Hennum,     University of Oslo,           Norway      (Parity violation)
  Hinne Hettema,            University of Auckland,       New Zealand (quadratic response in RESPONS; SIRIUS supersymmetry)
  Eirik Hjertenaes,         NTNU,                         Norway      (Cholesky decomposition)
  Maria Francesca Iozzi,    University of Oslo,           Norway      (RPA)
  Brano Jansik              Technical Univ. of Ostrava    Czech Rep.  (DFT cubic response)
  Hans Joergen Aa. Jensen,  Univ. of Southern Denmark,    Denmark     (DALTON; SIRIUS, RESPONS, ABACUS modules, London, and much more)
  Dan Jonsson,              UiT The Arctic U. of Norway,  Norway      (cubic response in RESPONS module)
  Poul Joergensen,          Aarhus University,            Denmark     (RESPONS, ABACUS, and CC modules)
  Joanna Kauczor,           Linkoeping University,        Sweden      (Complex polarization propagator (CPP) module)
  Sheela Kirpekar,          Univ. of Southern Denmark,    Denmark     (Mass-velocity & Darwin integrals)
  Wim Klopper,              KIT Karlsruhe,                Germany     (R12 code in CC, SIRIUS, and ABACUS modules)
  Stefan Knecht,            ETH Zurich,                   Switzerland (Parallel CI and MCSCF)
  Rika Kobayashi,           Australian National Univ.,    Australia   (DIIS in CC, London in MCSCF)
  Henrik Koch,              NTNU,                         Norway      (CC module, Cholesky decomposition)
  Jacob Kongsted,           Univ. of Southern Denmark,    Denmark     (Polarizable embedding, QM/MM)
  Andrea Ligabue,           University of Modena,         Italy       (CTOCD, AOSOPPA)
  Ola B. Lutnaes,           University of Oslo,           Norway      (DFT Hessian)
  Juan I. Melo,             University of Buenos Aires,   Argentina   (LRESC, Relativistic Effects on NMR Shieldings)
  Kurt V. Mikkelsen,        University of Copenhagen,     Denmark     (MC-SCRF and QM/MM)
  Rolf H. Myhre,            NTNU,                         Norway      (Cholesky, subsystems and ECC2)
  Christian Neiss,          Univ. Erlangen-Nuernberg,     Germany     (CCSD(R12))
  Christian B. Nielsen,     University of Copenhagen,     Denmark     (QM/MM)
  Patrick Norman,           Linkoeping University,        Sweden      (Cubic response and complex response in RESPONS)
  Jeppe Olsen,              Aarhus University,            Denmark     (SIRIUS CI/density modules)
  Jogvan Magnus H. Olsen,   Univ. of Southern Denmark,    Denmark     (Polarizable embedding, PE library, QM/MM)
  Anders Osted,             Copenhagen University,        Denmark     (QM/MM)
  Martin J. Packer,         University of Sheffield,      UK          (SOPPA)
  Filip Pawlowski,          Kazimierz Wielki University   Poland      (CC3)
  Thomas B. Pedersen,       University of Oslo,           Norway      (Cholesky decomposition)
  Patricio F. Provasi,      University of Northeastern,   Argentina   (Analysis of coupling constants in localized orbitals)
  Zilvinas Rinkevicius,     KTH Stockholm,                Sweden      (open-shell DFT, ESR)
  Elias Rudberg,            KTH Stockholm,                Sweden      (DFT grid and basis info)
  Torgeir A. Ruden,         University of Oslo,           Norway      (Numerical derivatives in ABACUS)
  Kenneth Ruud,             UiT The Arctic U. of Norway,  Norway      (DALTON; ABACUS magnetic properties and  much more)
  Pawel Salek,              KTH Stockholm,                Sweden      (DALTON; DFT code)
  Claire C. M. Samson       University of Karlsruhe       Germany     (Boys localization, r12 integrals in ERI)
  Alfredo Sanchez de Meras, University of Valencia,       Spain       (CC module, Cholesky decomposition)
  Trond Saue,               Paul Sabatier University,     France      (direct Fock matrix construction)
  Stephan P. A. Sauer,      University of Copenhagen,     Denmark     (SOPPA(CCSD), SOPPA prop., AOSOPPA, vibrational g-factors)
  Bernd Schimmelpfennig,    Forschungszentrum Karlsruhe,  Germany     (AMFI module)
  Kristian Sneskov,         Aarhus University,            Denmark     (QM/MM, PE-CC)
  Arnfinn H. Steindal,      UiT The Arctic U. of Norway,  Norway      (parallel QM/MM)
  K. O. Sylvester-Hvid,     University of Copenhagen,     Denmark     (MC-SCRF)
  Peter R. Taylor,          VLSCI/Univ. of Melbourne,     Australia   (Symmetry handling ABACUS, integral transformation)
  Andrew M. Teale,          University of Nottingham,     England     (DFT-AC, DFT-D)
  David P. Tew,             University of Bristol,        England     (CCSD(R12))
  Olav Vahtras,             KTH Stockholm,                Sweden      (triplet response, spin-orbit, ESR, TDDFT, open-shell DFT)
  David J. Wilson,          La Trobe University,          Australia   (DFT Hessian and DFT magnetizabilities)
  Hans Agren,               KTH Stockholm,                Sweden      (SIRIUS module, RESPONS, MC-SCRF solvation model)
 --------------------------------------------------------------------------------

     Date and time (Linux)  : Sun Sep  8 20:46:10 2013
     Host name              : lpqlx131.ups-tlse.fr                    

 * Work memory size             :    64000000 =  488.28 megabytes.

 * Directories for basis set searches:
   1) /home/bast/DALTON-2013.0-Source/build/test_choact_mp2_energy
   2) /home/bast/DALTON-2013.0-Source/build/basis


Compilation information
-----------------------

 Who compiled             | bast
 Host                     | lpqlx131.ups-tlse.fr
 System                   | Linux-3.8.5-201.fc18.x86_64
 CMake generator          | Unix Makefiles
 Processor                | x86_64
 64-bit integers          | OFF
 MPI                      | OFF
 Fortran compiler         | /usr/bin/gfortran
 Fortran compiler version | GNU Fortran (GCC) 4.7.2 20121109 (Red Hat 4.7.2-8)
 C compiler               | /usr/bin/gcc
 C compiler version       | gcc (GCC) 4.7.2 20121109 (Red Hat 4.7.2-8)
 C++ compiler             | /usr/bin/g++
 C++ compiler version     | g++ (GCC) 4.7.2 20121109 (Red Hat 4.7.2-8)
 Static linking           | OFF
 Last Git revision        | f34203295a86316e27f9e7b44f9b6769c4a046c0
 Configuration time       | 2013-09-08 20:31:27.952056


   Content of the .dal input file
 ----------------------------------

**DALTON INPUT                                    
.RUN WA                                           
**HERMIT                                          
.NOSUP                                            
**SIRIUS                                          
.CC                                               
*SCF IN                                           
.THRESHOLD                                        
 1.0D-8                                           
.MAX DIIS                                         
 100                                              
*ORBITAL                                          
.MOSTART                                          
 HUCKEL                                           
*CC INP                                           
.PRINT                                            
 3                                                
.MP2                                              
*CHOACT                                           
.ATOMIC                                           
  -3                                              
  1                                               
   4                                              
  2                                               
   5   13                                         
.THACOC                                           
  0.15                                            
.THACVI                                           
  0.1                                             
**END OF DALTON INPUT                             


   Content of the .mol file
 ----------------------------

BASIS                                                                          
6-31G*                                                                         
---------------------                                                          
---------------------                                                          
    3  0 0X  Y  Z  a  0.10D-14                                                 
        6.    4 Basis=ano-1 4 3 1 0                                            
C                    -2.376412   -0.514508    0.000000                         
C                    -0.878966   -0.834134    0.000000                         
C                     0.000000    0.420686    0.000000                         
C                     1.491097    0.127586    0.000000                         
        8.    1 Basis=ano-1 4 3 1 0                                            
O                     2.350398    0.980215    0.000000                         
        1.    8 Basis=ano-1 3 1 0                                              
H                    -2.657387    0.069536   -0.884732                         
H                    -2.977587   -1.430257    0.000000                         
H                    -2.657387    0.069536    0.884732                         
H                    -0.634569   -1.448601    0.877705                         
H                    -0.634569   -1.448601   -0.877705                         
H                    -0.212368    1.051038   -0.875369                         
H                    -0.212368    1.051038    0.875369                         
H                     1.768734   -0.953188    0.000000                         


       *******************************************************************
       *********** Output from DALTON general input processing ***********
       *******************************************************************

 --------------------------------------------------------------------------------
   Overall default print level:    0
   Print level for DALTON.STAT:    1

    HERMIT 1- and 2-electron integral sections will be executed
    "Old" integral transformation used (limited to max 255 basis functions)
    Wave function sections will be executed (SIRIUS module)
 --------------------------------------------------------------------------------


   ****************************************************************************
   *************** Output of molecule and basis set information ***************
   ****************************************************************************


    The two title cards from your ".mol" input:
    ------------------------------------------------------------------------
 1: ---------------------                                                   
 2: ---------------------                                                   
    ------------------------------------------------------------------------

  Coordinates are entered in Angstrom and converted to atomic units.
          - Conversion factor : 1 bohr = 0.52917721 A

  Atomic type no.    1
  --------------------
  Nuclear charge:   6.00000
  Number of symmetry independent centers:    4
  Number of basis sets to read;    2
  Basis set file used for this atomic type with Z =   6 :
     "/home/bast/DALTON-2013.0-Source/build/basis/6-31G*"

  Info about the basis set file: your basis has no documentation.
  Basis set: 6-31G*                                                                          

  Atomic type no.    2
  --------------------
  Nuclear charge:   8.00000
  Number of symmetry independent centers:    1
  Number of basis sets to read;    2
  Basis set file used for this atomic type with Z =   8 :
     "/home/bast/DALTON-2013.0-Source/build/basis/6-31G*"

  Info about the basis set file: your basis has no documentation.
  Basis set: 6-31G*                                                                          

  Atomic type no.    3
  --------------------
  Nuclear charge:   1.00000
  Number of symmetry independent centers:    8
  Number of basis sets to read;    2
  Basis set file used for this atomic type with Z =   1 :
     "/home/bast/DALTON-2013.0-Source/build/basis/6-31G*"

  Info about the basis set file: your basis has no documentation.
  Basis set: 6-31G*                                                                          


                         SYMGRP: Point group information
                         -------------------------------

Point group: C1 


                                 Isotopic Masses
                                 ---------------

                           C          12.000000
                           C          12.000000
                           C          12.000000
                           C          12.000000
                           O          15.994915
                           H           1.007825
                           H           1.007825
                           H           1.007825
                           H           1.007825
                           H           1.007825
                           H           1.007825
                           H           1.007825
                           H           1.007825

                       Total mass:    72.057515 amu
                       Natural abundance:  95.328 %

 Center-of-mass coordinates (a.u.):    0.213506    0.078957    0.000000


  Atoms and basis sets
  --------------------

  Number of atom types :    3
  Total number of atoms:   13

  Basis set used is "6-31G*" from the basis set library.

  label    atoms   charge   prim   cont     basis
  ----------------------------------------------------------------------
  C           4    6.0000    27    14      [10s4p1d|3s2p1d]                                   
  O           1    8.0000    27    14      [10s4p1d|3s2p1d]                                   
  H           8    1.0000     4     2      [4s|2s]                                            
  ----------------------------------------------------------------------
  total:     13   40.0000   167    86
  ----------------------------------------------------------------------
  Spherical harmonic basis used.

  Threshold for neglecting AO integrals:  1.00D-15


  Cartesian Coordinates (a.u.)
  ----------------------------

  Total number of coordinates:   39
  C       :     1  x  -4.4907678401    2  y  -0.9722792091    3  z   0.0000000000
  C       :     4  x  -1.6610050132    5  y  -1.5762848115    6  z   0.0000000000
  C       :     7  x   0.0000000000    8  y   0.7949813246    9  z   0.0000000000
  C       :    10  x   2.8177649558   11  y   0.2411025974   12  z   0.0000000000
  O       :    13  x   4.4416085047   14  y   1.8523378936   15  z   0.0000000000
  H       :    16  x  -5.0217336381   17  y   0.1314039958   18  z  -1.6719011740
  H       :    19  x  -5.6268239433   20  y  -2.7027940184   21  z   0.0000000000
  H       :    22  x  -5.0217336381   23  y   0.1314039958   24  z   1.6719011740
  H       :    25  x  -1.1991616174   26  y  -2.7374591544   27  z   1.6586220685
  H       :    28  x  -1.1991616174   29  y  -2.7374591544   30  z  -1.6586220685
  H       :    31  x  -0.4013173577   32  y   1.9861739670   33  z  -1.6542076683
  H       :    34  x  -0.4013173577   35  y   1.9861739670   36  z   1.6542076683
  H       :    37  x   3.3424228480   38  y  -1.8012642656   39  z   0.0000000000


   Interatomic separations (in Angstrom):
   --------------------------------------

            C           C           C           C           O           H     
            ------      ------      ------      ------      ------      ------
 C     :    0.000000
 C     :    1.531178    0.000000
 C     :    2.553805    1.532043    0.000000
 C     :    3.920448    2.557754    1.519631    0.000000
 O     :    4.957512    3.704140    2.416080    1.210527    0.000000
 H     :    1.096725    2.182235    2.822723    4.242174    5.166236    0.000000
 H     :    1.095449    2.181645    3.505997    4.732442    5.847888    1.770496
 H     :    1.096725    2.182235    2.822723    4.242174    5.166236    1.769464
 H     :    2.162617    1.098938    2.160388    2.788044    3.947093    3.082648
 H     :    2.162617    1.098938    2.160388    2.788044    3.947093    2.529146
 H     :    2.810746    2.182773    1.099416    2.126224    2.709069    2.634682
 H     :    2.810746    2.182773    1.099416    2.126224    2.709069    3.168504
 H     :    4.168294    2.650375    2.239632    1.115865    2.019005    4.628095

            H           H           H           H           H           H     
            ------      ------      ------      ------      ------      ------
 H     :    0.000000
 H     :    1.770496    0.000000
 H     :    2.502086    2.529146    0.000000
 H     :    2.502086    3.082648    1.755410    0.000000
 H     :    3.817006    3.168504    3.082161    2.535045    0.000000
 H     :    3.817006    2.634682    2.535045    3.082161    1.750738    0.000000
 H     :    4.770237    4.628095    2.606082    2.606082    2.950925    2.950925

            H     
            ------
 H     :    0.000000


  Max    interatomic separation is    5.8479 Angstrom (   11.0509 Bohr)
  between atoms    7 and    5, "H     " and "O     ".

  Min HX interatomic separation is    1.0954 Angstrom (    2.0701 Bohr)

  Min YX interatomic separation is    1.2105 Angstrom (    2.2876 Bohr)


  Bond distances (Angstrom):
  --------------------------

                  atom 1     atom 2       distance
                  ------     ------       --------
  bond distance:  C          C            1.531178
  bond distance:  C          C            1.532043
  bond distance:  C          C            1.519631
  bond distance:  O          C            1.210527
  bond distance:  H          C            1.096725
  bond distance:  H          C            1.095449
  bond distance:  H          C            1.096725
  bond distance:  H          C            1.098938
  bond distance:  H          C            1.098938
  bond distance:  H          C            1.099416
  bond distance:  H          C            1.099416
  bond distance:  H          C            1.115865


  Bond angles (degrees):
  ----------------------

                  atom 1     atom 2     atom 3         angle
                  ------     ------     ------         -----
  bond angle:     C          C          H            111.206
  bond angle:     C          C          H            111.235
  bond angle:     C          C          H            111.206
  bond angle:     H          C          H            107.733
  bond angle:     H          C          H            107.550
  bond angle:     H          C          H            107.733
  bond angle:     C          C          C            112.961
  bond angle:     C          C          H            109.525
  bond angle:     C          C          H            109.525
  bond angle:     C          C          H            109.292
  bond angle:     C          C          H            109.292
  bond angle:     H          C          H            106.009
  bond angle:     C          C          C            113.889
  bond angle:     C          C          H            111.025
  bond angle:     C          C          H            111.025
  bond angle:     C          C          H            107.465
  bond angle:     C          C          H            107.465
  bond angle:     H          C          H            105.540
  bond angle:     C          C          O            124.103
  bond angle:     C          C          H            115.528
  bond angle:     O          C          H            120.370




 Principal moments of inertia (u*A**2) and principal axes
 --------------------------------------------------------

   IA      21.652328          0.950437    0.310917    0.000000
   IB     244.615002         -0.310917    0.950437    0.000000
   IC     256.917182          0.000000    0.000000    1.000000


 Rotational constants
 --------------------

               A                   B                   C

          23340.6310           2066.0180           1967.0892 MHz
            0.778560            0.068915            0.065615 cm-1


@  Nuclear repulsion energy :  168.412307069958 Hartree


Center information
------------------


Nucleus                    Number of basis
          Sym.    1
     1           14
     2           14
     3           14
     4           14
     5           14
     6            2
     7            2
     8            2
     9            2
    10            2
    11            2
    12            2
    13            2


   14 basis functions centered on nucleus    1 :
     1     2     3     4     5     6     7     8     9    10    11    12
    13    14


   14 basis functions centered on nucleus    2 :
    15    16    17    18    19    20    21    22    23    24    25    26
    27    28


   14 basis functions centered on nucleus    3 :
    29    30    31    32    33    34    35    36    37    38    39    40
    41    42


   14 basis functions centered on nucleus    4 :
    43    44    45    46    47    48    49    50    51    52    53    54
    55    56


   14 basis functions centered on nucleus    5 :
    57    58    59    60    61    62    63    64    65    66    67    68
    69    70


    2 basis functions centered on nucleus    6 :
    71    72


    2 basis functions centered on nucleus    7 :
    73    74


    2 basis functions centered on nucleus    8 :
    75    76


    2 basis functions centered on nucleus    9 :
    77    78


    2 basis functions centered on nucleus   10 :
    79    80


    2 basis functions centered on nucleus   11 :
    81    82


    2 basis functions centered on nucleus   12 :
    83    84


    2 basis functions centered on nucleus   13 :
    85    86


                     .---------------------------------------.
                     | Starting in Integral Section (HERMIT) |
                     `---------------------------------------'



    *************************************************************************
    ****************** Output from HERMIT input processing ******************
    *************************************************************************


 Default print level:        1

 * Nuclear model: Point charge

 Calculation of one- and two-electron Hamiltonian integrals.

 Center of mass  (bohr):      0.213506063015      0.078957204002      0.000000000000
 Operator center (bohr):      0.000000000000      0.000000000000      0.000000000000
 Gauge origin    (bohr):      0.000000000000      0.000000000000      0.000000000000
 Dipole origin   (bohr):      0.000000000000      0.000000000000      0.000000000000


     ************************************************************************
     ************************** Output from HERINT **************************
     ************************************************************************


 Threshold for neglecting two-electron integrals:  1.00D-15
 Number of two-electron integrals written:     4750173 ( 67.9% )
 Megabytes written:                             54.392

 >>>  Time used in TWOINT     is   2.22 seconds
 >>>> Total CPU  time used in HERMIT:   2.31 seconds
 >>>> Total wall time used in HERMIT:   2.33 seconds


                        .----------------------------------.
                        | End of Integral Section (HERMIT) |
                        `----------------------------------'



                   .--------------------------------------------.
                   | Starting in Wave Function Section (SIRIUS) |
                   `--------------------------------------------'



       ----------------------------
          Info from Selact input
       ----------------------------



    3 centers declared as active :
    4    5   13


 Density decomposition only in active space



 *** Output from Huckel module :

     Using EWMO model:          F
     Using EHT  model:          T
     Number of Huckel orbitals each symmetry:   33

 Huckel EHT eigenvalues for symmetry :  1
          -20.705518     -11.399024     -11.386572     -11.372548     -11.368816
           -1.567849      -1.454193      -1.150116      -0.969734      -0.860624
           -0.807555      -0.695220      -0.670132      -0.602193      -0.592244
           -0.558413      -0.492228      -0.485581      -0.471783      -0.434445
           -0.330547      -0.255303      -0.225096      -0.218685      -0.212423
           -0.210525      -0.209226      -0.202413      -0.198652      -0.195505
           -0.189659      -0.189113      -0.182766

 **********************************************************************
 *SIRIUS* a direct, restricted step, second order MCSCF program       *
 **********************************************************************

 
     Date and time (Linux)  : Sun Sep  8 20:46:12 2013
     Host name              : lpqlx131.ups-tlse.fr                    

 Title lines from ".mol" input file:
     ---------------------                                                   
     ---------------------                                                   

 Print level on unit LUPRI =   2 is   0
 Print level on unit LUW4  =   2 is   5

@    (Integral direct) CC calculation.

@    This is a combination run starting with
@              a restricted, closed shell Hartree-Fock calculation


 Initial molecular orbitals are obtained according to
 ".MOSTART EHT   " input option

     Wave function specification
     ============================

     For the specification of the Coupled Cluster: see later.

@    For the wave function of type :      >>> CC <<<
@    Number of closed shell electrons          40
@    Number of electrons in active shells       0
@    Total charge of the molecule               0

@    Spin multiplicity and 2 M_S                1         0
     Total number of symmetries                 1
@    Reference state symmetry                   1

     Orbital specifications
     ======================
     Abelian symmetry species          All |    1
                                       --- |  ---
@    Occupied SCF orbitals              20 |   20
     Secondary orbitals                 66 |   66
     Total number of orbitals           86 |   86
     Number of basis functions          86 |   86

     Optimization information
     ========================
@    Number of configurations                 1
@    Number of orbital rotations           1320
     ------------------------------------------
@    Total number of variables             1321

     Maximum number of Fock   iterations      0
     Maximum number of DIIS   iterations    100
     Maximum number of QC-SCF iterations     60
     Threshold for SCF convergence     1.00D-08


 Changes of defaults for CC:
 ---------------------------

  


 >>>>> DIIS optimization of Hartree-Fock <<<<<

 C1-DIIS algorithm; max error vectors =   10

 Iter      Total energy        Error norm    Delta(E)  DIIS dim.
 -----------------------------------------------------------------------------
@  1    -229.926932348        4.42306D+00   -2.30D+02    1
      Virial theorem: -V/T =      2.005328
@      MULPOP C       0.32; C       0.52; C       0.44; C       0.78; O      -0.81; H      -0.13; H      -0.14; H      -0.13; H      -0.18; H      -0.18; 
@             H      -0.12; H      -0.12; H      -0.22; 
 -----------------------------------------------------------------------------
@  2    -230.676285833        2.38256D+00   -7.49D-01    2
      Virial theorem: -V/T =      1.999080
@      MULPOP C      -0.67; C      -0.53; C      -0.69; C      -0.40; O       0.24; H       0.24; H       0.25; H       0.24; H       0.26; H       0.26; 
@             H       0.30; H       0.30; H       0.20; 
 -----------------------------------------------------------------------------
@  3    -230.952935806        7.52019D-01   -2.77D-01    3
      Virial theorem: -V/T =      1.998824
@      MULPOP C      -0.51; C      -0.30; C      -0.38; C       0.50; O      -0.65; H       0.17; H       0.17; H       0.17; H       0.16; H       0.16; 
@             H       0.19; H       0.19; H       0.13; 
 -----------------------------------------------------------------------------
@  4    -230.979738735        1.36865D-01   -2.68D-02    4
      Virial theorem: -V/T =      2.002264
@      MULPOP C      -0.48; C      -0.32; C      -0.42; C       0.33; O      -0.48; H       0.16; H       0.17; H       0.16; H       0.16; H       0.16; 
@             H       0.20; H       0.20; H       0.14; 
 -----------------------------------------------------------------------------
@  5    -230.981016294        2.97852D-02   -1.28D-03    5
      Virial theorem: -V/T =      2.000962
@      MULPOP C      -0.50; C      -0.34; C      -0.43; C       0.35; O      -0.51; H       0.17; H       0.18; H       0.17; H       0.17; H       0.17; 
@             H       0.21; H       0.21; H       0.15; 
 -----------------------------------------------------------------------------
@  6    -230.981116701        7.52899D-03   -1.00D-04    6
      Virial theorem: -V/T =      2.000990
@      MULPOP C      -0.49; C      -0.33; C      -0.42; C       0.35; O      -0.51; H       0.17; H       0.17; H       0.17; H       0.17; H       0.17; 
@             H       0.21; H       0.21; H       0.15; 
 -----------------------------------------------------------------------------
@  7    -230.981123698        2.86616D-03   -7.00D-06    7
      Virial theorem: -V/T =      2.000982
@      MULPOP C      -0.49; C      -0.33; C      -0.42; C       0.35; O      -0.51; H       0.17; H       0.17; H       0.17; H       0.17; H       0.17; 
@             H       0.21; H       0.21; H       0.15; 
 -----------------------------------------------------------------------------
@  8    -230.981124839        9.16984D-04   -1.14D-06    8
      Virial theorem: -V/T =      2.000979
@      MULPOP C      -0.49; C      -0.33; C      -0.42; C       0.35; O      -0.51; H       0.17; H       0.17; H       0.17; H       0.17; H       0.17; 
@             H       0.21; H       0.21; H       0.15; 
 -----------------------------------------------------------------------------
@  9    -230.981124969        2.86126D-04   -1.31D-07    9
      Virial theorem: -V/T =      2.000980
@      MULPOP C      -0.49; C      -0.33; C      -0.42; C       0.35; O      -0.51; H       0.17; H       0.17; H       0.17; H       0.17; H       0.17; 
@             H       0.21; H       0.21; H       0.15; 
 -----------------------------------------------------------------------------
@ 10    -230.981124985        8.42863D-05   -1.54D-08   10
      Virial theorem: -V/T =      2.000981
@      MULPOP C      -0.49; C      -0.33; C      -0.42; C       0.35; O      -0.51; H       0.17; H       0.17; H       0.17; H       0.17; H       0.17; 
@             H       0.21; H       0.21; H       0.15; 
 -----------------------------------------------------------------------------
@ 11    -230.981124986        2.06659D-05   -1.17D-09   10
      Virial theorem: -V/T =      2.000981
@      MULPOP C      -0.49; C      -0.33; C      -0.42; C       0.35; O      -0.51; H       0.17; H       0.17; H       0.17; H       0.17; H       0.17; 
@             H       0.21; H       0.21; H       0.15; 
 -----------------------------------------------------------------------------
@ 12    -230.981124986        2.85599D-06   -6.88D-11   10
      Virial theorem: -V/T =      2.000981
@      MULPOP C      -0.49; C      -0.33; C      -0.42; C       0.35; O      -0.51; H       0.17; H       0.17; H       0.17; H       0.17; H       0.17; 
@             H       0.21; H       0.21; H       0.15; 
 -----------------------------------------------------------------------------
@ 13    -230.981124986        6.11794D-07   -1.02D-12   10
      Virial theorem: -V/T =      2.000981
@      MULPOP C      -0.49; C      -0.33; C      -0.42; C       0.35; O      -0.51; H       0.17; H       0.17; H       0.17; H       0.17; H       0.17; 
@             H       0.21; H       0.21; H       0.15; 
 -----------------------------------------------------------------------------
@ 14    -230.981124986        1.72645D-07    1.19D-12   10
      Virial theorem: -V/T =      2.000981
@      MULPOP C      -0.49; C      -0.33; C      -0.42; C       0.35; O      -0.51; H       0.17; H       0.17; H       0.17; H       0.17; H       0.17; 
@             H       0.21; H       0.21; H       0.15; 
 -----------------------------------------------------------------------------
@ 15    -230.981124986        5.62977D-08    1.71D-13   10
      Virial theorem: -V/T =      2.000981
@      MULPOP C      -0.49; C      -0.33; C      -0.42; C       0.35; O      -0.51; H       0.17; H       0.17; H       0.17; H       0.17; H       0.17; 
@             H       0.21; H       0.21; H       0.15; 
 -----------------------------------------------------------------------------
@ 16    -230.981124986        1.56795D-08   -1.02D-12   10
      Virial theorem: -V/T =      2.000981
@      MULPOP C      -0.49; C      -0.33; C      -0.42; C       0.35; O      -0.51; H       0.17; H       0.17; H       0.17; H       0.17; H       0.17; 
@             H       0.21; H       0.21; H       0.15; 
 -----------------------------------------------------------------------------
@ 17    -230.981124986        3.53679D-09    1.14D-12   10

@ *** DIIS converged in  17 iterations !
@     Converged SCF energy, gradient:   -230.981124985891    3.54D-09
    - total time used in SIRFCK :              0.00 seconds


 *** SCF orbital energy analysis ***

 Only the five lowest virtual orbital energies printed in each symmetry.

 Number of electrons :   40
 Orbital occupations :   20

 Sym       Hartree-Fock orbital energies

  1    -20.56173416   -11.33373025   -11.23984451   -11.23925190   -11.22586077
        -1.38802502    -1.08521230    -0.97340874    -0.83609414    -0.79541894
        -0.65426353    -0.65136272    -0.63141781    -0.57299358    -0.57127869
        -0.52200527    -0.50704538    -0.49583569    -0.47784250    -0.41300425
         0.14808641     0.22146065     0.26122383     0.27536520     0.27710195

    E(LUMO) :     0.14808641 au (symmetry 1)
  - E(HOMO) :    -0.41300425 au (symmetry 1)
  ------------------------------------------
    gap     :     0.56109067 au

 >>> Writing SIRIFC interface file <<<

 >>>> CPU and wall time for SCF :       2.003       2.439


                       .-----------------------------------.
                       | >>> Final results from SIRIUS <<< |
                       `-----------------------------------'


@    Spin multiplicity:           1
@    Spatial symmetry:            1
@    Total charge of molecule:    0

@    Final HF energy:            -230.981124985891                 
@    Nuclear repulsion:           168.412307069958
@    Electronic energy:          -399.393432055849

@    Final gradient norm:           0.000000003537

 
     Date and time (Linux)  : Sun Sep  8 20:46:15 2013
     Host name              : lpqlx131.ups-tlse.fr                    

 (Only coefficients >0.0100 are printed.)

 Molecular orbitals for symmetry species  1
 ------------------------------------------

    Orbital        16       17       18       19       20       21       22
   1 C   :1s     0.0151  -0.0000   0.0070  -0.0000  -0.0106  -0.0000   0.0837
   2 C   :1s    -0.0336  -0.0000  -0.0144  -0.0000   0.0189  -0.0000  -0.0542
   3 C   :1s    -0.0249   0.0000  -0.0236   0.0000   0.0402   0.0000  -1.5059
   4 C   :2px   -0.3701   0.0000  -0.0161  -0.0000   0.0847  -0.0000   0.0919
   5 C   :2py    0.0408   0.0000   0.2489  -0.0000   0.0274   0.0000  -0.0372
   6 C   :2pz   -0.0000   0.2493   0.0000   0.1268  -0.0000   0.0222   0.0000
   7 C   :2px   -0.1865   0.0000   0.0012   0.0000   0.0544  -0.0000   0.4481
   8 C   :2py    0.0155   0.0000   0.1531  -0.0000   0.0270   0.0000  -0.2201
   9 C   :2pz    0.0000   0.1520   0.0000   0.0843  -0.0000   0.0590   0.0000
  10 C   :3d2-   0.0110  -0.0000  -0.0213   0.0000  -0.0068  -0.0000   0.0056
  11 C   :3d1-   0.0000   0.0223   0.0000   0.0144  -0.0000   0.0012   0.0000
  12 C   :3d0    0.0093  -0.0000   0.0179  -0.0000   0.0016   0.0000   0.0032
  13 C   :3d1+   0.0000  -0.0143   0.0000  -0.0101  -0.0000  -0.0041   0.0000
  14 C   :3d2+  -0.0188   0.0000  -0.0038   0.0000   0.0039  -0.0000  -0.0032
  15 C   :1s     0.0123   0.0000   0.0107   0.0000   0.0021   0.0000   0.0666
  16 C   :1s    -0.0267   0.0000  -0.0281   0.0000   0.0037  -0.0000  -0.0438
  17 C   :1s    -0.0434  -0.0000  -0.0116  -0.0000  -0.0640   0.0000  -1.2852
  18 C   :2px    0.3741  -0.0000  -0.0152   0.0000  -0.0848  -0.0000  -0.0446
  19 C   :2py   -0.0529  -0.0000  -0.3203   0.0000  -0.0419   0.0000   0.0807
  20 C   :2pz    0.0000  -0.2040  -0.0000  -0.2374  -0.0000  -0.0452   0.0000
  21 C   :2px    0.1960   0.0000   0.0048   0.0000  -0.0790  -0.0000  -0.3396
  22 C   :2py   -0.0407  -0.0000  -0.1758   0.0000  -0.0524   0.0000   0.4079
  23 C   :2pz   -0.0000  -0.1255  -0.0000  -0.1621   0.0000  -0.2289  -0.0000
  24 C   :3d2-   0.0107  -0.0000  -0.0218   0.0000  -0.0039  -0.0000   0.0011
  25 C   :3d1-  -0.0000   0.0183   0.0000   0.0279  -0.0000   0.0008   0.0000
  26 C   :3d0    0.0107   0.0000   0.0200   0.0000   0.0002  -0.0000   0.0070
  27 C   :3d1+  -0.0000  -0.0139  -0.0000  -0.0101   0.0000   0.0038  -0.0000
  28 C   :3d2+  -0.0182  -0.0000  -0.0079  -0.0000   0.0089   0.0000   0.0002
  29 C   :1s    -0.0236  -0.0000   0.0241  -0.0000  -0.0248  -0.0000   0.0586
  30 C   :1s     0.0431  -0.0000  -0.0486   0.0000   0.0408  -0.0000  -0.0462
  31 C   :1s     0.0897   0.0000  -0.0805  -0.0000   0.2038   0.0000  -1.0140
  32 C   :2px   -0.0902  -0.0000   0.0789  -0.0000   0.2604   0.0000   0.0062
  33 C   :2py   -0.0980   0.0000   0.2944  -0.0000  -0.0410   0.0000  -0.1119
  34 C   :2pz   -0.0000  -0.0659   0.0000   0.2381   0.0000   0.0155   0.0000
  35 C   :2px   -0.0501   0.0000   0.0418  -0.0000   0.1647   0.0000  -0.0677
  36 C   :2py   -0.0626  -0.0000   0.1691  -0.0000  -0.0945  -0.0000  -0.6827
  37 C   :2pz    0.0000  -0.0551   0.0000   0.1841  -0.0000   0.3005   0.0000
  38 C   :3d2-   0.0056   0.0000  -0.0147   0.0000  -0.0046  -0.0000  -0.0031
  39 C   :3d1-  -0.0000  -0.0005   0.0000   0.0279   0.0000  -0.0175  -0.0000
  40 C   :3d0    0.0002  -0.0000   0.0145  -0.0000  -0.0068  -0.0000   0.0034
  41 C   :3d1+  -0.0000   0.0082  -0.0000  -0.0077  -0.0000   0.0290  -0.0000
  42 C   :3d2+  -0.0135   0.0000  -0.0041  -0.0000   0.0150   0.0000   0.0068
  43 C   :1s     0.0248   0.0000   0.0020  -0.0000  -0.0080   0.0000  -0.0199
  44 C   :1s    -0.0465   0.0000  -0.0062  -0.0000   0.0305   0.0000  -0.0056
  45 C   :1s    -0.1104  -0.0000   0.0084   0.0000  -0.0116  -0.0000   0.3726
  46 C   :2px    0.1124   0.0000   0.0098   0.0000  -0.1711  -0.0000  -0.0383
  47 C   :2py    0.0850  -0.0000  -0.0538   0.0000   0.1329   0.0000  -0.0060
  48 C   :2pz    0.0000   0.2049  -0.0000  -0.1478  -0.0000   0.4092   0.0000
  49 C   :2px    0.0448   0.0000   0.0120  -0.0000  -0.0028   0.0000  -0.1170
  50 C   :2py    0.0310  -0.0000  -0.0241   0.0000   0.0673  -0.0000   0.0920
  51 C   :2pz   -0.0000   0.1340  -0.0000  -0.1240   0.0000   0.6280  -0.0000
  52 C   :3d2-   0.0144  -0.0000  -0.0118   0.0000   0.0020  -0.0000   0.0075
  53 C   :3d1-   0.0000   0.0176  -0.0000  -0.0124  -0.0000  -0.0249  -0.0000
  55 C   :3d1+   0.0000   0.0196  -0.0000  -0.0216  -0.0000  -0.0201   0.0000
  56 C   :3d2+   0.0131  -0.0000  -0.0070   0.0000   0.0565  -0.0000   0.0028
  58 O   :1s    -0.0103  -0.0000  -0.0000   0.0000   0.0045  -0.0000   0.0028
  59 O   :1s    -0.0385   0.0000   0.0033  -0.0000  -0.0230   0.0000  -0.0713
  60 O   :2px    0.0045   0.0000   0.0523  -0.0000   0.3695   0.0000   0.0061
  61 O   :2py   -0.1883  -0.0000   0.0302  -0.0000  -0.3564  -0.0000  -0.0081
  62 O   :2pz    0.0000   0.3396  -0.0000  -0.2972  -0.0000  -0.3485   0.0000
  63 O   :2px    0.0114  -0.0000   0.0345   0.0000   0.2980  -0.0000   0.0380
  64 O   :2py   -0.1265   0.0000   0.0224   0.0000  -0.2824  -0.0000   0.0039
  65 O   :2pz    0.0000   0.2474  -0.0000  -0.2166  -0.0000  -0.4806   0.0000
  67 O   :3d1-  -0.0000  -0.0197   0.0000   0.0164   0.0000  -0.0003  -0.0000
  69 O   :3d1+  -0.0000  -0.0199   0.0000   0.0161   0.0000   0.0014  -0.0000
  70 O   :3d2+  -0.0064   0.0000  -0.0019  -0.0000  -0.0173   0.0000  -0.0013
  71 H   :1s     0.0635  -0.1456   0.0951  -0.0819   0.0052  -0.0151  -0.0060
  72 H   :1s     0.0603  -0.1314   0.0954  -0.0861  -0.0003   0.0212   0.7679
  73 H   :1s     0.1005  -0.0000  -0.1552   0.0000  -0.0449   0.0000   0.0099
  74 H   :1s     0.0891  -0.0000  -0.1398  -0.0000  -0.0499   0.0000   0.6565
  75 H   :1s     0.0635   0.1456   0.0951   0.0819   0.0052   0.0151  -0.0060
  76 H   :1s     0.0603   0.1314   0.0954   0.0861  -0.0003  -0.0212   0.7679
  77 H   :1s     0.0641  -0.1187   0.1174  -0.1471  -0.0024  -0.0120  -0.0026
  78 H   :1s     0.0565  -0.1115   0.1168  -0.1462  -0.0119   0.1684   0.7334
  79 H   :1s     0.0641   0.1187   0.1174   0.1471  -0.0024   0.0120  -0.0026
  80 H   :1s     0.0565   0.1115   0.1168   0.1462  -0.0119  -0.1684   0.7334
  81 H   :1s     0.0005   0.0332   0.0872  -0.1468  -0.0360   0.0832  -0.0076
  82 H   :1s    -0.0017   0.0083   0.0895  -0.1277  -0.0542   0.4492   0.7312
  83 H   :1s     0.0005  -0.0332   0.0872   0.1468  -0.0360  -0.0832  -0.0076
  84 H   :1s    -0.0017  -0.0083   0.0895   0.1277  -0.0542  -0.4492   0.7312
  85 H   :1s    -0.0694   0.0000   0.0471  -0.0000  -0.1804   0.0000  -0.0445
  86 H   :1s    -0.0573  -0.0000   0.0532  -0.0000  -0.2271   0.0000  -0.1443



 >>>> Total CPU  time used in SIRIUS :      2.08 seconds
 >>>> Total wall time used in SIRIUS :      2.52 seconds

 
     Date and time (Linux)  : Sun Sep  8 20:46:15 2013
     Host name              : lpqlx131.ups-tlse.fr                    


                     .---------------------------------------.
                     | End of Wave Function Section (SIRIUS) |
                     `---------------------------------------'



                           .----------------------------.
                           | Starting in Choact Section |
                           `----------------------------'




         ======================================
         Entering selection of orbitals section
         ======================================

Information from CHO_ACTIVE
---------------------------

   3 selected atoms :
    4    5   13


   30 selected basis :
   43   44   45   46   47   48   49   50   51   52   53   54   55   56   57   58
   59   60   61   62   63   64   65   66   67   68   69   70   85   86


ACTIVE OCCUPIED. SYMMETRY :  1

Cholesky MO :   1 Diagonal  0.1043510D+01 (    57) Norm  0.1071484D+01
Cholesky MO :   2 Diagonal  0.1031706D+01 (    43) Norm  0.1045060D+01
Cholesky MO :   3 Diagonal  0.3540834D+00 (    61) Norm  0.6839310D+00
Cholesky MO :   4 Diagonal  0.3422204D+00 (    60) Norm  0.6610400D+00
Cholesky MO :   5 Diagonal  0.2535692D+00 (    59) Norm  0.5354690D+00
Cholesky MO :   6 Diagonal  0.2533352D+00 (    62) Norm  0.5387074D+00


INACTIVE OCCUPIED. SYMMETRY :  1

Cholesky MO :   1 Diagonal  0.1030886D+01 (     1) Norm  0.1044838D+01
Cholesky MO :   2 Diagonal  0.1030606D+01 (    29) Norm  0.1046269D+01
Cholesky MO :   3 Diagonal  0.1030542D+01 (    15) Norm  0.1045010D+01
Cholesky MO :   4 Diagonal  0.1895374D+00 (    20) Norm  0.4597319D+00
Cholesky MO :   5 Diagonal  0.1894330D+00 (    34) Norm  0.4408731D+00
Cholesky MO :   6 Diagonal  0.1888315D+00 (     6) Norm  0.4475050D+00
Cholesky MO :   7 Diagonal  0.1887419D+00 (     5) Norm  0.4477561D+00
Cholesky MO :   8 Diagonal  0.1874607D+00 (    33) Norm  0.4867418D+00
Cholesky MO :   9 Diagonal  0.1782355D+00 (     4) Norm  0.4984074D+00
Cholesky MO :  10 Diagonal  0.1711626D+00 (    32) Norm  0.5077077D+00
Cholesky MO :  11 Diagonal  0.1663851D+00 (    31) Norm  0.4366818D+00
Cholesky MO :  12 Diagonal  0.1386673D+00 (     3) Norm  0.3725401D+00
Cholesky MO :  13 Diagonal  0.9342285D-01 (    17) Norm  0.3633973D+00
Cholesky MO :  14 Diagonal  0.9040214D-01 (    47) Norm  0.3966304D+00


ACTIVE VIRTUAL. SYMMETRY :  1

Cholesky MO :   1 Diagonal  0.6985370D+02 (    45) Norm  0.1550280D+03
Cholesky MO :   2 Diagonal  0.2766854D+02 (    59) Norm  0.7255863D+02
Cholesky MO :   3 Diagonal  0.1502149D+02 (    50) Norm  0.4266732D+02
Cholesky MO :   4 Diagonal  0.6388540D+01 (    49) Norm  0.2512932D+02
Cholesky MO :   5 Diagonal  0.3767060D+01 (    51) Norm  0.1398748D+02
Cholesky MO :   6 Diagonal  0.3187589D+01 (    44) Norm  0.9004377D+01
Cholesky MO :   7 Diagonal  0.2694050D+01 (    86) Norm  0.7876759D+01
Cholesky MO :   8 Diagonal  0.1791726D+01 (    63) Norm  0.4606017D+01
Cholesky MO :   9 Diagonal  0.1632746D+01 (    46) Norm  0.8114602D+01
Cholesky MO :  10 Diagonal  0.1630405D+01 (    56) Norm  0.2534858D+01
Cholesky MO :  11 Diagonal  0.1423490D+01 (    52) Norm  0.2843846D+01
Cholesky MO :  12 Diagonal  0.1387192D+01 (    65) Norm  0.2861541D+01
Cholesky MO :  13 Diagonal  0.1215373D+01 (    55) Norm  0.1827399D+01
Cholesky MO :  14 Diagonal  0.1204013D+01 (    47) Norm  0.5407055D+01
Cholesky MO :  15 Diagonal  0.1195750D+01 (    54) Norm  0.2009720D+01
Cholesky MO :  16 Diagonal  0.1127735D+01 (    64) Norm  0.3790857D+01
Cholesky MO :  17 Diagonal  0.1123840D+01 (    53) Norm  0.1317456D+01
Cholesky MO :  18 Diagonal  0.1035885D+01 (    69) Norm  0.1087035D+01
Cholesky MO :  19 Diagonal  0.1034621D+01 (    67) Norm  0.1096102D+01
Cholesky MO :  20 Diagonal  0.9975001D+00 (    68) Norm  0.1069560D+01
Cholesky MO :  21 Diagonal  0.9873955D+00 (    70) Norm  0.1286802D+01
Cholesky MO :  22 Diagonal  0.9783598D+00 (    66) Norm  0.1209789D+01
Cholesky MO :  23 Diagonal  0.8588050D+00 (    48) Norm  0.4255930D+01
Cholesky MO :  24 Diagonal  0.2707395D+00 (    85) Norm  0.1652835D+02
Cholesky MO :  25 Diagonal  0.1328471D+00 (    60) Norm  0.1713346D+02
Cholesky MO :  26 Diagonal  0.1325028D+00 (    62) Norm  0.1296455D+02


INACTIVE VIRTUAL. SYMMETRY :  1

Cholesky MO :   1 Diagonal  0.6550084D+02 (    17) Norm  0.1035365D+03
Cholesky MO :   2 Diagonal  0.4436805D+02 (     3) Norm  0.6338351D+02
Cholesky MO :   3 Diagonal  0.3132432D+02 (    31) Norm  0.4768995D+02
Cholesky MO :   4 Diagonal  0.9730540D+01 (    21) Norm  0.2090243D+02
Cholesky MO :   5 Diagonal  0.9601169D+01 (    23) Norm  0.1800439D+02
Cholesky MO :   6 Diagonal  0.7764189D+01 (     8) Norm  0.1580468D+02
Cholesky MO :   7 Diagonal  0.6777194D+01 (     9) Norm  0.1394219D+02
Cholesky MO :   8 Diagonal  0.6185324D+01 (    22) Norm  0.1193115D+02
Cholesky MO :   9 Diagonal  0.4681756D+01 (    82) Norm  0.8717328D+01
Cholesky MO :  10 Diagonal  0.3460635D+01 (     7) Norm  0.5924875D+01
Cholesky MO :  11 Diagonal  0.3029047D+01 (    84) Norm  0.5392765D+01
Cholesky MO :  12 Diagonal  0.2630269D+01 (    80) Norm  0.4391935D+01
Cholesky MO :  13 Diagonal  0.2464381D+01 (    74) Norm  0.4063257D+01
Cholesky MO :  14 Diagonal  0.2374265D+01 (    78) Norm  0.3958970D+01
Cholesky MO :  15 Diagonal  0.2288114D+01 (    76) Norm  0.3823241D+01
Cholesky MO :  16 Diagonal  0.2117323D+01 (    71) Norm  0.3531417D+01
Cholesky MO :  17 Diagonal  0.1281572D+01 (    39) Norm  0.1643952D+01
Cholesky MO :  18 Diagonal  0.1273275D+01 (     2) Norm  0.2318516D+01
Cholesky MO :  19 Diagonal  0.1262301D+01 (    24) Norm  0.1681594D+01
Cholesky MO :  20 Diagonal  0.1238888D+01 (    25) Norm  0.1574641D+01
Cholesky MO :  21 Diagonal  0.1215020D+01 (    28) Norm  0.1569382D+01
Cholesky MO :  22 Diagonal  0.1168278D+01 (    26) Norm  0.1447396D+01
Cholesky MO :  23 Diagonal  0.1152930D+01 (    34) Norm  0.1761008D+01
Cholesky MO :  24 Diagonal  0.1140351D+01 (    10) Norm  0.1373939D+01
Cholesky MO :  25 Diagonal  0.1107493D+01 (    33) Norm  0.1833709D+01
Cholesky MO :  26 Diagonal  0.1106330D+01 (    12) Norm  0.1280168D+01
Cholesky MO :  27 Diagonal  0.1096352D+01 (    14) Norm  0.1239402D+01
Cholesky MO :  28 Diagonal  0.1094902D+01 (    38) Norm  0.1682250D+01
Cholesky MO :  29 Diagonal  0.1090477D+01 (    11) Norm  0.1260112D+01
Cholesky MO :  30 Diagonal  0.1082620D+01 (    27) Norm  0.1180161D+01
Cholesky MO :  31 Diagonal  0.1071747D+01 (    40) Norm  0.1170249D+01
Cholesky MO :  32 Diagonal  0.1029252D+01 (    13) Norm  0.1086431D+01
Cholesky MO :  33 Diagonal  0.9827291D+00 (    42) Norm  0.1151225D+01
Cholesky MO :  34 Diagonal  0.9512233D+00 (    41) Norm  0.1450473D+01
Cholesky MO :  35 Diagonal  0.8955737D+00 (    77) Norm  0.1848558D+01
Cholesky MO :  36 Diagonal  0.8909774D+00 (    79) Norm  0.1833445D+01
Cholesky MO :  37 Diagonal  0.8639047D+00 (     5) Norm  0.1785591D+01
Cholesky MO :  38 Diagonal  0.8479220D+00 (     4) Norm  0.1666601D+01
Cholesky MO :  39 Diagonal  0.8239727D+00 (     6) Norm  0.1848057D+01
Cholesky MO :  40 Diagonal  0.6246705D+00 (    30) Norm  0.1898844D+01


 
Symmetry block 1
Maximum deviation from one in diagonal elements      :0.197620D-13
Maximum deviation from zero in off-diagonal elements :0.263830D-13



Final results of selection of orbitals
--------------------------------------


Number of active atoms :   3
Active atoms :
    4    5   13
Decomposition thresholds of active occupied and virtual spaces :  0.15  0.10

Occupied inactive :   14
Occupied active   :    6
Virtual active    :   26
Virtual inactive  :   40

Orbital energies of Cholesky orbitals

Inactive occupied block of symmetry :  1
  1) -11.239836       2) -11.239243       3) -11.225861       4)  -1.234771
  5)  -1.049692       6)  -0.901285       7)  -0.818365       8)  -0.648225
  9)  -0.612662      10)  -0.558029      11)  -0.556273      12)  -0.528862
 13)  -0.497996      14)  -0.489922

Active occupied block of symmetry :  1
  1) -20.558865       2) -11.029040       3)  -1.327535       4)  -0.656597
  5)  -0.511353       6)  -0.491219

Active virtual block of symmetry :  1
  1)   0.177650       2)   0.359093       3)   0.501076       4)   0.694964
  5)   0.782869       6)   0.814589       7)   0.969958       8)   1.033366
  9)   1.081859      10)   1.129377      11)   1.195525      12)   1.275435
 13)   1.303825      14)   1.400615      15)   1.434494      16)   1.817626
 17)   1.983851      18)   1.984535      19)   2.085305      20)   2.280629
 21)   2.347547      22)   2.586683      23)   2.759349      24)   2.910196
 25)   3.139595      26)   3.345361

Inactive virtual block of symmetry :  1
  1)   0.243314       2)   0.278131       3)   0.280367       4)   0.312177
  5)   0.329077       6)   0.333015       7)   0.407547       8)   0.427560
  9)   0.557779      10)   0.737435      11)   0.739266      12)   0.739678
 13)   0.863158      14)   0.871596      15)   0.948820      16)   1.116746
 17)   1.144592      18)   1.157525      19)   1.158502      20)   1.180779
 21)   1.182215      22)   1.200582      23)   1.235965      24)   1.505859
 25)   1.640727      26)   1.674138      27)   1.726442      28)   1.981619
 29)   2.120218      30)   2.154347      31)   2.189691      32)   2.269176
 33)   2.314933      34)   2.452094      35)   2.514988      36)   2.636066
 37)   2.692947      38)   2.697381      39)   2.840348      40)   2.993928


Active Cholesky Molecular Orbitals


 Molecular orbitals for symmetry species  1
 ------------------------------------------

    Orbital         1        2        3        4        5        6        7
   1 C   :1s    -0.0120   0.0171  -0.9960   0.0123  -0.1273  -0.1323  -0.0649
   2 C   :1s     0.0002   0.0003  -0.0258  -0.0237   0.2410   0.2489   0.1241
   3 C   :1s    -0.0029   0.0028   0.0181  -0.0222   0.2109   0.2840   0.1506
   4 C   :2px    0.0001   0.0001  -0.0001  -0.0221   0.0554  -0.0565  -0.0999
   5 C   :2py    0.0000   0.0001  -0.0000   0.0019  -0.0081  -0.0042   0.0540
   7 C   :2px   -0.0014   0.0016   0.0009  -0.0114   0.0040  -0.0123  -0.0327
   8 C   :2py   -0.0000  -0.0005   0.0002  -0.0006  -0.0012   0.0023   0.0195
  10 C   :3d2-  -0.0001   0.0001  -0.0000   0.0013  -0.0016   0.0021   0.0054
  12 C   :3d0   -0.0001   0.0002  -0.0000   0.0006  -0.0034   0.0038   0.0074
  14 C   :3d2+   0.0002  -0.0002   0.0000  -0.0015   0.0054  -0.0073  -0.0091
  15 C   :1s    -0.6107   0.7869   0.0210   0.0299  -0.1477   0.0510   0.1102
  16 C   :1s    -0.0158   0.0210   0.0008  -0.0560   0.2794  -0.0977  -0.2063
  17 C   :1s     0.0088  -0.0183  -0.0040  -0.0259   0.2484  -0.1017  -0.2803
  18 C   :2px   -0.0000  -0.0000  -0.0001  -0.0088  -0.0382  -0.1361  -0.0439
  19 C   :2py   -0.0000   0.0001   0.0000  -0.0126   0.0273  -0.0523   0.1288
  21 C   :2px   -0.0012  -0.0008   0.0021   0.0116   0.0013  -0.0361  -0.0306
  22 C   :2py   -0.0008  -0.0019  -0.0003   0.0061   0.0031  -0.0085   0.0409
  24 C   :3d2-   0.0002   0.0002  -0.0001  -0.0044  -0.0023  -0.0101   0.0059
  26 C   :3d0   -0.0002  -0.0001  -0.0002   0.0033  -0.0023  -0.0023  -0.0129
  28 C   :3d2+  -0.0001  -0.0001   0.0003  -0.0021   0.0024   0.0139   0.0031
  29 C   :1s    -0.7870  -0.6109  -0.0010   0.1125  -0.0483   0.1145  -0.0937
  30 C   :1s    -0.0207  -0.0166   0.0003  -0.2148   0.0900  -0.2129   0.1755
  31 C   :1s     0.0132   0.0162   0.0001  -0.1735   0.0757  -0.2542   0.2547
  32 C   :2px   -0.0001  -0.0001  -0.0002  -0.1586  -0.1176   0.1095  -0.0040
  33 C   :2py    0.0000   0.0001  -0.0000   0.0364  -0.0361  -0.0126   0.1572
  35 C   :2px    0.0012  -0.0007   0.0013  -0.0578  -0.0334   0.0442  -0.0102
  36 C   :2py    0.0004  -0.0020  -0.0003   0.0029  -0.0091   0.0016   0.0428
  38 C   :3d2-   0.0002  -0.0002  -0.0000   0.0081   0.0109  -0.0059  -0.0073
  40 C   :3d0   -0.0002   0.0001   0.0000   0.0063  -0.0007  -0.0058   0.0128
  42 C   :3d2+  -0.0001   0.0001   0.0000  -0.0112  -0.0080   0.0105  -0.0000
  44 C   :1s     0.0005   0.0000   0.0002  -0.3172  -0.0966   0.1022  -0.0397
  45 C   :1s    -0.0035  -0.0033  -0.0012  -0.2518  -0.1029   0.1343  -0.0663
  46 C   :2px    0.0001  -0.0001  -0.0000   0.1666   0.0278   0.0196  -0.0586
  47 C   :2py    0.0001  -0.0002   0.0000   0.1293   0.0598  -0.1170   0.1137
  49 C   :2px    0.0020   0.0013   0.0009   0.0556   0.0229  -0.0230   0.0026
  50 C   :2py    0.0000  -0.0003  -0.0002   0.0731   0.0335  -0.0562   0.0416
  52 C   :3d2-  -0.0001  -0.0001  -0.0000   0.0118   0.0039  -0.0037  -0.0017
  54 C   :3d0   -0.0001  -0.0001   0.0000   0.0168   0.0039  -0.0035   0.0018
  56 C   :3d2+   0.0003   0.0002  -0.0000  -0.0014   0.0050  -0.0132   0.0123
  58 O   :1s     0.0007  -0.0005   0.0000  -0.0100  -0.0010  -0.0038   0.0086
  63 O   :2px    0.0001  -0.0003  -0.0001  -0.0103  -0.0016  -0.0051   0.0122
  64 O   :2py    0.0002  -0.0000   0.0001  -0.0095  -0.0055   0.0115  -0.0106
  66 O   :3d2-   0.0000   0.0000   0.0000  -0.0025  -0.0009   0.0010  -0.0002
  68 O   :3d0    0.0001   0.0001   0.0000  -0.0002   0.0001  -0.0002  -0.0002
  70 O   :3d2+   0.0000   0.0000   0.0000  -0.0001   0.0005  -0.0020   0.0025
  71 H   :1s     0.0002  -0.0002  -0.0001  -0.0044   0.0726   0.0983   0.0775
  72 H   :1s     0.0001   0.0003  -0.0032   0.0005   0.0121   0.0269   0.0337
  73 H   :1s     0.0001  -0.0001  -0.0000  -0.0005   0.0716   0.1079   0.0551
  74 H   :1s    -0.0003  -0.0002  -0.0029   0.0057   0.0122   0.0335   0.0221
  75 H   :1s     0.0002  -0.0002  -0.0001  -0.0044   0.0726   0.0983   0.0775
  76 H   :1s     0.0001   0.0003  -0.0032   0.0005   0.0121   0.0269   0.0337
  77 H   :1s     0.0001   0.0003   0.0002  -0.0131   0.0833  -0.0368  -0.1246
  78 H   :1s    -0.0021   0.0024  -0.0001   0.0037   0.0133  -0.0112  -0.0497
  79 H   :1s     0.0001   0.0003   0.0002  -0.0131   0.0833  -0.0368  -0.1246
  80 H   :1s    -0.0021   0.0024  -0.0001   0.0037   0.0133  -0.0112  -0.0497
  81 H   :1s     0.0000  -0.0003   0.0001  -0.0409   0.0325  -0.0946   0.1174
  82 H   :1s    -0.0026  -0.0019   0.0003   0.0072   0.0084  -0.0282   0.0478
  83 H   :1s     0.0000  -0.0003   0.0001  -0.0409   0.0325  -0.0946   0.1174
  84 H   :1s    -0.0026  -0.0019   0.0003   0.0072   0.0084  -0.0282   0.0478
  85 H   :1s     0.0002   0.0001   0.0001  -0.1555  -0.0650   0.1091  -0.0886
  86 H   :1s     0.0001   0.0001  -0.0002  -0.0568  -0.0299   0.0625  -0.0583

    Orbital         8        9       10       11       12       13       14
   1 C   :1s     0.0000   0.0029  -0.0000   0.0007  -0.0127   0.0124   0.0000
   2 C   :1s    -0.0000  -0.0047  -0.0000   0.0054   0.0260  -0.0251   0.0000
   3 C   :1s    -0.0000  -0.0131   0.0000  -0.0269   0.0248  -0.0376  -0.0000
   4 C   :2px    0.0000   0.0913  -0.0000   0.1917   0.3266  -0.1080   0.0000
   5 C   :2py   -0.0000   0.2459   0.0000  -0.2065   0.1565   0.2413   0.0000
   6 C   :2pz    0.1936   0.0000   0.3110   0.0000   0.0000   0.0000  -0.2343
   7 C   :2px   -0.0000   0.0408  -0.0000   0.0858   0.1705  -0.0482  -0.0000
   8 C   :2py   -0.0000   0.1213   0.0000  -0.1123   0.1023   0.1450   0.0000
   9 C   :2pz    0.0885   0.0000   0.1669   0.0000   0.0000   0.0000  -0.1499
  10 C   :3d2-   0.0000  -0.0099  -0.0000   0.0037  -0.0226  -0.0168  -0.0000
  11 C   :3d1-   0.0119   0.0000   0.0224   0.0000   0.0000   0.0000  -0.0236
  12 C   :3d0   -0.0000   0.0121   0.0000  -0.0171   0.0048   0.0188   0.0000
  13 C   :3d1+   0.0002  -0.0000  -0.0101  -0.0000  -0.0000  -0.0000   0.0161
  14 C   :3d2+  -0.0000   0.0063  -0.0000   0.0095   0.0163  -0.0082  -0.0000
  15 C   :1s    -0.0000  -0.0073   0.0000  -0.0028  -0.0174   0.0122  -0.0000
  16 C   :1s    -0.0000   0.0131  -0.0000   0.0067   0.0374  -0.0321  -0.0000
  17 C   :1s     0.0000   0.0363  -0.0000   0.0171   0.0379  -0.0115   0.0000
  18 C   :2px   -0.0000   0.0215   0.0000  -0.2609  -0.2894   0.0790  -0.0000
  19 C   :2py   -0.0000   0.2520   0.0000  -0.0264  -0.0272  -0.3101  -0.0000
  20 C   :2pz    0.2913   0.0000   0.0647   0.0000  -0.0000  -0.0000   0.3170
  21 C   :2px    0.0000   0.0172   0.0000  -0.1293  -0.1679   0.0573  -0.0000
  22 C   :2py    0.0000   0.1328  -0.0000  -0.0024  -0.0184  -0.1693   0.0000
  23 C   :2pz    0.1364   0.0000   0.0463   0.0000  -0.0000  -0.0000   0.2083
  24 C   :3d2-   0.0000   0.0044   0.0000  -0.0067  -0.0161  -0.0180  -0.0000
  25 C   :3d1-  -0.0149  -0.0000  -0.0091  -0.0000   0.0000   0.0000  -0.0339
  26 C   :3d0   -0.0000  -0.0123   0.0000  -0.0040  -0.0028   0.0214  -0.0000
  27 C   :3d1+   0.0076   0.0000  -0.0083  -0.0000  -0.0000  -0.0000   0.0160
  28 C   :3d2+   0.0000  -0.0027  -0.0000   0.0067   0.0145  -0.0132   0.0000
  29 C   :1s     0.0000   0.0056  -0.0000   0.0100   0.0238   0.0213   0.0000
  30 C   :1s     0.0000  -0.0045   0.0000  -0.0228  -0.0453  -0.0432  -0.0000
  31 C   :1s    -0.0000  -0.0753   0.0000  -0.0421  -0.0308  -0.0825   0.0000
  32 C   :2px    0.0000  -0.2363   0.0000  -0.1371   0.2170   0.0035   0.0000
  33 C   :2py    0.0000  -0.1121  -0.0000   0.2636   0.0591   0.2740   0.0000
  34 C   :2pz    0.2565   0.0000  -0.3093  -0.0000  -0.0000  -0.0000  -0.1674
  35 C   :2px   -0.0000  -0.1111   0.0000  -0.0820   0.1381  -0.0018   0.0000
  36 C   :2py    0.0000  -0.0263  -0.0000   0.1596   0.0087   0.1654   0.0000
  37 C   :2pz    0.1403   0.0000  -0.1969  -0.0000  -0.0000   0.0000  -0.1222
  38 C   :3d2-  -0.0000   0.0095   0.0000  -0.0057  -0.0045  -0.0119  -0.0000
  39 C   :3d1-   0.0129   0.0000  -0.0260  -0.0000  -0.0000   0.0000  -0.0233
  40 C   :3d0    0.0000  -0.0021  -0.0000   0.0172  -0.0052   0.0157   0.0000
  41 C   :3d1+  -0.0077  -0.0000   0.0040   0.0000   0.0000  -0.0000   0.0008
  42 C   :3d2+  -0.0000  -0.0076   0.0000  -0.0073   0.0192  -0.0099   0.0000
  44 C   :1s    -0.0000  -0.0076   0.0000  -0.0025   0.0436  -0.0120   0.0000
  45 C   :1s     0.0000   0.0248  -0.0000   0.0354   0.0336  -0.0154  -0.0000
  46 C   :2px   -0.0000   0.1718  -0.0000   0.1779  -0.1667   0.0897  -0.0000
  47 C   :2py    0.0000  -0.1885   0.0000  -0.1486   0.1482  -0.0505  -0.0000
  48 C   :2pz    0.0383   0.0000  -0.0520  -0.0000  -0.0000  -0.0000  -0.0290
  49 C   :2px   -0.0000   0.0390  -0.0000   0.0430  -0.0506   0.0293   0.0000
  50 C   :2py    0.0000  -0.0784   0.0000  -0.0739   0.0518  -0.0306  -0.0000
  51 C   :2pz    0.0066  -0.0000  -0.0077  -0.0000   0.0000  -0.0000   0.0043
  52 C   :3d2-   0.0000  -0.0004   0.0000  -0.0095  -0.0010  -0.0067  -0.0000
  53 C   :3d1-   0.0015   0.0000  -0.0029  -0.0000  -0.0000   0.0000  -0.0026
  54 C   :3d0   -0.0000  -0.0022   0.0000  -0.0015   0.0019   0.0001   0.0000
  55 C   :3d1+  -0.0064   0.0000   0.0082   0.0000   0.0000   0.0000   0.0042
  56 C   :3d2+   0.0000  -0.0193   0.0000  -0.0215   0.0145  -0.0114  -0.0000
  58 O   :1s     0.0000  -0.0167  -0.0000   0.0044   0.0112   0.0055  -0.0000
  63 O   :2px    0.0000  -0.0288   0.0000  -0.0152   0.0260  -0.0041  -0.0000
  64 O   :2py   -0.0000   0.0221  -0.0000   0.0252  -0.0181   0.0111  -0.0000
  65 O   :2pz   -0.0055   0.0000   0.0066   0.0000  -0.0000   0.0000   0.0007
  66 O   :3d2-  -0.0000  -0.0001   0.0000   0.0004   0.0007   0.0001   0.0000
  67 O   :3d1-  -0.0007  -0.0000   0.0010   0.0000   0.0000  -0.0000   0.0007
  68 O   :3d0    0.0000   0.0003   0.0000  -0.0005  -0.0004  -0.0004   0.0000
  69 O   :3d1+  -0.0009  -0.0000   0.0015   0.0000   0.0000  -0.0000   0.0012
  70 O   :3d2+  -0.0000  -0.0059   0.0000  -0.0056   0.0056  -0.0025   0.0000
  71 H   :1s    -0.0947   0.0645  -0.1656  -0.1030   0.0139   0.1028   0.1441
  72 H   :1s    -0.0669   0.0471  -0.1329  -0.0809   0.0066   0.1039   0.1406
  73 H   :1s     0.0000  -0.1610  -0.0000   0.0473  -0.2033  -0.1195  -0.0000
  74 H   :1s    -0.0000  -0.1155  -0.0000   0.0369  -0.1770  -0.1061  -0.0000
  75 H   :1s     0.0947   0.0645   0.1656  -0.1030   0.0139   0.1028  -0.1441
  76 H   :1s     0.0669   0.0471   0.1329  -0.0809   0.0066   0.1039  -0.1406
  77 H   :1s     0.1409  -0.0762   0.0348  -0.0233  -0.0170   0.1267   0.1914
  78 H   :1s     0.0972  -0.0537   0.0258  -0.0135  -0.0199   0.1261   0.1855
  79 H   :1s    -0.1409  -0.0762  -0.0348  -0.0233  -0.0170   0.1267  -0.1914
  80 H   :1s    -0.0972  -0.0537  -0.0258  -0.0135  -0.0199   0.1261  -0.1855
  81 H   :1s    -0.1244  -0.0132   0.1650   0.1064  -0.0328   0.0938   0.1054
  82 H   :1s    -0.0787  -0.0048   0.1230   0.0828  -0.0264   0.0964   0.1031
  83 H   :1s     0.1244  -0.0132  -0.1650   0.1064  -0.0328   0.0938  -0.1054
  84 H   :1s     0.0787  -0.0048  -0.1230   0.0828  -0.0264   0.0964  -0.1031
  85 H   :1s    -0.0000   0.1400  -0.0000   0.1382  -0.1058   0.0605   0.0000
  86 H   :1s    -0.0000   0.1163  -0.0000   0.1321  -0.1053   0.0715   0.0000

    Orbital        15       16       17       18       19       20       21
   1 C   :1s    -0.0001   0.0015   0.0025  -0.0025   0.0000  -0.0021   0.0000
   2 C   :1s     0.0004  -0.0031  -0.0043   0.0028   0.0000   0.0035   0.0000
   3 C   :1s    -0.0009  -0.0037  -0.0162   0.0254   0.0000   0.0131  -0.0000
   4 C   :2px    0.0010  -0.0067  -0.0148   0.0105  -0.0000   0.0069  -0.0000
   5 C   :2py   -0.0006   0.0003   0.0024  -0.0001   0.0000   0.0015   0.0000
   6 C   :2pz    0.0000   0.0000  -0.0000  -0.0000  -0.0048  -0.0000   0.0031
   7 C   :2px    0.0002  -0.0045  -0.0137   0.0155   0.0000   0.0091  -0.0000
   8 C   :2py    0.0004  -0.0008   0.0030  -0.0032  -0.0000   0.0054  -0.0000
   9 C   :2pz    0.0000   0.0000  -0.0000  -0.0000  -0.0050  -0.0000  -0.0846
  10 C   :3d2-  -0.0000   0.0004   0.0013  -0.0010   0.0000  -0.0013  -0.0000
  11 C   :3d1-   0.0000   0.0000  -0.0000  -0.0000  -0.0001  -0.0000  -0.0047
  12 C   :3d0    0.0000  -0.0001   0.0002  -0.0000  -0.0000   0.0006  -0.0000
  13 C   :3d1+  -0.0000   0.0000   0.0000  -0.0000   0.0005  -0.0000  -0.0046
  14 C   :3d2+  -0.0000  -0.0001  -0.0003   0.0002   0.0000   0.0002  -0.0000
  15 C   :1s     0.0001  -0.0024  -0.0047   0.0052  -0.0000   0.0040  -0.0000
  16 C   :1s    -0.0004   0.0045   0.0138  -0.0123   0.0000  -0.0017  -0.0000
  17 C   :1s    -0.0011   0.0061   0.0197  -0.0191  -0.0000  -0.0652   0.0000
  18 C   :2px   -0.0019   0.0089   0.0277  -0.0168   0.0000  -0.0115   0.0000
  19 C   :2py   -0.0023   0.0038   0.0239  -0.0107  -0.0000  -0.0216   0.0000
  20 C   :2pz   -0.0000   0.0000   0.0000   0.0000   0.0032  -0.0000  -0.0149
  21 C   :2px   -0.0031   0.0081   0.0047   0.0079   0.0000  -0.0315   0.0000
  22 C   :2py   -0.0012   0.0019   0.0153  -0.0088   0.0000  -0.0412   0.0000
  23 C   :2pz   -0.0000  -0.0000   0.0000   0.0000  -0.0005   0.0000   0.0816
  24 C   :3d2-  -0.0002   0.0001   0.0009   0.0003   0.0000  -0.0006   0.0000
  25 C   :3d1-   0.0000  -0.0000  -0.0000  -0.0000   0.0012  -0.0000  -0.0098
  26 C   :3d0    0.0000   0.0004  -0.0001  -0.0007   0.0000   0.0009  -0.0000
  27 C   :3d1+  -0.0000  -0.0000  -0.0000   0.0000   0.0000   0.0000   0.0037
  28 C   :3d2+   0.0001  -0.0012  -0.0020   0.0019  -0.0000   0.0021   0.0000
  29 C   :1s    -0.0008   0.0072   0.0113  -0.0066   0.0000  -0.0203   0.0000
  30 C   :1s     0.0013  -0.0145  -0.0215   0.0138   0.0000   0.0315   0.0000
  31 C   :1s     0.0032  -0.0033  -0.0162   0.0129  -0.0000   0.1851  -0.0000
  32 C   :2px    0.0037  -0.0397  -0.0529   0.0337  -0.0000   0.0736  -0.0000
  33 C   :2py    0.0028   0.0070  -0.0207  -0.0028   0.0000  -0.0010  -0.0000
  34 C   :2pz    0.0000  -0.0000  -0.0000  -0.0000   0.0423   0.0000   0.0896
  35 C   :2px    0.0029  -0.0140  -0.0187   0.0263  -0.0000   0.0625  -0.0000
  36 C   :2py    0.0016  -0.0001  -0.0106  -0.0016  -0.0000  -0.0553   0.0000
  37 C   :2pz    0.0000   0.0000  -0.0000  -0.0000   0.0642  -0.0000   0.1653
  38 C   :3d2-  -0.0001   0.0021   0.0046  -0.0051   0.0000  -0.0028   0.0000
  39 C   :3d1-   0.0000  -0.0000  -0.0000  -0.0000   0.0058   0.0000  -0.0147
  40 C   :3d0    0.0001   0.0019  -0.0016   0.0011   0.0000   0.0010   0.0000
  41 C   :3d1+  -0.0000  -0.0000   0.0000   0.0000  -0.0095  -0.0000   0.0290
  42 C   :3d2+   0.0004  -0.0034  -0.0000  -0.0019  -0.0000   0.0013  -0.0000
  43 C   :1s     0.0011   1.0113  -0.0557   0.0767  -0.0000   0.0000  -0.0000
  44 C   :1s     0.0023  -0.0370   0.1021  -0.1782  -0.0000   0.0081  -0.0000
  45 C   :1s    -0.0052  -0.0619  -0.0441  -0.0456   0.0000  -0.0182   0.0000
  46 C   :2px   -0.0026   0.0281   0.1841  -0.2067  -0.0000   0.0333   0.0000
  47 C   :2py    0.0012   0.0286   0.1718  -0.2125   0.0000  -0.0339  -0.0000
  48 C   :2pz    0.0000  -0.0000  -0.0000  -0.0000  -0.3115  -0.0000  -0.4301
  49 C   :2px   -0.0031   0.0147   0.0072  -0.0198  -0.0000   0.0596  -0.0000
  50 C   :2py   -0.0043   0.0182  -0.0041  -0.0192   0.0000  -0.0019   0.0000
  51 C   :2pz    0.0000  -0.0000  -0.0000  -0.0000  -0.2079  -0.0000  -0.7690
  52 C   :3d2-   0.0004   0.0029   0.0339  -0.0199  -0.0000   0.0005  -0.0000
  53 C   :3d1-   0.0000  -0.0000  -0.0000  -0.0000  -0.0256  -0.0000   0.0254
  54 C   :3d0   -0.0003   0.0022  -0.0114   0.0077  -0.0000   0.0005  -0.0000
  55 C   :3d1+  -0.0000   0.0000   0.0000  -0.0000  -0.0274  -0.0000   0.0089
  56 C   :3d2+   0.0002   0.0007  -0.0002   0.0001  -0.0000   0.0459   0.0000
  57 O   :1s    -0.9960   0.0026  -0.2097  -0.0873   0.0000   0.0010   0.0000
  58 O   :1s    -0.0226  -0.0019   0.4603   0.2068  -0.0000   0.0019   0.0000
  59 O   :1s     0.0126  -0.0039   0.4533   0.3384  -0.0000  -0.0257  -0.0000
  60 O   :2px    0.0015   0.0007  -0.0879   0.3779  -0.0000   0.4511  -0.0000
  61 O   :2py    0.0014   0.0007  -0.0894   0.3699   0.0000  -0.4590   0.0000
  62 O   :2pz    0.0000  -0.0000  -0.0000  -0.0000  -0.5033  -0.0000   0.3785
  63 O   :2px   -0.0027   0.0002  -0.0405   0.2191   0.0000   0.3354   0.0000
  64 O   :2py   -0.0027  -0.0002  -0.0379   0.2144   0.0000  -0.3322  -0.0000
  65 O   :2pz    0.0000   0.0000   0.0000  -0.0000  -0.3629  -0.0000   0.5287
  66 O   :3d2-   0.0001  -0.0009   0.0113  -0.0263  -0.0000   0.0006  -0.0000
  67 O   :3d1-  -0.0000   0.0000   0.0000   0.0000   0.0292   0.0000  -0.0002
  68 O   :3d0    0.0001   0.0004  -0.0066   0.0129   0.0000   0.0005   0.0000
  69 O   :3d1+  -0.0000  -0.0000  -0.0000   0.0000   0.0294   0.0000  -0.0003
  70 O   :3d2+   0.0001   0.0001   0.0003  -0.0010   0.0000  -0.0293  -0.0000
  71 H   :1s    -0.0002  -0.0001   0.0007   0.0004   0.0026   0.0019  -0.0024
  72 H   :1s    -0.0002   0.0005   0.0002  -0.0003  -0.0008   0.0015  -0.0347
  73 H   :1s    -0.0001   0.0017   0.0043  -0.0039   0.0000  -0.0046   0.0000
  74 H   :1s    -0.0002   0.0027   0.0077  -0.0070  -0.0000  -0.0104  -0.0000
  75 H   :1s    -0.0002  -0.0001   0.0007   0.0004  -0.0026   0.0019   0.0024
  76 H   :1s    -0.0002   0.0005   0.0002  -0.0003   0.0008   0.0015   0.0347
  77 H   :1s     0.0004   0.0021   0.0008  -0.0041  -0.0020   0.0021  -0.0353
  78 H   :1s     0.0005   0.0017  -0.0013  -0.0027  -0.0061  -0.0021   0.0111
  79 H   :1s     0.0004   0.0021   0.0008  -0.0041   0.0020   0.0021   0.0353
  80 H   :1s     0.0005   0.0017  -0.0013  -0.0027   0.0061  -0.0021  -0.0111
  81 H   :1s     0.0009   0.0028  -0.0098   0.0029  -0.0363   0.0061  -0.0927
  82 H   :1s     0.0005   0.0051  -0.0025   0.0072  -0.0275  -0.0158   0.0314
  83 H   :1s     0.0009   0.0028  -0.0098   0.0029   0.0363   0.0061   0.0927
  84 H   :1s     0.0005   0.0051  -0.0025   0.0072   0.0275  -0.0158  -0.0314
  85 H   :1s    -0.0001  -0.0328  -0.0297   0.0262  -0.0000  -0.0623  -0.0000
  86 H   :1s    -0.0012  -0.0099  -0.0318   0.0512   0.0000  -0.1294  -0.0000

    Orbital        22       23       24       25       26       27       28
   1 C   :1s     0.0123  -0.0038  -0.0069  -0.0000  -0.0322   0.0046  -0.0004
   2 C   :1s     0.1055  -0.0746   0.0204  -0.0000  -0.1684   0.0765  -0.0534
   3 C   :1s    -0.6113   0.4747   0.1469   0.0000   1.5802  -0.1024  -0.2264
   4 C   :2px   -0.0111  -0.0182   0.0413   0.0000   0.1420   0.0402  -0.0678
   5 C   :2py    0.0162  -0.0038   0.0255  -0.0000   0.0318   0.0432  -0.0479
   6 C   :2pz    0.0000  -0.0000   0.0000   0.0135  -0.0000  -0.0000  -0.0000
   7 C   :2px   -0.2717   0.2624   0.0405   0.0000   0.5291  -0.1744   0.0265
   8 C   :2py    0.0555  -0.1144  -0.0427   0.0000  -0.2256  -0.2299   0.2387
   9 C   :2pz   -0.0000   0.0000  -0.0000  -0.0865   0.0000   0.0000   0.0000
  10 C   :3d2-   0.0157  -0.0136   0.0108  -0.0000  -0.0097   0.0002  -0.0005
  11 C   :3d1-  -0.0000   0.0000  -0.0000  -0.0086   0.0000   0.0000   0.0000
  12 C   :3d0    0.0225  -0.0193  -0.0009  -0.0000  -0.0239  -0.0047  -0.0013
  13 C   :3d1+  -0.0000   0.0000  -0.0000  -0.0025   0.0000   0.0000   0.0000
  14 C   :3d2+  -0.0203   0.0129   0.0010   0.0000   0.0708  -0.0162  -0.0064
  15 C   :1s    -0.0050  -0.0291   0.0023   0.0000   0.0810  -0.0009  -0.0204
  16 C   :1s    -0.0003  -0.1458   0.0161   0.0000   0.3832  -0.0234  -0.1347
  17 C   :1s    -0.0812   0.4435  -0.1981  -0.0000  -3.1582   0.1469   1.3085
  18 C   :2px    0.0720  -0.0461  -0.0319  -0.0000  -0.2666  -0.0185   0.0676
  19 C   :2py   -0.0157   0.0340  -0.0294  -0.0000  -0.0461   0.0016   0.0361
  20 C   :2pz   -0.0000   0.0000  -0.0000  -0.0059   0.0000   0.0000   0.0000
  21 C   :2px   -0.6988   0.8923   0.0590   0.0000   0.4152   0.0632   0.0495
  22 C   :2py   -0.2206   0.1964  -0.1705  -0.0000  -1.2775  -0.0568   0.6612
  23 C   :2pz    0.0000  -0.0000   0.0000   0.0378  -0.0000  -0.0000  -0.0000
  24 C   :3d2-  -0.0393   0.0569   0.0030  -0.0000  -0.0521   0.0075   0.0195
  25 C   :3d1-   0.0000  -0.0000   0.0000  -0.0151  -0.0000  -0.0000  -0.0000
  26 C   :3d0   -0.0239  -0.0002   0.0004   0.0000   0.1216   0.0076  -0.0382
  27 C   :3d1+   0.0000  -0.0000   0.0000   0.0138  -0.0000  -0.0000  -0.0000
  28 C   :3d2+   0.0512  -0.0202   0.0357  -0.0000  -0.0502   0.0118  -0.0425
  29 C   :1s    -0.0345   0.0200  -0.1139   0.0000  -0.0153   0.0007   0.0204
  30 C   :1s    -0.1607  -0.1697   0.0185  -0.0000   0.0410   0.3795  -0.0917
  31 C   :1s     1.1084   0.2745   2.6995   0.0000   0.5672  -1.2142   0.6083
  32 C   :2px    0.1252  -0.0960   0.6527  -0.0000   0.1533   0.2809  -0.2525
  33 C   :2py   -0.0697  -0.0882  -0.1694   0.0000   0.3349  -0.0488  -0.0860
  34 C   :2pz    0.0000  -0.0000   0.0000   0.0337  -0.0000  -0.0000  -0.0000
  35 C   :2px   -0.0857   0.2236   0.8596  -0.0000  -1.3607  -0.8855   1.6637
  36 C   :2py   -0.6387   0.4261   0.0988  -0.0000  -2.0374   0.0450   1.2807
  37 C   :2pz   -0.0000   0.0000  -0.0000   0.0818   0.0000   0.0000   0.0000
  38 C   :3d2-  -0.0665  -0.0530  -0.0078   0.0000   0.0580  -0.0307   0.0143
  39 C   :3d1-  -0.0000   0.0000  -0.0000  -0.0015   0.0000   0.0000   0.0000
  40 C   :3d0   -0.0384   0.0116  -0.0524  -0.0000  -0.1398   0.0034   0.1057
  41 C   :3d1+  -0.0000   0.0000  -0.0000  -0.0277   0.0000   0.0000   0.0000
  42 C   :3d2+  -0.0365   0.0355   0.1944  -0.0000  -0.1165  -0.0335   0.0170
  43 C   :1s     0.0857  -0.0642   0.0985  -0.0000  -0.0092  -0.0480  -0.0158
  44 C   :1s    -0.0659  -0.0853   0.1492   0.0000  -0.3714   0.7486  -0.1879
  45 C   :1s    -1.3566   2.1017  -1.7999   0.0000   1.6362   0.5811  -0.4383
  46 C   :2px   -0.1267   0.0822   0.0952  -0.0000  -0.0197   0.7076  -0.5337
  47 C   :2py    0.3406   0.0349  -0.1608   0.0000   0.1817   0.5829   0.8863
  48 C   :2pz    0.0000  -0.0000   0.0000   1.0756  -0.0000   0.0000   0.0000
  49 C   :2px    0.3343   1.7256   1.9680  -0.0000   0.4954  -0.9084   1.2343
  50 C   :2py    1.4495   1.0262  -1.0591   0.0000   0.4492   0.1207  -3.0839
  51 C   :2pz    0.0000  -0.0000  -0.0000  -1.2124  -0.0000  -0.0000  -0.0000
  52 C   :3d2-   0.0156   0.0160  -0.0633   0.0000   0.0890  -0.1220  -0.0797
  53 C   :3d1-  -0.0000   0.0000  -0.0000   0.0202   0.0000   0.0000   0.0000
  54 C   :3d0   -0.0050   0.0085  -0.0960   0.0000   0.0299   0.0196   0.0582
  55 C   :3d1+  -0.0000  -0.0000  -0.0000   0.0087  -0.0000  -0.0000  -0.0000
  56 C   :3d2+   0.0123   0.0121   0.0736  -0.0000   0.0349   0.0438  -0.0829
  57 O   :1s     0.0162   0.1061  -0.0210   0.0000   0.0169   0.0598  -0.0208
  58 O   :1s     0.0194  -0.1745   0.0806  -0.0000   0.0603  -0.2048   0.0176
  59 O   :1s    -0.6061  -2.0867   0.1090  -0.0000  -0.9305  -0.1289   0.9093
  60 O   :2px    0.0158   0.0866  -0.1916   0.0000  -0.2623   0.1539   0.0555
  61 O   :2py   -0.0540   0.1048   0.0964   0.0000   0.1315   0.1419   0.2640
  62 O   :2pz    0.0000  -0.0000   0.0000   0.0460   0.0000  -0.0000   0.0000
  63 O   :2px    0.2440   0.6020  -0.5030   0.0000   0.3293   0.5536  -0.5146
  64 O   :2py   -0.0343   0.7755   0.2068   0.0000   0.2792   0.4415  -0.1379
  65 O   :2pz   -0.0000   0.0000  -0.0000   0.0932   0.0000   0.0000   0.0000
  66 O   :3d2-  -0.0158  -0.0538  -0.0161   0.0000  -0.0103   0.1439   0.0489
  67 O   :3d1-  -0.0000   0.0000  -0.0000  -0.0603   0.0000   0.0000   0.0000
  68 O   :3d0    0.0034   0.0327  -0.0230   0.0000   0.0493  -0.0740  -0.0586
  69 O   :3d1+   0.0000  -0.0000  -0.0000  -0.0666   0.0000  -0.0000  -0.0000
  70 O   :3d2+   0.0097   0.0041  -0.0207   0.0000  -0.0247  -0.0143   0.1062
  71 H   :1s     0.0216  -0.0244   0.0078  -0.0161  -0.0316   0.0390  -0.0202
  72 H   :1s     0.0330   0.0426   0.0213  -0.0138  -0.0744   0.0244  -0.0340
  73 H   :1s     0.0232  -0.0163  -0.0174  -0.0000  -0.0703  -0.0243   0.0284
  74 H   :1s    -0.0147   0.0354  -0.0722   0.0000  -0.2560  -0.1557   0.2050
[...]
  16 C   :1s     0.0000   0.3011   0.0219   0.0000   1.3327   0.2297   1.4366
  17 C   :1s    -0.0000  -0.0341  -0.4125  -0.0000  -2.3526  -0.7470  -3.9591
  18 C   :2px   -0.0000  -0.0573  -0.0212   0.0000   0.1210   0.1021   0.0156
  19 C   :2py    0.0000   0.0566   0.0064  -0.0000  -0.4053  -0.1574   0.0312
  20 C   :2pz   -0.1558   0.0000  -0.0000  -0.4291   0.0000  -0.0000  -0.0000
  21 C   :2px   -0.0000  -0.2167  -0.0038  -0.0000  -0.4577  -0.0481  -0.5562
  22 C   :2py    0.0000   0.3514   0.0045   0.0000   0.6361   0.0848  -0.5909
  23 C   :2pz    0.1074  -0.0000   0.0000   0.3776  -0.0000   0.0000   0.0000
  24 C   :3d2-   0.0000   0.0785   0.0089   0.0000   0.0623   0.0229  -0.1608
  25 C   :3d1-  -0.0127   0.0000  -0.0000  -0.1581   0.0000  -0.0000   0.0000
  26 C   :3d0    0.0000   0.0120   0.0772  -0.0000  -0.1042  -0.0188  -0.0455
  27 C   :3d1+   0.1244  -0.0000  -0.0000   0.0184  -0.0000   0.0000  -0.0000
  28 C   :3d2+   0.0000   0.0095   0.0585  -0.0000   0.0583  -0.0432  -0.0420
  29 C   :1s     0.0000   0.0084   0.0417  -0.0000   0.0256  -0.0118  -0.0576
  30 C   :1s    -0.0000   1.0604  -1.0966   0.0000   0.2773  -0.0120  -1.1342
  31 C   :1s     0.0000  -2.2103   2.0031  -0.0000  -0.2155   0.0569   3.5477
  32 C   :2px    0.0000  -0.1981   0.2817  -0.0000  -0.0417   0.0148   0.0466
  33 C   :2py   -0.0000   0.2111  -0.4339   0.0000  -0.1405   0.1113  -0.1099
  34 C   :2pz    0.5095   0.0000   0.0000   0.4235  -0.0000   0.0000  -0.0000
  35 C   :2px    0.0000   0.6699  -0.3894   0.0000   0.2546  -0.1442  -1.2055
  36 C   :2py    0.0000  -0.4668   0.4919  -0.0000  -0.1070  -0.1334  -0.4203
  37 C   :2pz   -0.7127  -0.0000  -0.0000  -0.4134   0.0000   0.0000   0.0000
  38 C   :3d2-   0.0000   0.0633  -0.0512   0.0000   0.0601   0.0145  -0.1086
  39 C   :3d1-  -0.1528  -0.0000   0.0000  -0.0341   0.0000   0.0000   0.0000
  40 C   :3d0    0.0000   0.0073   0.1098  -0.0000   0.0622  -0.0659  -0.2435
  41 C   :3d1+   0.0594  -0.0000   0.0000   0.1259  -0.0000   0.0000  -0.0000
  42 C   :3d2+  -0.0000   0.0065  -0.0405   0.0000  -0.1075   0.0225   0.1659
  43 C   :1s    -0.0000   0.0001  -0.0104   0.0000  -0.0072   0.0044  -0.0131
  57 O   :1s     0.0000   0.0021  -0.0004   0.0000   0.0017  -0.0010  -0.0046
  58 O   :1s    -0.0000  -0.0169   0.0009  -0.0000  -0.0142   0.0099   0.0434
  61 O   :2py    0.0000   0.0163   0.0063   0.0000   0.0218  -0.0082   0.0052
  71 H   :1s    -0.4646   0.4938   0.3011   0.4800  -0.0457   0.3914   0.2562
  72 H   :1s     1.1230  -0.5290  -0.4979  -0.6269   0.3208  -0.9995   0.4278
  73 H   :1s     0.0000  -0.1730  -0.2447   0.0000   0.4367   0.4597   0.0348
  74 H   :1s     0.0000   1.4269   0.4112  -0.0000   0.1944  -1.2843  -0.2287
  75 H   :1s     0.4646   0.4938   0.3011  -0.4800  -0.0457   0.3914   0.2562
  76 H   :1s    -1.1230  -0.5290  -0.4979   0.6269   0.3208  -0.9995   0.4278
  77 H   :1s     0.1559   0.1879   0.0532   0.5136  -0.4355  -0.2113   0.3234
  78 H   :1s    -0.2572   0.1721   0.0735  -0.6713   1.1648   0.3168   0.4546
  79 H   :1s    -0.1559   0.1879   0.0532  -0.5136  -0.4355  -0.2113   0.3234
  80 H   :1s     0.2572   0.1721   0.0735   0.6713   1.1648   0.3168   0.4546
  81 H   :1s     0.4895  -0.0746   0.5612   0.3226   0.3008  -0.2195  -0.3045
  82 H   :1s    -0.9218   0.7521  -1.0253  -0.4681  -0.1361   0.2275  -0.3545
  83 H   :1s    -0.4895  -0.0746   0.5612  -0.3226   0.3008  -0.2195  -0.3045
  84 H   :1s     0.9218   0.7521  -1.0253   0.4681  -0.1361   0.2275  -0.3545

    Orbital        71       72       73       74       75       76       77
   1 C   :1s     0.1131  -0.0000  -0.0279   0.0393   0.0120   0.0000  -0.0050
   2 C   :1s     1.4755  -0.0000  -0.3087   0.1020  -0.1090  -0.0000  -0.3938
   3 C   :1s    -4.9622   0.0000   0.9971  -1.4686  -0.2662   0.0000   1.1380
   4 C   :2px    0.0387  -0.0000  -0.0295  -0.2003  -0.1254  -0.0000  -0.0829
   5 C   :2py    0.0194   0.0000  -0.1176  -0.1057   0.0242   0.0000   0.0462
   6 C   :2pz   -0.0000  -0.1027  -0.0000  -0.0000   0.0000  -0.0612   0.0000
   7 C   :2px   -1.2105   0.0000   0.2302  -0.3341  -0.0016   0.0000   0.5224
   8 C   :2py    0.1503   0.0000  -0.0209   0.6092  -0.0655   0.0000  -0.0329
   9 C   :2pz    0.0000  -0.2744  -0.0000   0.0000  -0.0000   0.6259  -0.0000
  10 C   :3d2-   0.0291  -0.0000   0.3044   0.3415  -0.3821  -0.0000  -0.0947
  11 C   :3d1-   0.0000   0.1688   0.0000  -0.0000  -0.0000   0.2420  -0.0000
  12 C   :3d0    0.0294  -0.0000   0.1875   0.2206  -0.2942  -0.0000  -0.1164
  13 C   :3d1+   0.0000   0.4824   0.0000  -0.0000  -0.0000   0.5593  -0.0000
  14 C   :3d2+  -0.0440  -0.0000   0.2327   0.4035  -0.1838   0.0000   0.3042
  15 C   :1s    -0.1052   0.0000  -0.0076  -0.0470  -0.0490  -0.0000   0.0400
  16 C   :1s    -1.4825   0.0000   0.0874  -0.5360  -0.3664  -0.0000   0.5559
  17 C   :1s     4.7335  -0.0000  -0.0493   2.0863   1.7020   0.0000  -2.0049
  18 C   :2px   -0.0901   0.0000   0.0537   0.1623   0.1836   0.0000   0.1921
  19 C   :2py   -0.0579   0.0000  -0.0521   0.0315   0.1190   0.0000   0.1690
  20 C   :2pz    0.0000  -0.0463   0.0000   0.0000   0.0000   0.0023  -0.0000
  21 C   :2px   -1.1271   0.0000   0.4424  -0.9511   0.2163   0.0000  -0.0214
  22 C   :2py    0.0472   0.0000   0.0339   0.1056   0.5932  -0.0000  -0.8496
  23 C   :2pz   -0.0000   0.3306   0.0000  -0.0000   0.0000  -1.2567   0.0000
  24 C   :3d2-  -0.0643   0.0000  -0.3779  -0.1926  -0.1786  -0.0000  -0.2899
  25 C   :3d1-  -0.0000  -0.1710  -0.0000  -0.0000  -0.0000   0.2134  -0.0000
  26 C   :3d0   -0.0681   0.0000  -0.2533  -0.0226  -0.0417   0.0000   0.1972
  27 C   :3d1+  -0.0000  -0.5529  -0.0000   0.0000   0.0000  -0.1276   0.0000
  28 C   :3d2+   0.0275   0.0000  -0.4108   0.1686   0.1559   0.0000   0.4234
  29 C   :1s    -0.0084   0.0000   0.0292   0.0156   0.0641   0.0000  -0.0551
  30 C   :1s    -0.5794   0.0000   0.4784   0.5164   0.5879   0.0000  -0.0223
  31 C   :1s     0.3908  -0.0000  -1.2077  -1.1140  -2.1721  -0.0000   1.3148
  32 C   :2px    0.1621  -0.0000  -0.0505  -0.0995  -0.1179  -0.0000  -0.1577
  33 C   :2py    0.2474  -0.0000  -0.0781  -0.0681   0.0010  -0.0000  -0.0646
  34 C   :2pz    0.0000   0.2243   0.0000   0.0000   0.0000   0.0301  -0.0000
  35 C   :2px   -0.1131   0.0000   0.3058   0.5135   0.6152   0.0000  -0.3726
  36 C   :2py    0.0669   0.0000  -0.0482   0.0133   0.2668   0.0000  -0.1565
  37 C   :2pz   -0.0000  -0.3303  -0.0000  -0.0000  -0.0000   0.4929  -0.0000
  38 C   :3d2-   0.0535  -0.0000   0.1795  -0.5139  -0.4372  -0.0000  -0.0636
  39 C   :3d1-   0.0000   0.2618  -0.0000  -0.0000  -0.0000  -0.1629   0.0000
  40 C   :3d0    0.2019  -0.0000   0.1742  -0.3408  -0.2595   0.0000   0.7021
  41 C   :3d1+   0.0000   0.3810   0.0000   0.0000   0.0000  -0.7619   0.0000
  42 C   :3d2+   0.0802  -0.0000   0.4127  -0.3467   0.6294   0.0000   0.0081
  43 C   :1s     0.0011   0.0000   0.0045  -0.0056   0.0049   0.0000  -0.0034
  57 O   :1s    -0.0001   0.0000  -0.0008   0.0032  -0.0002   0.0000   0.0009
  58 O   :1s     0.0020  -0.0000   0.0020  -0.0277  -0.0078  -0.0000  -0.0005
  61 O   :2py   -0.0019  -0.0000   0.0003   0.0037  -0.0159  -0.0000   0.0082
  71 H   :1s     0.4746  -0.1675  -0.0524   0.1274   0.0448   0.0794   0.0255
  72 H   :1s     0.4120  -0.0276  -0.1013  -0.0893   0.0289   0.1778  -0.0898
  73 H   :1s     0.4428  -0.0000  -0.2286   0.1777   0.0785   0.0000   0.0661
  74 H   :1s     0.3182  -0.0000  -0.0035   0.2962   0.0135   0.0000  -0.1427
  75 H   :1s     0.4746   0.1675  -0.0524   0.1274   0.0448  -0.0794   0.0255
  76 H   :1s     0.4120   0.0276  -0.1013  -0.0893   0.0289  -0.1778  -0.0898
  77 H   :1s    -0.4930  -0.0408  -0.1321  -0.1645  -0.1429   0.4275   0.0626
  78 H   :1s    -0.3999  -0.0689   0.0045  -0.0774  -0.0233   0.3023   0.0105
  79 H   :1s    -0.4930   0.0408  -0.1321  -0.1645  -0.1429  -0.4275   0.0626
  80 H   :1s    -0.3999   0.0689   0.0045  -0.0774  -0.0233  -0.3023   0.0105
  81 H   :1s    -0.1233   0.0788   0.2210   0.0897   0.3428   0.1234  -0.4092
  82 H   :1s    -0.1318  -0.1669   0.2149   0.1995   0.2395   0.0851   0.0038
  83 H   :1s    -0.1233  -0.0788   0.2210   0.0897   0.3428  -0.1234  -0.4092
  84 H   :1s    -0.1318   0.1669   0.2149   0.1995   0.2395  -0.0851   0.0038

    Orbital        78       79       80       81       82       83       84
   1 C   :1s     0.0181  -0.0000  -0.0035  -0.0000   0.0000  -0.0000  -0.0119
   2 C   :1s    -0.2867  -0.0000  -0.0844   0.0000   0.0000  -0.0000  -0.0281
   3 C   :1s     0.0047   0.0000   0.2988  -0.0000  -0.0000   0.0000   0.4652
   4 C   :2px   -0.1933  -0.0000   0.0305  -0.0000  -0.0000   0.0000   0.0682
   5 C   :2py    0.0161   0.0000   0.1183  -0.0000   0.0000  -0.0000  -0.0790
   6 C   :2pz    0.0000  -0.0245  -0.0000   0.1008   0.0670   0.0797  -0.0000
   7 C   :2px    0.1908   0.0000   0.3738   0.0000   0.0000   0.0000   0.2187
   8 C   :2py   -0.3500  -0.0000   0.4828   0.0000   0.0000  -0.0000  -0.2680
   9 C   :2pz    0.0000  -0.5593  -0.0000   0.2741   0.0062   0.2161  -0.0000
  10 C   :3d2-  -0.1710  -0.0000  -0.3006  -0.0000   0.0000   0.0000   0.6862
  11 C   :3d1-   0.0000  -0.4762  -0.0000   0.6297   0.2537   0.6714  -0.0000
  12 C   :3d0   -0.4542  -0.0000   0.5193   0.0000   0.0000  -0.0000  -0.6201
  13 C   :3d1+   0.0000  -0.4300   0.0000  -0.3140   0.1340  -0.5199   0.0000
  14 C   :3d2+   0.2844   0.0000   0.5485   0.0000  -0.0000   0.0000   0.2130
  15 C   :1s     0.0399   0.0000   0.0250  -0.0000  -0.0000   0.0000   0.0251
  16 C   :1s    -0.4080   0.0000  -0.1436  -0.0000   0.0000   0.0000  -0.0356
  17 C   :1s    -0.1858  -0.0000  -0.3116   0.0000  -0.0000  -0.0000  -0.4594
  18 C   :2px    0.1231   0.0000   0.0679   0.0000   0.0000   0.0000   0.0153
  19 C   :2py   -0.1565  -0.0000  -0.0493  -0.0000   0.0000  -0.0000  -0.1251
  20 C   :2pz    0.0000  -0.0151  -0.0000   0.0494   0.1265   0.0080  -0.0000
  21 C   :2px   -0.3001   0.0000   0.1136   0.0000  -0.0000   0.0000   0.3377
  22 C   :2py    0.5196   0.0000  -0.4935   0.0000  -0.0000  -0.0000  -0.3826
  23 C   :2pz   -0.0000   0.3043   0.0000   0.0374   0.2224  -0.1970   0.0000
  24 C   :3d2-  -0.0908  -0.0000   0.3483   0.0000   0.0000   0.0000   0.2425
  25 C   :3d1-  -0.0000  -0.2536   0.0000   0.1563  -1.0437  -0.0325   0.0000
  26 C   :3d0   -0.6983  -0.0000   0.1029   0.0000  -0.0000   0.0000   0.4311
  27 C   :3d1+   0.0000  -0.6198   0.0000   0.1249   0.3177  -0.5455   0.0000
  28 C   :3d2+   0.1139   0.0000   0.3313   0.0000   0.0000   0.0000   0.2549
  29 C   :1s    -0.0021   0.0000   0.0136   0.0000   0.0000  -0.0000  -0.0032
  30 C   :1s    -0.2099   0.0000  -0.0480   0.0000  -0.0000  -0.0000  -0.0073
  31 C   :1s     0.1546  -0.0000   0.2012  -0.0000   0.0000   0.0000   0.1954
  32 C   :2px    0.0956  -0.0000  -0.0499  -0.0000   0.0000  -0.0000  -0.1176
  33 C   :2py    0.0849  -0.0000   0.0102  -0.0000   0.0000  -0.0000  -0.0664
  34 C   :2pz   -0.0000   0.1103  -0.0000   0.1743   0.0262  -0.0980   0.0000
  35 C   :2px   -0.0019   0.0000  -0.1296   0.0000  -0.0000  -0.0000  -0.1657
  36 C   :2py   -0.2410  -0.0000  -0.2048   0.0000  -0.0000  -0.0000  -0.0804
  37 C   :2pz    0.0000   0.1691   0.0000   0.0049   0.0623   0.1003  -0.0000
  38 C   :3d2-   0.2600   0.0000   0.3559   0.0000  -0.0000   0.0000   0.3097
  39 C   :3d1-  -0.0000   0.2349  -0.0000   0.8455  -0.0975  -0.6154   0.0000
  40 C   :3d0   -0.1189  -0.0000  -0.1968  -0.0000   0.0000  -0.0000  -0.2071
  41 C   :3d1+  -0.0000  -0.5124   0.0000  -0.1706  -0.2456   0.0695  -0.0000
  42 C   :3d2+  -0.2010   0.0000   0.3784   0.0000   0.0000   0.0000   0.3009
  43 C   :1s    -0.0058   0.0000  -0.0004   0.0000  -0.0000   0.0000   0.0034
  57 O   :1s     0.0002   0.0000  -0.0024  -0.0000   0.0000  -0.0000  -0.0021
  58 O   :1s     0.0003  -0.0000   0.0176  -0.0000  -0.0000   0.0000   0.0161
  61 O   :2py    0.0160   0.0000   0.0045  -0.0000   0.0000  -0.0000  -0.0045
  71 H   :1s     0.2342  -0.2731  -0.2292   0.4252   0.1184   0.4696   0.3060
  72 H   :1s    -0.0107  -0.1086  -0.0059  -0.0222  -0.0283  -0.1389  -0.0549
  73 H   :1s    -0.0324   0.0000   0.6069   0.0000   0.0000  -0.0000  -0.5350
  74 H   :1s    -0.0706  -0.0000   0.0233   0.0000   0.0000   0.0000   0.0831
  75 H   :1s     0.2342   0.2731  -0.2292  -0.4252  -0.1184  -0.4696   0.3060
  76 H   :1s    -0.0107   0.1086  -0.0059   0.0222   0.0283   0.1389  -0.0549
  77 H   :1s     0.3775  -0.0642   0.0463   0.0023  -0.6127   0.1143  -0.0788
  78 H   :1s     0.0033  -0.0833  -0.1400  -0.0443   0.1592   0.0162  -0.0959
  79 H   :1s     0.3775   0.0642   0.0463  -0.0023   0.6127  -0.1143  -0.0788
  80 H   :1s     0.0033   0.0833  -0.1400   0.0443  -0.1592  -0.0162  -0.0959
  81 H   :1s     0.0467   0.2876   0.1897   0.4452   0.0328  -0.3107   0.1034
  82 H   :1s    -0.0144  -0.0469  -0.0412  -0.1696   0.0432   0.2078  -0.0005
  83 H   :1s     0.0467  -0.2876   0.1897  -0.4452  -0.0328   0.3107   0.1034
  84 H   :1s    -0.0144   0.0469  -0.0412   0.1696  -0.0432  -0.2078  -0.0005

    Orbital        85       86
   1 C   :1s    -0.0226   0.0475
   2 C   :1s     0.0679   0.0343
   3 C   :1s     0.3392  -1.0002
   4 C   :2px    0.2176  -0.2884
   5 C   :2py   -0.0483   0.0670
   7 C   :2px    0.3340  -0.6880
   8 C   :2py   -0.0919   0.1575
  10 C   :3d2-  -0.4917   0.2020
  12 C   :3d0   -0.2709   0.3604
  14 C   :3d2+   0.3585  -0.6158
  15 C   :1s     0.0539  -0.0024
  16 C   :1s    -0.0897   0.0209
  17 C   :1s    -0.8918   0.0078
  18 C   :2px    0.1541  -0.4041
  19 C   :2py   -0.2625  -0.1409
  21 C   :2px    0.0602  -1.0635
  22 C   :2py   -0.3447  -0.3887
  24 C   :3d2-  -0.5401  -0.7504
  26 C   :3d0    0.6981  -0.0293
  28 C   :3d2+  -0.4539   0.7307
  29 C   :1s    -0.0380  -0.0469
  30 C   :1s     0.0647  -0.1088
  31 C   :1s     0.6317   1.1147
  32 C   :2px   -0.0821  -0.1813
  33 C   :2py   -0.3189  -0.2276
  35 C   :2px   -0.1935  -0.3014
  36 C   :2py   -0.0965  -0.5647
  38 C   :3d2-   0.4112   0.5662
  40 C   :3d0   -0.3202  -0.3508
  42 C   :3d2+  -0.3006  -0.0966
  43 C   :1s     0.0003  -0.0094
  57 O   :1s    -0.0008  -0.0011
  58 O   :1s     0.0076   0.0130
  61 O   :2py    0.0026   0.0232
  71 H   :1s     0.0519  -0.0685
  72 H   :1s     0.0310   0.0075
  73 H   :1s     0.1878  -0.0553
  74 H   :1s    -0.0794  -0.0545
  75 H   :1s     0.0519  -0.0685
  76 H   :1s     0.0310   0.0075
  77 H   :1s    -0.2419   0.0112
  78 H   :1s     0.0695   0.0059
  79 H   :1s    -0.2419   0.0112
  80 H   :1s     0.0695   0.0059
  81 H   :1s     0.0510   0.0569
  82 H   :1s    -0.1123  -0.0212
  83 H   :1s     0.0510   0.0569
  84 H   :1s    -0.1123  -0.0212



 CPU and wall time for SELACT :      0.12      0.12 seconds



         =====================================
         Leaving selection of orbitals section
         =====================================





                             .-----------------------.
                             | End of Choact Section |
                             `-----------------------'



                    .------------------------------------------.
                    | Starting in Coupled Cluster Section (CC) |
                    `------------------------------------------'

  

 *******************************************************************************
 *******************************************************************************
 *                                                                             *
 *                                                                             *
 *                    START OF COUPLED CLUSTER CALCULATION                     *
 *                                                                             *
 *                                                                             *
 *******************************************************************************
 *******************************************************************************



 CCR12 ANSATZ =   0

 CCR12 APPROX =   0

   

 *******************************************************************
 *                                                                 *
 *<<<<<<<<<<                                             >>>>>>>>>>*
 *<<<<<<<<<< OUTPUT FROM COUPLED CLUSTER ENERGY PROGRAM  >>>>>>>>>>*
 *<<<<<<<<<<                                             >>>>>>>>>>*
 *                                                                 *
 *******************************************************************


             The Direct Coupled Cluster Energy Program
             -----------------------------------------


          Number of t1 amplitudes                 :       156
          Number of t2 amplitudes                 :     12246
          Total number of amplitudes in ccsd      :     12402

 Iter.  1: Coupled cluster MP2   energy :    -231.1937954727927718
     Conventional correlation energy:    -0.2126704869017431





             +-------------------------------------------------------+
             ! Final results from the Coupled Cluster energy program !
             +-------------------------------------------------------+



            Total SCF   energy:                  -230.9811249859

            Total MP2   energy:                  -231.1937954728


 *******************************************************************

 Ground state energy is target 

 Ecorr =                   -231.19379547279277176131

 *******************************************************************

 requested model not yet implemented
  

 *******************************************************************************
 *******************************************************************************
 *                                                                             *
 *                                                                             *
 *                   SUMMARY OF COUPLED CLUSTER CALCULATION                    *
 *                                                                             *
 *                                                                             *
 *******************************************************************************
 *******************************************************************************

                                                                                
                                                                                
            Total SCF   energy:                  -230.9811249859                
            Total MP2   energy:                  -231.1937954728                
  

 *******************************************************************************
 *******************************************************************************
 *                                                                             *
 *                                                                             *
 *                      END OF COUPLED CLUSTER CALCULATION                     *
 *                                                                             *
 *                                                                             *
 *******************************************************************************
 *******************************************************************************


 >>>> CPU and wall time for CC :       1.124       1.154

 
     Date and time (Linux)  : Sun Sep  8 20:46:16 2013
     Host name              : lpqlx131.ups-tlse.fr                    


                      .-------------------------------------.
                      | End of Coupled Cluster Section (CC) |
                      `-------------------------------------'

 >>>> Total CPU  time used in DALTON:   5.65 seconds
 >>>> Total wall time used in DALTON:   6.13 seconds

 
     Date and time (Linux)  : Sun Sep  8 20:46:16 2013
     Host name              : lpqlx131.ups-tlse.fr                    
