

     ************************************************************************
     *************** Dalton - An Electronic Structure Program ***************
     ************************************************************************

    This is output from DALTON (Release Dalton2013 patch 0)
   ----------------------------------------------------------------------------
    NOTE:
     
    Dalton is an experimental code for the evaluation of molecular
    properties using (MC)SCF, DFT, CI, and CC wave functions.
    The authors accept no responsibility for the performance of
    the code or for the correctness of the results.
     
    The code (in whole or part) is provided under a licence and
    is not to be reproduced for further distribution without
    the written permission of the authors or their representatives.
     
    See the home page "http://daltonprogram.org" for further information.
     
    If results obtained with this code are published,
    the appropriate citations would be both of:
     
       K. Aidas, C. Angeli, K. L. Bak, V. Bakken, R. Bast,
       L. Boman, O. Christiansen, R. Cimiraglia, S. Coriani,
       P. Dahle, E. K. Dalskov, U. Ekstroem, T. Enevoldsen,
       J. J. Eriksen, P. Ettenhuber, B. Fernandez, L. Ferrighi,
       H. Fliegl, L. Frediani, K. Hald, A. Halkier, C. Haettig,
       H. Heiberg, T. Helgaker, A. C. Hennum, H. Hettema,
       E. Hjertenaes, S. Hoest, I.-M. Hoeyvik, M. F. Iozzi,
       B. Jansik, H. J. Aa. Jensen, D. Jonsson, P. Joergensen,
       J. Kauczor, S. Kirpekar, T. Kjaergaard, W. Klopper,
       S. Knecht, R. Kobayashi, H. Koch, J. Kongsted, A. Krapp,
       K. Kristensen, A. Ligabue, O. B. Lutnaes, J. I. Melo,
       K. V. Mikkelsen, R. H. Myhre, C. Neiss, C. B. Nielsen,
       P. Norman, J. Olsen, J. M. H. Olsen, A. Osted,
       M. J. Packer, F. Pawlowski, T. B. Pedersen, P. F. Provasi,
       S. Reine, Z. Rinkevicius, T. A. Ruden, K. Ruud, V. Rybkin,
       P. Salek, C. C. M. Samson, A. Sanchez de Meras, T. Saue,
       S. P. A. Sauer, B. Schimmelpfennig, K. Sneskov,
       A. H. Steindal, K. O. Sylvester-Hvid, P. R. Taylor,
       A. M. Teale, E. I. Tellgren, D. P. Tew, A. J. Thorvaldsen,
       L. Thoegersen, O. Vahtras, M. A. Watson, D. J. D. Wilson,
       M. Ziolkowski and H. Agren.
       The Dalton quantum chemistry program system.
       WIREs Comput. Mol. Sci. 2013. doi: 10.1002/wcms.1172
    
    and
    
       Dalton, a Molecular Electronic Structure Program,
       Release DALTON2013.0 (2013), see http://daltonprogram.org
   ----------------------------------------------------------------------------

    Authors in alphabetical order (major contribution(s) in parenthesis):

  Kestutis Aidas,           Vilnius University,           Lithuania   (QM/MM)
  Celestino Angeli,         University of Ferrara,        Italy       (NEVPT2)
  Keld L. Bak,              UNI-C,                        Denmark     (AOSOPPA, non-adiabatic coupling, magnetic properties)
  Vebjoern Bakken,          University of Oslo,           Norway      (DALTON; geometry optimizer, symmetry detection)
  Radovan Bast,             KTH Stockholm                 Sweden      (DALTON installation and execution frameworks)
  Linus Boman,              NTNU,                         Norway      (Cholesky decomposition and subsystems)
  Ove Christiansen,         Aarhus University,            Denmark     (CC module)
  Renzo Cimiraglia,         University of Ferrara,        Italy       (NEVPT2)
  Sonia Coriani,            University of Trieste,        Italy       (CC module, MCD in RESPONS)
  Paal Dahle,               University of Oslo,           Norway      (Parallelization)
  Erik K. Dalskov,          UNI-C,                        Denmark     (SOPPA)
  Thomas Enevoldsen,        Univ. of Southern Denmark,    Denmark     (SOPPA)
  Janus J. Eriksen,         Aarhus University,            Denmark     (PE-MP2/SOPPA, TDA)
  Berta Fernandez,          U. of Santiago de Compostela, Spain       (doublet spin, ESR in RESPONS)
  Lara Ferrighi,            Aarhus University,            Denmark     (PCM Cubic response)
  Heike Fliegl,             University of Oslo,           Norway      (CCSD(R12))
  Luca Frediani,            UiT The Arctic U. of Norway,  Norway      (PCM)
  Bin Gao,                  UiT The Arctic U. of Norway,  Norway      (Gen1Int library)
  Christof Haettig,         Ruhr-University Bochum,       Germany     (CC module)
  Kasper Hald,              Aarhus University,            Denmark     (CC module)
  Asger Halkier,            Aarhus University,            Denmark     (CC module)
  Hanne Heiberg,            University of Oslo,           Norway      (geometry analysis, selected one-electron integrals)
  Trygve Helgaker,          University of Oslo,           Norway      (DALTON; ABACUS, ERI, DFT modules, London, and much more)
  Alf Christian Hennum,     University of Oslo,           Norway      (Parity violation)
  Hinne Hettema,            University of Auckland,       New Zealand (quadratic response in RESPONS; SIRIUS supersymmetry)
  Eirik Hjertenaes,         NTNU,                         Norway      (Cholesky decomposition)
  Maria Francesca Iozzi,    University of Oslo,           Norway      (RPA)
  Brano Jansik              Technical Univ. of Ostrava    Czech Rep.  (DFT cubic response)
  Hans Joergen Aa. Jensen,  Univ. of Southern Denmark,    Denmark     (DALTON; SIRIUS, RESPONS, ABACUS modules, London, and much more)
  Dan Jonsson,              UiT The Arctic U. of Norway,  Norway      (cubic response in RESPONS module)
  Poul Joergensen,          Aarhus University,            Denmark     (RESPONS, ABACUS, and CC modules)
  Joanna Kauczor,           Linkoeping University,        Sweden      (Complex polarization propagator (CPP) module)
  Sheela Kirpekar,          Univ. of Southern Denmark,    Denmark     (Mass-velocity & Darwin integrals)
  Wim Klopper,              KIT Karlsruhe,                Germany     (R12 code in CC, SIRIUS, and ABACUS modules)
  Stefan Knecht,            ETH Zurich,                   Switzerland (Parallel CI and MCSCF)
  Rika Kobayashi,           Australian National Univ.,    Australia   (DIIS in CC, London in MCSCF)
  Henrik Koch,              NTNU,                         Norway      (CC module, Cholesky decomposition)
  Jacob Kongsted,           Univ. of Southern Denmark,    Denmark     (Polarizable embedding, QM/MM)
  Andrea Ligabue,           University of Modena,         Italy       (CTOCD, AOSOPPA)
  Ola B. Lutnaes,           University of Oslo,           Norway      (DFT Hessian)
  Juan I. Melo,             University of Buenos Aires,   Argentina   (LRESC, Relativistic Effects on NMR Shieldings)
  Kurt V. Mikkelsen,        University of Copenhagen,     Denmark     (MC-SCRF and QM/MM)
  Rolf H. Myhre,            NTNU,                         Norway      (Cholesky, subsystems and ECC2)
  Christian Neiss,          Univ. Erlangen-Nuernberg,     Germany     (CCSD(R12))
  Christian B. Nielsen,     University of Copenhagen,     Denmark     (QM/MM)
  Patrick Norman,           Linkoeping University,        Sweden      (Cubic response and complex response in RESPONS)
  Jeppe Olsen,              Aarhus University,            Denmark     (SIRIUS CI/density modules)
  Jogvan Magnus H. Olsen,   Univ. of Southern Denmark,    Denmark     (Polarizable embedding, PE library, QM/MM)
  Anders Osted,             Copenhagen University,        Denmark     (QM/MM)
  Martin J. Packer,         University of Sheffield,      UK          (SOPPA)
  Filip Pawlowski,          Kazimierz Wielki University   Poland      (CC3)
  Thomas B. Pedersen,       University of Oslo,           Norway      (Cholesky decomposition)
  Patricio F. Provasi,      University of Northeastern,   Argentina   (Analysis of coupling constants in localized orbitals)
  Zilvinas Rinkevicius,     KTH Stockholm,                Sweden      (open-shell DFT, ESR)
  Elias Rudberg,            KTH Stockholm,                Sweden      (DFT grid and basis info)
  Torgeir A. Ruden,         University of Oslo,           Norway      (Numerical derivatives in ABACUS)
  Kenneth Ruud,             UiT The Arctic U. of Norway,  Norway      (DALTON; ABACUS magnetic properties and  much more)
  Pawel Salek,              KTH Stockholm,                Sweden      (DALTON; DFT code)
  Claire C. M. Samson       University of Karlsruhe       Germany     (Boys localization, r12 integrals in ERI)
  Alfredo Sanchez de Meras, University of Valencia,       Spain       (CC module, Cholesky decomposition)
  Trond Saue,               Paul Sabatier University,     France      (direct Fock matrix construction)
  Stephan P. A. Sauer,      University of Copenhagen,     Denmark     (SOPPA(CCSD), SOPPA prop., AOSOPPA, vibrational g-factors)
  Bernd Schimmelpfennig,    Forschungszentrum Karlsruhe,  Germany     (AMFI module)
  Kristian Sneskov,         Aarhus University,            Denmark     (QM/MM, PE-CC)
  Arnfinn H. Steindal,      UiT The Arctic U. of Norway,  Norway      (parallel QM/MM)
  K. O. Sylvester-Hvid,     University of Copenhagen,     Denmark     (MC-SCRF)
  Peter R. Taylor,          VLSCI/Univ. of Melbourne,     Australia   (Symmetry handling ABACUS, integral transformation)
  Andrew M. Teale,          University of Nottingham,     England     (DFT-AC, DFT-D)
  David P. Tew,             University of Bristol,        England     (CCSD(R12))
  Olav Vahtras,             KTH Stockholm,                Sweden      (triplet response, spin-orbit, ESR, TDDFT, open-shell DFT)
  David J. Wilson,          La Trobe University,          Australia   (DFT Hessian and DFT magnetizabilities)
  Hans Agren,               KTH Stockholm,                Sweden      (SIRIUS module, RESPONS, MC-SCRF solvation model)
 --------------------------------------------------------------------------------

     Date and time (Linux)  : Sun Sep  8 20:57:53 2013
     Host name              : lpqlx131.ups-tlse.fr                    

 * Work memory size             :    64000000 =  488.28 megabytes.

 * Directories for basis set searches:
   1) /home/bast/DALTON-2013.0-Source/build/test_dft_stex
   2) /home/bast/DALTON-2013.0-Source/build/basis


Compilation information
-----------------------

 Who compiled             | bast
 Host                     | lpqlx131.ups-tlse.fr
 System                   | Linux-3.8.5-201.fc18.x86_64
 CMake generator          | Unix Makefiles
 Processor                | x86_64
 64-bit integers          | OFF
 MPI                      | OFF
 Fortran compiler         | /usr/bin/gfortran
 Fortran compiler version | GNU Fortran (GCC) 4.7.2 20121109 (Red Hat 4.7.2-8)
 C compiler               | /usr/bin/gcc
 C compiler version       | gcc (GCC) 4.7.2 20121109 (Red Hat 4.7.2-8)
 C++ compiler             | /usr/bin/g++
 C++ compiler version     | g++ (GCC) 4.7.2 20121109 (Red Hat 4.7.2-8)
 Static linking           | OFF
 Last Git revision        | f34203295a86316e27f9e7b44f9b6769c4a046c0
 Configuration time       | 2013-09-08 20:31:27.952056


   Content of the .dal input file
 ----------------------------------

**DALTON                                          
.RUN WAVE FUNCTIONS                               
**WAVE FUNCTION                                   
.DFT                                              
 B3LYP                                            
*SCF INPUT                                        
.DOUBLY OCCUPIED                                  
 8 3 3 0                                          
.SINGLY OCCUPIED                                  
 1 0 0 0                                          
*ORBITAL INPUT                                    
.MOSTART                                          
 NEWORB                                           
.NOSUPS                                           
.REORDER                                          
 2 0 0 0                                          
 2 9 9 2                                          
.FREEZE                                           
 1 0 0 0                                          
 9                                                
**END OF DALTON INPUT                             


   Content of the .mol file
 ----------------------------

BASIS                                                                          
aug-cc-pCVTZ                                                                   
OCS                                                                            
===========                                                                    
Atomtypes=3 Angstrom Generators=2 X Y                                          
Charge=8.0 Atoms=1                                                             
O 0.000 0.000 -1.1239                                                          
Charge=6.0 Atoms=1                                                             
C 0.000 0.000 0.000                                                            
Charge=16.0 Atoms=1                                                            
S 0.0 0.0 1.5640                                                               


       *******************************************************************
       *********** Output from DALTON general input processing ***********
       *******************************************************************

 --------------------------------------------------------------------------------
   Overall default print level:    0
   Print level for DALTON.STAT:    1

    HERMIT 1- and 2-electron integral sections will be executed
    "Old" integral transformation used (limited to max 255 basis functions)
    Wave function sections will be executed (SIRIUS module)
 --------------------------------------------------------------------------------


   ****************************************************************************
   *************** Output of molecule and basis set information ***************
   ****************************************************************************


    The two title cards from your ".mol" input:
    ------------------------------------------------------------------------
 1: OCS                                                                     
 2: ===========                                                             
    ------------------------------------------------------------------------

  Coordinates are entered in Angstrom and converted to atomic units.
          - Conversion factor : 1 bohr = 0.52917721 A

  Atomic type no.    1
  --------------------
  Nuclear charge:   8.00000
  Number of symmetry independent centers:    1
  Number of basis sets to read;    1
  Basis set file used for this atomic type with Z =   8 :
     "/home/bast/DALTON-2013.0-Source/build/basis/aug-cc-pCVTZ"

  Atomic type no.    2
  --------------------
  Nuclear charge:   6.00000
  Number of symmetry independent centers:    1
  Number of basis sets to read;    1
  Basis set file used for this atomic type with Z =   6 :
     "/home/bast/DALTON-2013.0-Source/build/basis/aug-cc-pCVTZ"

  Atomic type no.    3
  --------------------
  Nuclear charge:  16.00000
  Number of symmetry independent centers:    1
  Number of basis sets to read;    1
  Basis set file used for this atomic type with Z =  16 :
     "/home/bast/DALTON-2013.0-Source/build/basis/aug-cc-pCVTZ"


                         SYMGRP: Point group information
                         -------------------------------

Point group: C2v

   * The point group was generated by:

      Reflection in the yz-plane
      Reflection in the xz-plane

   * Group multiplication table

        |  E   C2z  Oxz  Oyz
   -----+--------------------
     E  |  E   C2z  Oxz  Oyz
    C2z | C2z   E   Oyz  Oxz
    Oxz | Oxz  Oyz   E   C2z
    Oyz | Oyz  Oxz  C2z   E 

   * Character table

        |  E   C2z  Oxz  Oyz
   -----+--------------------
    A1  |   1    1    1    1
    B1  |   1   -1    1   -1
    B2  |   1   -1   -1    1
    A2  |   1    1   -1   -1

   * Direct product table

        | A1   B1   B2   A2 
   -----+--------------------
    A1  | A1   B1   B2   A2 
    B1  | B1   A1   A2   B2 
    B2  | B2   A2   A1   B1 
    A2  | A2   B2   B1   A1 


                                 Isotopic Masses
                                 ---------------

                           O          15.994915
                           C          12.000000
                           S          31.972072

                       Total mass:    59.966987 amu
                       Natural abundance:  93.749 %

 Center-of-mass coordinates (a.u.):    0.000000    0.000000    1.009280


  Atoms and basis sets
  --------------------

  Number of atom types :    3
  Total number of atoms:    3

  Basis set used is "aug-cc-pCVTZ" from the basis set library.

  label    atoms   charge   prim   cont     basis
  ----------------------------------------------------------------------
  O           1    8.0000    71    59      [13s8p4d2f|7s6p4d2f]                               
  C           1    6.0000    71    59      [13s8p4d2f|7s6p4d2f]                               
  S           1   16.0000   100    75      [18s12p5d3f|8s7p5d3f]                              
  ----------------------------------------------------------------------
  total:      3   30.0000   242   193
  ----------------------------------------------------------------------
  Spherical harmonic basis used.

  Threshold for neglecting AO integrals:  1.00D-12


  Cartesian Coordinates (a.u.)
  ----------------------------

  Total number of coordinates:    9
  O       :     1  x   0.0000000000    2  y   0.0000000000    3  z  -2.1238631919
  C       :     4  x   0.0000000000    5  y   0.0000000000    6  z   0.0000000000
  S       :     7  x   0.0000000000    8  y   0.0000000000    9  z   2.9555316595


  Symmetry Coordinates
  --------------------

  Number of coordinates in each symmetry:     3    3    3    0

  Symmetry  A1  ( 1)

    1   O     z    3
    2   C     z    6
    3   S     z    9

  Symmetry  B1  ( 2)

    4   O     x    1
    5   C     x    4
    6   S     x    7

  Symmetry  B2  ( 3)

    7   O     y    2
    8   C     y    5
    9   S     y    8


   Interatomic separations (in Angstrom):
   --------------------------------------

            O           C           S     
            ------      ------      ------
 O     :    0.000000
 C     :    1.123900    0.000000
 S     :    2.687900    1.564000    0.000000


  Max    interatomic separation is    2.6879 Angstrom (    5.0794 Bohr)
  between atoms    3 and    1, "S     " and "O     ".

  Min YX interatomic separation is    1.1239 Angstrom (    2.1239 Bohr)


  Bond distances (Angstrom):
  --------------------------

                  atom 1     atom 2       distance
                  ------     ------       --------
  bond distance:  C          O            1.123900
  bond distance:  S          C            1.564000


  Bond angles (degrees):
  ----------------------

                  atom 1     atom 2     atom 3         angle
                  ------     ------     ------         -----
  bond angle:     O          C          S            180.000




 Principal moments of inertia (u*A**2) and principal axes
 --------------------------------------------------------

   IA       0.000000          0.000000    0.000000    1.000000
   IB      81.305184          0.000000    1.000000    0.000000
   IC      81.305184          1.000000    0.000000    0.000000


 Rotational constants
 --------------------

 The molecule is linear.

               B =         6215.83 MHz     (    0.207338 cm-1)


@  Nuclear repulsion energy :   80.281643676153 Hartree


  Symmetry Orbitals
  -----------------

  Number of orbitals in each symmetry:          81   46   46   20


  Symmetry  A1 ( 1)

    1     O        1s         1
    2     O        1s         2
    3     O        1s         3
    4     O        1s         4
    5     O        1s         5
    6     O        1s         6
    7     O        1s         7
    8     O        2pz       10
    9     O        2pz       13
   10     O        2pz       16
   11     O        2pz       19
   12     O        2pz       22
   13     O        2pz       25
   14     O        3d0       28
   15     O        3d2+      30
   16     O        3d0       33
   17     O        3d2+      35
   18     O        3d0       38
   19     O        3d2+      40
   20     O        3d0       43
   21     O        3d2+      45
   22     O        4f0       49
   23     O        4f2+      51
   24     O        4f0       56
   25     O        4f2+      58
   26     C        1s        60
   27     C        1s        61
   28     C        1s        62
   29     C        1s        63
   30     C        1s        64
   31     C        1s        65
   32     C        1s        66
   33     C        2pz       69
   34     C        2pz       72
   35     C        2pz       75
   36     C        2pz       78
   37     C        2pz       81
   38     C        2pz       84
   39     C        3d0       87
   40     C        3d2+      89
   41     C        3d0       92
   42     C        3d2+      94
   43     C        3d0       97
   44     C        3d2+      99
   45     C        3d0      102
   46     C        3d2+     104
   47     C        4f0      108
   48     C        4f2+     110
   49     C        4f0      115
   50     C        4f2+     117
   51     S        1s       119
   52     S        1s       120
   53     S        1s       121
   54     S        1s       122
   55     S        1s       123
   56     S        1s       124
   57     S        1s       125
   58     S        1s       126
   59     S        2pz      129
   60     S        2pz      132
   61     S        2pz      135
   62     S        2pz      138
   63     S        2pz      141
   64     S        2pz      144
   65     S        2pz      147
   66     S        3d0      150
   67     S        3d2+     152
   68     S        3d0      155
   69     S        3d2+     157
   70     S        3d0      160
   71     S        3d2+     162
   72     S        3d0      165
   73     S        3d2+     167
   74     S        3d0      170
   75     S        3d2+     172
   76     S        4f0      176
   77     S        4f2+     178
   78     S        4f0      183
   79     S        4f2+     185
   80     S        4f0      190
   81     S        4f2+     192


  Symmetry  B1 ( 2)

   82     O        2px        8
   83     O        2px       11
   84     O        2px       14
   85     O        2px       17
   86     O        2px       20
   87     O        2px       23
   88     O        3d1+      29
   89     O        3d1+      34
   90     O        3d1+      39
   91     O        3d1+      44
   92     O        4f1+      50
   93     O        4f3+      52
   94     O        4f1+      57
   95     O        4f3+      59
   96     C        2px       67
   97     C        2px       70
   98     C        2px       73
   99     C        2px       76
  100     C        2px       79
  101     C        2px       82
  102     C        3d1+      88
  103     C        3d1+      93
  104     C        3d1+      98
  105     C        3d1+     103
  106     C        4f1+     109
  107     C        4f3+     111
  108     C        4f1+     116
  109     C        4f3+     118
  110     S        2px      127
  111     S        2px      130
  112     S        2px      133
  113     S        2px      136
  114     S        2px      139
  115     S        2px      142
  116     S        2px      145
  117     S        3d1+     151
  118     S        3d1+     156
  119     S        3d1+     161
  120     S        3d1+     166
  121     S        3d1+     171
  122     S        4f1+     177
  123     S        4f3+     179
  124     S        4f1+     184
  125     S        4f3+     186
  126     S        4f1+     191
  127     S        4f3+     193


  Symmetry  B2 ( 3)

  128     O        2py        9
  129     O        2py       12
  130     O        2py       15
  131     O        2py       18
  132     O        2py       21
  133     O        2py       24
  134     O        3d1-      27
  135     O        3d1-      32
  136     O        3d1-      37
  137     O        3d1-      42
  138     O        4f3-      46
  139     O        4f1-      48
  140     O        4f3-      53
  141     O        4f1-      55
  142     C        2py       68
  143     C        2py       71
  144     C        2py       74
  145     C        2py       77
  146     C        2py       80
  147     C        2py       83
  148     C        3d1-      86
  149     C        3d1-      91
  150     C        3d1-      96
  151     C        3d1-     101
  152     C        4f3-     105
  153     C        4f1-     107
  154     C        4f3-     112
  155     C        4f1-     114
  156     S        2py      128
  157     S        2py      131
  158     S        2py      134
  159     S        2py      137
  160     S        2py      140
  161     S        2py      143
  162     S        2py      146
  163     S        3d1-     149
  164     S        3d1-     154
  165     S        3d1-     159
  166     S        3d1-     164
  167     S        3d1-     169
  168     S        4f3-     173
  169     S        4f1-     175
  170     S        4f3-     180
  171     S        4f1-     182
  172     S        4f3-     187
  173     S        4f1-     189


  Symmetry  A2 ( 4)

  174     O        3d2-      26
  175     O        3d2-      31
  176     O        3d2-      36
  177     O        3d2-      41
  178     O        4f2-      47
  179     O        4f2-      54
  180     C        3d2-      85
  181     C        3d2-      90
  182     C        3d2-      95
  183     C        3d2-     100
  184     C        4f2-     106
  185     C        4f2-     113
  186     S        3d2-     148
  187     S        3d2-     153
  188     S        3d2-     158
  189     S        3d2-     163
  190     S        3d2-     168
  191     S        4f2-     174
  192     S        4f2-     181
  193     S        4f2-     188

  Symmetries of electric field:  B1 (2)  B2 (3)  A1 (1)

  Symmetries of magnetic field:  B2 (3)  B1 (2)  A2 (4)


                     .---------------------------------------.
                     | Starting in Integral Section (HERMIT) |
                     `---------------------------------------'



    *************************************************************************
    ****************** Output from HERMIT input processing ******************
    *************************************************************************



     ************************************************************************
     ************************** Output from HERINT **************************
     ************************************************************************


 Threshold for neglecting two-electron integrals:  1.00D-12
 Number of two-electron integrals written:    31358623 ( 17.9% )
 Megabytes written:                            359.075

 >>>  Time used in TWOINT     is  13.58 seconds
 >>>> Total CPU  time used in HERMIT:  13.78 seconds
 >>>> Total wall time used in HERMIT:  14.42 seconds


                        .----------------------------------.
                        | End of Integral Section (HERMIT) |
                        `----------------------------------'



                   .--------------------------------------------.
                   | Starting in Wave Function Section (SIRIUS) |
                   `--------------------------------------------'


 **********************************************************************
 *SIRIUS* a direct, restricted step, second order MCSCF program       *
 **********************************************************************

 
     Date and time (Linux)  : Sun Sep  8 20:58:08 2013
     Host name              : lpqlx131.ups-tlse.fr                    

 Title lines from ".mol" input file:
     OCS                                                                     
     ===========                                                             

 Print level on unit LUPRI =   2 is   0
 Print level on unit LUW4  =   2 is   5

@    Restricted, one open shell Kohn-Sham DFT calculation.

 Initial molecular orbitals are obtained according to
 ".MOSTART NEWORB" input option
 and reordered as requested with .REORDER or indirectly with .CORHOL

     Wave function specification
     ============================
@    For the wave function of type :      >>> KS-DFT <<<
@    Number of closed shell electrons          28
@    Number of electrons in active shells       1
@    Total charge of the molecule               1

@    Spin multiplicity and 2 M_S                2         1
     Total number of symmetries                 4
@    Reference state symmetry                   1
 
     This is a DFT calculation of type: B3LYP
 Weighted mixed functional:
               HF exchange:    0.20000
                       VWN:    0.19000
                       LYP:    0.81000
                     Becke:    0.72000
                    Slater:    0.80000

     Orbital specifications
     ======================
     Abelian symmetry species          All |    1    2    3    4
                                       --- |  ---  ---  ---  ---
@    Occupied SCF orbitals              14 |    8    3    3    0
@    Open shell SCF orbitals             1 |    1    0    0    0
     Secondary orbitals                178 |   72   43   43   20
     Total number of orbitals          193 |   81   46   46   20
     Number of basis functions         193 |   81   46   46   20

     Optimization information
     ========================
@    Number of configurations                 1
@    Number of orbital rotations            834
     ------------------------------------------
@    Total number of variables              835

     Maximum number of Fock   iterations      0
     Maximum number of DIIS   iterations     60
     Maximum number of QC-SCF iterations     60
     Threshold for SCF convergence     1.00D-05

@    Number of orbitals frozen with ".FREEZE"  1

     Orbital  Symmetry   No. in   Type
       no.              symmetry
         9         1         9   active   
 
     This is a DFT calculation of type: B3LYP
 Weighted mixed functional:
               HF exchange:    0.20000
                       VWN:    0.19000
                       LYP:    0.81000
                     Becke:    0.72000
                    Slater:    0.80000


 >>>>> DIIS optimization of Hartree-Fock <<<<<

 C1-DIIS algorithm; max error vectors =   10

 Iter      Total energy        Error norm    Delta(E)  DIIS dim.


                                  Start orbitals
                                  --------------


 Molecular orbitals for symmetry species  1
 ------------------------------------------

    Orbital         1        2        3        4        5        6        7
   1 O   :1s    -0.0002  -0.0075   0.0007   0.0006   0.0015   0.0247   0.0085
   2 O   :1s    -0.0006  -0.0997   0.0014   0.0024   0.0062  -0.7535  -0.1364
   3 O   :1s     0.0002   0.0082  -0.0010  -0.0006  -0.0016  -0.0114  -0.0085
   4 O   :1s    -0.0002  -0.0442  -0.0082   0.0017   0.0008   0.0514  -0.0076
   5 O   :1s    -0.0001  -0.0035   0.0002   0.0002   0.0007   0.0024   0.0025
   6 O   :1s     0.0000  -0.0005   0.0000   0.0000   0.0001   0.0006   0.0004
   7 O   :1s    -0.0006  -0.0282  -0.0030   0.0053  -0.0003  -0.0186  -0.0144
   8 O   :2pz    0.0000   0.3468  -0.0008  -0.0000   0.0001  -0.2819  -0.0003
   9 O   :2pz   -0.0002  -0.0279   0.0015   0.0005   0.0006   0.0159   0.0090
  10 O   :2pz    0.0003  -0.0426  -0.0047  -0.0034  -0.0026   0.0725   0.0014
  11 O   :2pz   -0.0000   0.0007   0.0000   0.0000  -0.0000  -0.0007   0.0001
  12 O   :2pz    0.0000   0.0002  -0.0000   0.0000   0.0000  -0.0002   0.0000
  13 O   :2pz   -0.0001   0.0002  -0.0010   0.0014  -0.0014   0.0038  -0.0038
  14 O   :3d0    0.0000   0.0003  -0.0000  -0.0000  -0.0000  -0.0004  -0.0001
  16 O   :3d0   -0.0000   0.0047   0.0000   0.0001   0.0001  -0.0083  -0.0001
  18 O   :3d0   -0.0000   0.0092   0.0016  -0.0001  -0.0003  -0.0217  -0.0010
  20 O   :3d0    0.0002  -0.0011  -0.0008  -0.0019  -0.0009   0.0050   0.0002
  22 O   :4f0   -0.0000   0.0018   0.0000   0.0000  -0.0001  -0.0042  -0.0004
  24 O   :4f0    0.0000   0.0022   0.0010  -0.0002   0.0001  -0.0041  -0.0012
  26 C   :1s     0.0001  -0.0034  -0.9979   0.0007  -0.0009   0.0457  -0.0132
  27 C   :1s     0.0002  -0.3074   0.0307   0.0019  -0.0060  -0.3557   0.4439
  28 C   :1s    -0.0002   0.0053  -0.0247  -0.0002   0.0016  -0.0253   0.0031
  29 C   :1s    -0.0009  -0.0406   0.0181   0.0160  -0.0242   0.0965  -0.0477
  30 C   :1s     0.0000  -0.0042   0.0062   0.0002  -0.0006   0.0097   0.0009
  31 C   :1s     0.0000  -0.0005   0.0091   0.0000  -0.0000   0.0016   0.0001
  32 C   :1s     0.0001  -0.0201   0.0070   0.0001  -0.0022  -0.0099   0.0395
  33 C   :2pz    0.0001  -0.4958   0.0016  -0.0009  -0.0016   0.3510   0.3877
  34 C   :2pz    0.0001   0.0335   0.0060  -0.0003  -0.0036  -0.0739  -0.0202
  35 C   :2pz   -0.0017   0.0990   0.0074   0.0178  -0.0054  -0.1587  -0.0949
  36 C   :2pz   -0.0000  -0.0019   0.0000   0.0000   0.0000   0.0020   0.0020
  37 C   :2pz    0.0000  -0.0003   0.0000  -0.0000  -0.0000   0.0003   0.0003
  38 C   :2pz    0.0000   0.0006   0.0013  -0.0003   0.0006  -0.0068   0.0065
  39 C   :3d0   -0.0000   0.0001   0.0000  -0.0000  -0.0000  -0.0006   0.0002
  41 C   :3d0    0.0000   0.0038  -0.0020  -0.0001  -0.0000  -0.0223   0.0087
  43 C   :3d0    0.0002   0.0017   0.0081  -0.0004  -0.0032  -0.0131   0.0117
  45 C   :3d0    0.0000  -0.0085  -0.0002   0.0001  -0.0031   0.0070   0.0007
  47 C   :4f0   -0.0000  -0.0127   0.0012   0.0002   0.0005   0.0098   0.0111
  49 C   :4f0   -0.0002  -0.0028   0.0011   0.0013   0.0030  -0.0029   0.0063
  51 S   :1s     0.9994  -0.0003  -0.0001   0.0083  -0.0003  -0.0002  -0.0014
  52 S   :1s     0.0017   0.0029  -0.0033  -0.9638   0.0012  -0.0013  -0.0337
  53 S   :1s    -0.0026   0.5619  -0.0097   0.0201  -0.0128  -0.0354   0.7103
  54 S   :1s     0.0025  -0.0023   0.0043  -0.0304   0.0022   0.0025   0.0170
  55 S   :1s     0.0030   0.1500  -0.0155  -0.0322   0.0344   0.0349  -0.1096
  56 S   :1s     0.0025  -0.0013  -0.0001  -0.0010  -0.0001   0.0000  -0.0022
  57 S   :1s    -0.0054   0.0082  -0.0025  -0.0095  -0.0022  -0.0012  -0.0021
  58 S   :1s     0.0002   0.0503  -0.0097  -0.0035   0.0026   0.0265  -0.0483
  59 S   :2pz   -0.0003  -0.0482   0.0051   0.0055   1.0050  -0.0023   0.0411
  60 S   :2pz    0.0003   0.5410   0.0191   0.0014  -0.0167   0.0164  -0.1683
  61 S   :2pz   -0.0001   0.0369  -0.0055   0.0001   0.0177   0.0029  -0.0288
  62 S   :2pz   -0.0009  -0.1135   0.0063   0.0117  -0.0085  -0.0286   0.0778
  63 S   :2pz    0.0002  -0.0007   0.0001   0.0002  -0.0076   0.0002   0.0006
  64 S   :2pz    0.0002   0.0055   0.0002   0.0003  -0.0087  -0.0004  -0.0015
  65 S   :2pz   -0.0000  -0.0037   0.0012   0.0006  -0.0004  -0.0037   0.0100
  66 S   :3d0    0.0000  -0.0003  -0.0000  -0.0000  -0.0002  -0.0000   0.0003
  68 S   :3d0    0.0000  -0.0073   0.0001  -0.0004  -0.0006  -0.0003   0.0059
  70 S   :3d0    0.0000  -0.0402  -0.0009  -0.0006  -0.0017  -0.0043   0.0340
  72 S   :3d0   -0.0001  -0.0164  -0.0058  -0.0002   0.0059  -0.0006   0.0103
  74 S   :3d0    0.0002   0.0035  -0.0030  -0.0029   0.0034   0.0051  -0.0102
  76 S   :4f0   -0.0000   0.0002   0.0000  -0.0000   0.0001   0.0000  -0.0002
  78 S   :4f0    0.0000   0.0103   0.0006   0.0002   0.0002   0.0007  -0.0099
  80 S   :4f0    0.0000  -0.0042   0.0015  -0.0001  -0.0021  -0.0010   0.0066

    Orbital         8        9       10       11       12       13       14
   1 O   :1s     0.0046  -0.9974   0.0019  -0.0059   0.0115   0.0155   0.0000
   2 O   :1s     0.4937   0.0258   0.1819  -0.1034   0.1842   0.1653   0.0000
   3 O   :1s    -0.0025  -0.0160   0.0035   0.0021  -0.0103  -0.0009  -0.0000
   4 O   :1s     0.1257  -0.0157   0.7245  -0.4949   0.0342  -0.8237   0.0000
   5 O   :1s     0.0040   0.0034   0.0004  -0.0022   0.0050   0.0052   0.0000
   6 O   :1s     0.0007   0.0072   0.0004  -0.0006   0.0008   0.0016   0.0000
   7 O   :1s     0.0515  -0.0015   2.5239  -1.2849  -0.2955  -3.6448   0.0000
   8 O   :2pz   -0.7246  -0.0043   0.0721   0.0875   0.0485   0.2590  -0.0000
   9 O   :2pz    0.0482   0.0053   0.0436  -0.0242   0.0129  -0.0711  -0.0000
  10 O   :2pz    0.0986  -0.0051   0.3367   0.0639  -0.0138  -0.8433  -0.0000
  11 O   :2pz   -0.0017  -0.0003   0.0008  -0.0003   0.0001  -0.0009   0.0000
  12 O   :2pz   -0.0004  -0.0000   0.0000   0.0000   0.0000   0.0001  -0.0000
  13 O   :2pz   -0.0092  -0.0002   0.5652  -0.0613  -0.4121  -1.0953   0.0000
  14 O   :3d0   -0.0005  -0.0000   0.0001   0.0000   0.0000   0.0001  -0.0000
  15 O   :3d2+  -0.0000  -0.0000   0.0000  -0.0000   0.0000   0.0000   0.0002
  16 O   :3d0   -0.0102  -0.0001   0.0010   0.0004  -0.0008   0.0051  -0.0000
  17 O   :3d2+  -0.0000   0.0000  -0.0000  -0.0000  -0.0000   0.0000   0.0012
  18 O   :3d0   -0.0180   0.0003   0.0230  -0.0044   0.0203  -0.0521  -0.0000
  19 O   :3d2+  -0.0000  -0.0000  -0.0000   0.0000   0.0000  -0.0000   0.0178
  20 O   :3d0    0.0026  -0.0027   0.0519   0.0960  -0.0486  -0.1923  -0.0000
  21 O   :3d2+  -0.0000  -0.0000   0.0000  -0.0000   0.0000   0.0000  -0.0066
  22 O   :4f0   -0.0030   0.0001   0.0018  -0.0008   0.0028  -0.0022   0.0000
  23 O   :4f2+  -0.0000   0.0000  -0.0000   0.0000   0.0000   0.0000   0.0009
  24 O   :4f0   -0.0030  -0.0002   0.0019   0.0072   0.0037  -0.0193  -0.0000
  25 O   :4f2+   0.0000  -0.0000   0.0000  -0.0000   0.0000  -0.0000   0.0064
  26 C   :1s     0.0106   0.0004  -0.0301  -0.0442  -0.0392   0.1456   0.0000
  27 C   :1s    -0.4599   0.0019  -0.2238  -0.3805  -0.5023   0.3957   0.0000
  28 C   :1s    -0.0103   0.0003   0.0466   0.0250   0.0068  -0.1119  -0.0000
  29 C   :1s     0.0779   0.0004  -1.9899  -1.5508   1.7869   2.6672   0.0000
  30 C   :1s     0.0003   0.0003  -0.0142  -0.0190  -0.0147   0.0586   0.0000
  31 C   :1s    -0.0004   0.0000  -0.0016  -0.0030  -0.0038   0.0104   0.0000
  32 C   :1s    -0.0043   0.0013  -5.1256  -2.7676   4.3905   4.4658   0.0000
  33 C   :2pz    0.2650   0.0006  -0.0454  -0.1678  -0.2242  -0.1837  -0.0000
  34 C   :2pz   -0.0185   0.0006   0.1269  -0.0330   0.1449  -0.3092  -0.0000
  35 C   :2pz   -0.1176   0.0037   0.2443  -1.7768   1.1338  -0.5691   0.0000
  36 C   :2pz    0.0012  -0.0000   0.0005  -0.0011   0.0009  -0.0008   0.0000
  37 C   :2pz    0.0002   0.0000  -0.0000  -0.0001  -0.0001  -0.0001   0.0000
  38 C   :2pz    0.0037   0.0002  -0.3764  -1.4743   2.6309  -0.8333   0.0000
  39 C   :3d0   -0.0002  -0.0000   0.0005  -0.0000   0.0003   0.0006   0.0000
  40 C   :3d2+   0.0000  -0.0000  -0.0000  -0.0000  -0.0000   0.0000   0.0003
  41 C   :3d0   -0.0113  -0.0005   0.0185  -0.0009   0.0010   0.0433  -0.0000
  42 C   :3d2+  -0.0000  -0.0000  -0.0000   0.0000   0.0000  -0.0000   0.0207
  43 C   :3d0    0.0008  -0.0035  -0.0991  -0.0067   0.1250   0.1658   0.0000
  44 C   :3d2+   0.0000  -0.0000   0.0000  -0.0000  -0.0000   0.0000   0.0132
  45 C   :3d0   -0.0009   0.0014  -0.3128   0.1330   0.3268  -0.1096   0.0000
  46 C   :3d2+   0.0000  -0.0000  -0.0000   0.0000   0.0000  -0.0000   0.3857
  47 C   :4f0    0.0102   0.0001   0.0051  -0.0004   0.0093  -0.0214  -0.0000
  48 C   :4f2+   0.0000   0.0000   0.0000   0.0000  -0.0000  -0.0000   0.0072
  49 C   :4f0   -0.0091   0.0032  -0.0008  -0.0661   0.0153   0.0133   0.0000
  50 C   :4f2+  -0.0000  -0.0000  -0.0000  -0.0000   0.0000  -0.0000   0.0069
  51 S   :1s    -0.0003  -0.0001   0.0010  -0.0012   0.0005   0.0007  -0.0000
  52 S   :1s    -0.0031  -0.0012   0.0348  -0.0206   0.0069   0.0193  -0.0000
  53 S   :1s     0.3097  -0.0033   0.4026   0.0747   0.0876   0.2981   0.0000
  54 S   :1s     0.0064   0.0001  -0.0202   0.0156   0.0252  -0.0067   0.0000
  55 S   :1s     0.0303   0.0009   0.7034   1.1857  -1.3376   0.4827  -0.0000
  56 S   :1s    -0.0008  -0.0000  -0.0003  -0.0007  -0.0000  -0.0004  -0.0000
  57 S   :1s     0.0029  -0.0005   0.0228  -0.0140   0.0001   0.0084  -0.0000
  58 S   :1s     0.0040   0.0001   2.4497   4.4679  -4.7211  -2.8086  -0.0000
  59 S   :2pz   -0.0053  -0.0002  -0.0402  -0.0275   0.0736  -0.0229   0.0000
  60 S   :2pz    0.1311  -0.0007  -0.3235  -0.1342  -0.0858  -0.5751   0.0000
  61 S   :2pz    0.0027   0.0007   0.0458   0.0311  -0.0893   0.0230  -0.0000
  62 S   :2pz   -0.0260  -0.0015  -0.4586  -1.5961   1.0071   0.4557   0.0000
  63 S   :2pz    0.0003   0.0001  -0.0005  -0.0006   0.0021  -0.0002   0.0000
  64 S   :2pz    0.0008  -0.0001  -0.0043  -0.0016  -0.0011  -0.0065   0.0000
  65 S   :2pz    0.0001  -0.0002  -0.9469  -1.7453   0.2413   1.9613   0.0000
  66 S   :3d0   -0.0001  -0.0000  -0.0001  -0.0006  -0.0009  -0.0005  -0.0000
  67 S   :3d2+   0.0000  -0.0000   0.0000  -0.0000   0.0000   0.0000   0.0012
  68 S   :3d0   -0.0012   0.0000  -0.0011  -0.0103  -0.0167  -0.0119   0.0000
  69 S   :3d2+  -0.0000  -0.0000  -0.0000  -0.0000   0.0000   0.0000   0.0192
  70 S   :3d0   -0.0097  -0.0001  -0.0049  -0.0643  -0.1014  -0.0614  -0.0000
  71 S   :3d2+  -0.0000  -0.0000   0.0000  -0.0000   0.0000   0.0000   0.1328
  72 S   :3d0   -0.0113   0.0009   0.0478   0.0105  -0.2560  -0.0805  -0.0000
  73 S   :3d2+  -0.0000   0.0000  -0.0000   0.0000   0.0000  -0.0000   0.0605
  74 S   :3d0   -0.0024   0.0009   0.0880   0.3909  -0.3955  -0.6232  -0.0000
  75 S   :3d2+  -0.0000  -0.0000   0.0000  -0.0000  -0.0000   0.0000   0.6209
  76 S   :4f0    0.0000   0.0000  -0.0000   0.0001   0.0001   0.0001   0.0000
  78 S   :4f0    0.0030  -0.0001  -0.0018   0.0064   0.0225  -0.0169   0.0000
  79 S   :4f2+  -0.0000   0.0000   0.0000  -0.0000  -0.0000   0.0000  -0.0114
  80 S   :4f0    0.0006  -0.0002  -0.0198  -0.0412   0.0226   0.0670   0.0000
  81 S   :4f2+   0.0000  -0.0000  -0.0000  -0.0000   0.0000  -0.0000   0.0186

    Orbital        15       16       17       18       19       20       21
   1 O   :1s    -0.0155   0.0272   0.0175  -0.0000  -0.0130   0.0465   0.0803
   2 O   :1s    -0.0439   0.3419  -0.0093  -0.0000  -0.1006   0.2719   0.3326
   3 O   :1s     0.0168  -0.0174  -0.0187   0.0000  -0.0185  -0.0266  -0.0703
   4 O   :1s    -0.3539  -2.2524  -0.7744   0.0000   1.9599   0.7482   3.0114
   5 O   :1s    -0.0067   0.0114   0.0075  -0.0000  -0.0024   0.0171   0.0324
   6 O   :1s    -0.0010   0.0017   0.0011  -0.0000  -0.0021   0.0041   0.0060
   7 O   :1s    -0.1205  -8.3899  -3.3082   0.0000   8.1570  -1.5621   3.3762
   8 O   :2pz    0.0010   0.0463   0.0632  -0.0000   0.3295  -0.0139  -0.1596
   9 O   :2pz    0.0009  -0.1374  -0.0384   0.0000   0.1717   0.0417   0.0741
  10 O   :2pz    0.3177  -0.5434  -0.9105   0.0000   2.3353  -0.2926  -0.8263
  11 O   :2pz   -0.0001  -0.0025  -0.0008   0.0000   0.0030   0.0003   0.0014
  13 O   :2pz   -1.9012  -0.2088  -3.9979   0.0000   2.0769  -2.5844   1.2279
  14 O   :3d0    0.0001  -0.0000   0.0002   0.0000   0.0002  -0.0002   0.0006
  15 O   :3d2+   0.0000   0.0000   0.0000   0.0004   0.0000  -0.0000   0.0000
  16 O   :3d0    0.0030   0.0004   0.0030   0.0000  -0.0056   0.0028   0.0176
  17 O   :3d2+   0.0000  -0.0000   0.0000   0.0032  -0.0000  -0.0000   0.0000
  18 O   :3d0    0.0070  -0.0422  -0.0074   0.0000   0.1718  -0.0782   0.0281
  19 O   :3d2+   0.0000   0.0000   0.0000   0.0414  -0.0000   0.0000   0.0000
  20 O   :3d0    0.2002   0.1731  -0.3773  -0.0000   0.4433  -0.1438  -0.3537
  21 O   :3d2+  -0.0000   0.0000   0.0000   0.0401   0.0000  -0.0000  -0.0000
  22 O   :4f0   -0.0000  -0.0061   0.0031   0.0000   0.0117  -0.0047  -0.0006
  23 O   :4f2+   0.0000  -0.0000  -0.0000  -0.0013   0.0000   0.0000   0.0000
  24 O   :4f0   -0.0109   0.0320  -0.0327  -0.0000   0.0596  -0.0519   0.0372
  25 O   :4f2+   0.0000   0.0000   0.0000   0.0207   0.0000  -0.0000  -0.0000
  26 C   :1s     0.0217  -0.0712   0.1829   0.0000  -0.4377   0.1723  -0.0906
  27 C   :1s     0.2066  -0.2302   1.0162   0.0000  -2.1335   0.4608  -0.2073
  28 C   :1s     0.0269   0.0080  -0.1490   0.0000   0.3364  -0.0457   0.0186
  29 C   :1s    -6.1057   1.8986   6.5240  -0.0000  -7.2502 -13.9224   7.5604
  30 C   :1s     0.0056  -0.0296   0.0778  -0.0000  -0.1792   0.0637  -0.0341
  31 C   :1s     0.0029  -0.0045   0.0117   0.0000  -0.0308   0.0151  -0.0078
  32 C   :1s   -11.4373   4.8349  12.5551  -0.0000  -5.6827  -6.9278   7.7338
  33 C   :2pz    0.0398   0.2406   0.0600  -0.0000  -0.0980  -0.1382  -0.4805
  34 C   :2pz   -0.0726  -0.2639  -0.1204   0.0000   1.0072  -0.5356  -0.0776
  35 C   :2pz   -5.5189  -3.2340   1.4179   0.0000   2.6685  -7.0906  14.1454
  36 C   :2pz   -0.0020  -0.0023   0.0007   0.0000   0.0031  -0.0009   0.0053
  37 C   :2pz    0.0000   0.0001   0.0000  -0.0000   0.0001  -0.0000  -0.0002
  38 C   :2pz   -0.8368  -1.1689   6.2101  -0.0000   0.7734   0.4982   1.7209
  39 C   :3d0   -0.0000   0.0005   0.0000  -0.0000   0.0009  -0.0000  -0.0004
  40 C   :3d2+   0.0000   0.0000   0.0000   0.0002   0.0000   0.0000  -0.0000
  41 C   :3d0    0.0110   0.0292   0.0047  -0.0000  -0.0073   0.0346  -0.0412
  42 C   :3d2+   0.0000   0.0000   0.0000   0.0263  -0.0000  -0.0000  -0.0000
  43 C   :3d0   -0.2939   0.4610   0.2530  -0.0000  -0.1299  -0.5737   0.3589
  44 C   :3d2+   0.0000  -0.0000  -0.0000  -0.0494   0.0000   0.0000  -0.0000
  45 C   :3d0   -1.1039   2.0390  -0.1854  -0.0000   1.3724  -2.5700   1.7448
  46 C   :3d2+   0.0000   0.0000   0.0000   1.2954   0.0000   0.0000  -0.0000
  47 C   :4f0    0.0016  -0.0100   0.0016  -0.0000   0.0639  -0.0170  -0.0249
  48 C   :4f2+   0.0000  -0.0000  -0.0000  -0.0087  -0.0000   0.0000   0.0000
  49 C   :4f0   -0.2670  -0.0663   0.0359   0.0000  -0.0034   0.0735   1.0537
  50 C   :4f2+   0.0000   0.0000   0.0000   0.0703   0.0000  -0.0000  -0.0000
  51 S   :1s    -0.0007  -0.0034   0.0021   0.0000   0.0006  -0.0288  -0.0360
  52 S   :1s    -0.0111  -0.1036   0.0081   0.0000   0.0159  -0.6502  -0.8237
  53 S   :1s    -0.2687  -0.2652   0.1410   0.0000   0.1791  -1.6819  -2.6942
  54 S   :1s    -0.0551   0.1278   0.0733  -0.0000   0.0507   0.4324   0.6271
  55 S   :1s     5.0822  -0.8019  -0.8795  -0.0000  -2.6561  12.6257  -9.8191
  56 S   :1s     0.0004  -0.0016   0.0001   0.0000  -0.0001  -0.0114  -0.0125
  57 S   :1s     0.0039  -0.0845  -0.0188   0.0000   0.0030  -0.4465  -0.5475
  58 S   :1s    12.9572   1.7390 -13.9776   0.0000   4.5885   9.5295  -9.9866
  59 S   :2pz   -0.2501   0.1460   0.0894  -0.0000   0.1113  -0.2877   0.7043
  60 S   :2pz   -1.0416   0.4390   0.6040  -0.0000  -0.1086  -1.1678   2.6819
  61 S   :2pz    0.2697  -0.1810  -0.0974   0.0000  -0.1655   0.3661  -0.7218
  62 S   :2pz   -4.6082  -1.5659   3.0161   0.0000  -1.0787  -9.3665   5.6074
  63 S   :2pz   -0.0061   0.0017   0.0017  -0.0000   0.0032  -0.0033   0.0200
  64 S   :2pz   -0.0113   0.0089   0.0075  -0.0000  -0.0006  -0.0209   0.0226
  65 S   :2pz   -3.2667  -0.8344   0.9611   0.0000  -1.8660  -2.1423   1.1936
  66 S   :3d0    0.0001   0.0006   0.0007  -0.0000  -0.0002  -0.0000  -0.0013
  67 S   :3d2+   0.0000  -0.0000  -0.0000  -0.0008   0.0000  -0.0000  -0.0000
  68 S   :3d0   -0.0004   0.0137   0.0108  -0.0000   0.0016  -0.0039  -0.0150
  69 S   :3d2+   0.0000  -0.0000  -0.0000  -0.0123  -0.0000  -0.0000  -0.0000
  70 S   :3d0    0.0083   0.0709   0.0811  -0.0000  -0.0103  -0.0166  -0.1427
  71 S   :3d2+   0.0000  -0.0000  -0.0000  -0.0879   0.0000  -0.0000  -0.0000
  72 S   :3d0    0.3102   0.0126  -0.2114   0.0000  -0.1444   0.5600  -0.6078
  73 S   :3d2+   0.0000  -0.0000   0.0000  -0.0261  -0.0000  -0.0000  -0.0000
  74 S   :3d0    1.1377   1.1110  -0.6250  -0.0000   1.5675   3.6447  -0.1456
  75 S   :3d2+   0.0000  -0.0000  -0.0000  -1.0844  -0.0000  -0.0000   0.0000
  76 S   :4f0   -0.0000  -0.0001  -0.0001   0.0000   0.0000   0.0003   0.0002
  77 S   :4f2+  -0.0000   0.0000   0.0000  -0.0001  -0.0000   0.0000  -0.0000
  78 S   :4f0   -0.0201   0.0015   0.0050  -0.0000   0.0656  -0.0091   0.0645
  79 S   :4f2+  -0.0000  -0.0000  -0.0000  -0.0259   0.0000  -0.0000   0.0000
  80 S   :4f0   -0.0775  -0.0652   0.0947   0.0000  -0.1702  -0.2594  -0.1332
  81 S   :4f2+   0.0000   0.0000   0.0000   0.0888   0.0000   0.0000  -0.0000

    Orbital        22       23       24       25       26       27       28
   1 O   :1s     0.0021  -0.0000  -0.0457  -0.0000  -0.2515  -0.0000   0.1984
   2 O   :1s     0.3761  -0.0000  -0.1355   0.0000  -1.0293  -0.0000   0.9937
   3 O   :1s     0.0400   0.0000   0.0490   0.0000   0.2282   0.0000  -0.2322
   4 O   :1s     4.3415  -0.0000   3.5143   0.0000   2.1724   0.0000   6.6219
   5 O   :1s    -0.0048  -0.0000  -0.0199  -0.0000  -0.1051  -0.0000   0.0862
   6 O   :1s     0.0021  -0.0000  -0.0028  -0.0000  -0.0169  -0.0000   0.0118
   7 O   :1s     5.9784   0.0000   8.1866   0.0000   2.7132   0.0000   8.8240
   8 O   :2pz    0.2238  -0.0000   0.0528   0.0000  -0.3843  -0.0000  -0.3636
   9 O   :2pz    0.1630   0.0000   0.1402   0.0000   0.1886   0.0000   0.4922
  10 O   :2pz   -0.3062   0.0000   2.9369   0.0000   3.0938   0.0000   3.2976
  11 O   :2pz    0.0030   0.0000   0.0029   0.0000   0.0037   0.0000   0.0060
  12 O   :2pz    0.0000   0.0000  -0.0000  -0.0000  -0.0001   0.0000  -0.0001
  13 O   :2pz   -0.5756   0.0000   3.4831   0.0000  -0.2480  -0.0000   0.3665
  14 O   :3d0   -0.0003   0.0000   0.0005  -0.0000   0.0008   0.0000  -0.0005
  15 O   :3d2+   0.0000  -0.0001  -0.0000   0.0004   0.0000   0.0003  -0.0000
  16 O   :3d0   -0.0039   0.0000   0.0102  -0.0000   0.0098   0.0000  -0.0236
  17 O   :3d2+  -0.0000  -0.0033  -0.0000   0.0310  -0.0000   0.0193  -0.0000
  18 O   :3d0   -0.0262   0.0000   0.0701  -0.0000   0.2637   0.0000   0.2511
  19 O   :3d2+   0.0000  -0.0004  -0.0000  -0.0387   0.0000  -0.0215  -0.0000
  20 O   :3d0   -0.7725   0.0000   1.2328   0.0000   1.7907   0.0000  -1.0561
  21 O   :3d2+  -0.0000  -0.1619  -0.0000   1.5124  -0.0000   0.2301  -0.0000
  22 O   :4f0    0.0051  -0.0000  -0.0075  -0.0000   0.0135   0.0000   0.0306
  23 O   :4f2+   0.0000   0.0023  -0.0000  -0.0193  -0.0000   0.0111   0.0000
  24 O   :4f0   -0.0906   0.0000   0.0737  -0.0000   0.1022   0.0000  -0.0833
  25 O   :4f2+  -0.0000  -0.0148  -0.0000   0.1257   0.0000  -0.0532   0.0000
  26 C   :1s     0.4194  -0.0000  -0.3516   0.0000  -0.4494   0.0000  -0.0775
  27 C   :1s     1.6478  -0.0000  -1.2386   0.0000  -1.6159   0.0000  -0.0645
  28 C   :1s    -0.2126   0.0000   0.4290  -0.0000   0.2535  -0.0000   0.3117
  29 C   :1s     2.9929  -0.0000 -22.5367  -0.0000  -6.1771  -0.0000 -16.7630
  30 C   :1s     0.1700  -0.0000  -0.1614   0.0000  -0.1745   0.0000  -0.0403
  31 C   :1s     0.0301  -0.0000  -0.0185   0.0000  -0.0371   0.0000  -0.0038
  32 C   :1s     3.0408  -0.0000 -15.8884  -0.0000  -3.7963  -0.0000  -5.1823
  33 C   :2pz    0.2952   0.0000   0.0912   0.0000  -0.3068  -0.0000   0.3346
  34 C   :2pz    0.0553   0.0000   0.1949  -0.0000   1.8825   0.0000   0.9996
  35 C   :2pz    8.4580  -0.0000  -4.4516  -0.0000  -5.8668  -0.0000   5.5593
  36 C   :2pz    0.0041  -0.0000  -0.0034  -0.0000   0.0034   0.0000   0.0079
  37 C   :2pz    0.0000  -0.0000   0.0000   0.0000   0.0001  -0.0000   0.0002
  38 C   :2pz    1.9878  -0.0000  -4.1836  -0.0000   0.1186   0.0000   1.2964
  39 C   :3d0    0.0011  -0.0000   0.0003   0.0000  -0.0001  -0.0000  -0.0004
  40 C   :3d2+  -0.0000  -0.0005   0.0000   0.0002  -0.0000   0.0014  -0.0000
  41 C   :3d0    0.0693  -0.0000   0.0243   0.0000  -0.0674  -0.0000  -0.0758
  42 C   :3d2+  -0.0000  -0.0067  -0.0000   0.0061  -0.0000   0.0269   0.0000
  43 C   :3d0   -0.3577  -0.0000  -1.1680  -0.0000  -0.1862  -0.0000  -1.5578
  44 C   :3d2+  -0.0000  -0.1669   0.0000  -0.0897  -0.0000   0.5742   0.0000
  45 C   :3d0   -3.1671   0.0000  -0.4103  -0.0000  -2.8902  -0.0000  -0.1662
  46 C   :3d2+   0.0000   0.0366   0.0000  -0.8322   0.0000  -1.2554   0.0000
  47 C   :4f0   -0.0256   0.0000  -0.0319  -0.0000   0.1052   0.0000   0.1194
  48 C   :4f2+   0.0000   0.0093  -0.0000  -0.0282  -0.0000   0.0089   0.0000
  49 C   :4f0    0.2190  -0.0000  -0.0300  -0.0000  -0.9010  -0.0000   0.3136
  50 C   :4f2+  -0.0000  -0.1311   0.0000   0.4504   0.0000  -0.3019  -0.0000
  51 S   :1s     0.0152   0.0000  -0.0024   0.0000   0.0373   0.0000  -0.0276
  52 S   :1s     0.3553   0.0000   0.0708   0.0000   0.8055   0.0000  -0.5891
  53 S   :1s     0.8808   0.0000   0.4521   0.0000   2.5318   0.0000  -1.9093
  54 S   :1s    -0.3422  -0.0000  -0.2795  -0.0000  -0.4428  -0.0000   0.3394
  55 S   :1s    -3.1993   0.0000   7.3412   0.0000   5.1769   0.0000   2.9263
  56 S   :1s     0.0061   0.0000  -0.0005   0.0000   0.0130   0.0000  -0.0092
  57 S   :1s     0.2576   0.0000   0.0996   0.0000   0.5077   0.0000  -0.3668
  58 S   :1s   -10.0796   0.0000  17.7608   0.0000   1.6918  -0.0000   4.0569
  59 S   :2pz   -0.2451  -0.0000  -0.3209  -0.0000  -0.5076  -0.0000  -0.0196
  60 S   :2pz   -1.1620  -0.0000  -0.7334  -0.0000  -2.1267  -0.0000   0.3425
  61 S   :2pz    0.2755   0.0000   0.4083   0.0000   0.4947   0.0000   0.0863
  62 S   :2pz    7.9548  -0.0000 -10.4847  -0.0000   0.2005   0.0000  -4.7989
  63 S   :2pz   -0.0042  -0.0000  -0.0090  -0.0000  -0.0100  -0.0000   0.0025
  64 S   :2pz   -0.0159   0.0000  -0.0081  -0.0000  -0.0260  -0.0000  -0.0041
  65 S   :2pz    1.7930  -0.0000  -1.7939  -0.0000  -0.3066  -0.0000  -1.2875
  66 S   :3d0    0.0019   0.0000   0.0008   0.0000  -0.0010  -0.0000  -0.0013
  67 S   :3d2+  -0.0000  -0.0017   0.0000   0.0001   0.0000  -0.0008   0.0000
  68 S   :3d0    0.0274   0.0000   0.0215   0.0000  -0.0258  -0.0000  -0.0218
  69 S   :3d2+  -0.0000  -0.0577   0.0000  -0.0031   0.0000  -0.0199   0.0000
  70 S   :3d0    0.2090   0.0000   0.0885   0.0000  -0.1096  -0.0000  -0.1511
  71 S   :3d2+  -0.0000  -0.2403   0.0000   0.0094   0.0000  -0.1060   0.0000
  72 S   :3d0    0.1295   0.0000   1.4141   0.0000  -0.6138  -0.0000   0.1983
  73 S   :3d2+  -0.0000  -0.9631   0.0000  -0.2487   0.0000  -0.2232  -0.0000
  74 S   :3d0   -2.6063   0.0000   2.0960   0.0000  -0.1706  -0.0000   2.3942
  75 S   :3d2+   0.0000   0.9476  -0.0000   0.4002  -0.0000   0.8844   0.0000
  76 S   :4f0   -0.0001  -0.0000  -0.0001   0.0000  -0.0004  -0.0000  -0.0004
  77 S   :4f2+  -0.0000   0.0002   0.0000   0.0002   0.0000  -0.0005  -0.0000
  78 S   :4f0   -0.0391  -0.0000  -0.0931  -0.0000   0.0870   0.0000   0.0200
  79 S   :4f2+   0.0000  -0.0013  -0.0000  -0.0152  -0.0000   0.0570  -0.0000
  80 S   :4f0    0.2791  -0.0000  -0.2653   0.0000  -0.2349  -0.0000  -0.6696
  81 S   :4f2+  -0.0000   0.0344  -0.0000   0.5149   0.0000  -0.9482   0.0000

    Orbital        29       30       31       32       33       34       35
   1 O   :1s     0.0778  -0.0091  -0.0000  -0.3078  -0.0526  -0.0609  -0.0000
   2 O   :1s     0.2443   0.2185  -0.0000  -0.9222  -0.4459  -0.2149   0.0000
   3 O   :1s    -0.0185   0.0201   0.0000   0.2290   0.0174   0.0958  -0.0000
   4 O   :1s    -2.3593  -0.6708   0.0000  -3.6953   8.4298  -1.6322  -0.0000
   5 O   :1s     0.0262  -0.0055  -0.0000  -0.1217  -0.0186  -0.0304  -0.0000
   6 O   :1s     0.0082  -0.0008  -0.0000  -0.0253  -0.0037  -0.0022   0.0000
   7 O   :1s    -6.1829   1.4112   0.0000  -2.7790   5.7626  -2.6949  -0.0000
   8 O   :2pz    0.5507   0.4667  -0.0000   0.0958  -0.1568   0.3999  -0.0000
   9 O   :2pz   -0.1570  -0.1548   0.0000   0.0454   0.4574   0.0216   0.0000
  10 O   :2pz   -3.3405  -0.7595   0.0000   8.2646   3.4361  -3.6569   0.0000
  11 O   :2pz   -0.0027  -0.0016   0.0000   0.0021   0.0093   0.0000   0.0000
  12 O   :2pz    0.0001   0.0001   0.0000   0.0000  -0.0001  -0.0000  -0.0000
  13 O   :2pz   -1.6559   1.2722   0.0000   0.5028   1.8564  -1.1532   0.0000
  14 O   :3d0   -0.0007  -0.0011  -0.0000   0.0001  -0.0012  -0.0004   0.0000
  15 O   :3d2+   0.0000   0.0000   0.0003  -0.0000   0.0000   0.0000   0.0013
  16 O   :3d0    0.0163  -0.0196  -0.0000  -0.0255  -0.0213   0.0038  -0.0000
  17 O   :3d2+   0.0000   0.0000  -0.0044   0.0000  -0.0000  -0.0000   0.0200
  18 O   :3d0   -0.3911  -0.0665   0.0000   0.4531   0.0410  -0.1638   0.0000
  19 O   :3d2+  -0.0000   0.0000   0.0607  -0.0000   0.0000   0.0000   0.1173
  20 O   :3d0   -0.4305   0.1770   0.0000   4.8077   1.3106  -1.1451   0.0000
  21 O   :3d2+  -0.0000   0.0000  -1.0413   0.0000   0.0000  -0.0000  -1.2947
  22 O   :4f0   -0.0267  -0.0085   0.0000   0.0119  -0.0187  -0.0008  -0.0000
  23 O   :4f2+   0.0000   0.0000   0.0147  -0.0000   0.0000   0.0000   0.0381
  24 O   :4f0   -0.0940   0.1536   0.0000   0.3610   0.1841  -0.1165   0.0000
  25 O   :4f2+  -0.0000   0.0000  -0.0518   0.0000  -0.0000  -0.0000  -0.2076
  26 C   :1s     0.7063  -1.0327  -0.0000  -1.7929  -0.6385   1.6148  -0.0000
  27 C   :1s     3.3148  -5.0384  -0.0000  -8.1681  -2.9054   7.5383  -0.0000
  28 C   :1s    -0.4013   0.4272   0.0000   1.0132   0.4108  -1.2027   0.0000
  29 C   :1s   -14.0084  21.7289   0.0000 -10.9588  -3.0485  16.0293  -0.0000
  30 C   :1s     0.2732  -0.4039  -0.0000  -0.7110  -0.2543   0.6709  -0.0000
  31 C   :1s     0.0557  -0.0775  -0.0000  -0.1344  -0.0477   0.1070  -0.0000
  32 C   :1s    -2.0193   4.6861   0.0000  -5.3079  -0.4533   6.3687  -0.0000
  33 C   :2pz    0.7464   0.8374  -0.0000   0.4632   0.3663   0.7242  -0.0000
  34 C   :2pz   -2.2281   0.1819   0.0000   4.2942   2.2819   0.1334   0.0000
  35 C   :2pz  -10.4689  13.3372   0.0000 -23.8350   7.5929   4.4666  -0.0000
  36 C   :2pz   -0.0045   0.0010   0.0000  -0.0000   0.0135   0.0047   0.0000
  37 C   :2pz   -0.0002  -0.0000  -0.0000   0.0003  -0.0002  -0.0002   0.0000
  38 C   :2pz   -0.5916   0.5525  -0.0000  -1.5925  -0.4246   1.0273  -0.0000
  39 C   :3d0    0.0004   0.0007  -0.0000   0.0004  -0.0002  -0.0003   0.0000
  40 C   :3d2+   0.0000   0.0000   0.0018  -0.0000   0.0000   0.0000  -0.0005
  41 C   :3d0    0.1283  -0.0410  -0.0000  -0.1272  -0.0782   0.0286  -0.0000
  42 C   :3d2+  -0.0000   0.0000  -0.0037  -0.0000  -0.0000   0.0000  -0.0057
  43 C   :3d0   -0.1971   2.0922   0.0000   0.5238  -0.3665   0.5201  -0.0000
  44 C   :3d2+   0.0000  -0.0000   1.3181   0.0000  -0.0000   0.0000  -0.1905
  45 C   :3d0   -1.5997   3.1246   0.0000   0.5551   0.3205  -1.6150   0.0000
  46 C   :3d2+   0.0000  -0.0000   0.4534  -0.0000  -0.0000   0.0000  -0.0371
  47 C   :4f0   -0.1128   0.0060   0.0000   0.1565   0.0245  -0.0410   0.0000
  48 C   :4f2+   0.0000   0.0000   0.0121  -0.0000  -0.0000   0.0000   0.0877
  49 C   :4f0    0.4634   0.7043   0.0000  -2.3985   1.9255  -0.4553  -0.0000
  50 C   :4f2+  -0.0000  -0.0000  -0.3055   0.0000   0.0000  -0.0000  -2.2036
  51 S   :1s    -0.0942   0.0067  -0.0000   0.0102  -0.0428   0.0970  -0.0000
  52 S   :1s    -2.1294   0.1408  -0.0000   0.0062  -0.9336   2.0925  -0.0000
  53 S   :1s    -6.7173   0.5518  -0.0000  -0.4853  -2.5919   6.2057  -0.0000
  54 S   :1s     1.3129   0.1401   0.0000   0.3410   0.7445  -1.3723   0.0000
  55 S   :1s    20.4698 -20.7345  -0.0000  17.9317  -3.2437 -14.0624   0.0000
  56 S   :1s    -0.0334   0.0021  -0.0000   0.0035  -0.0159   0.0345  -0.0000
  57 S   :1s    -1.3887   0.0677  -0.0000  -0.0711  -0.6323   1.3516  -0.0000
  58 S   :1s     5.8293  -5.2476  -0.0000   8.7761  -1.4895 -10.0069   0.0000
  59 S   :2pz   -0.3582   1.4831   0.0000  -0.4250   0.6219  -0.0820  -0.0000
  60 S   :2pz   -1.3198   6.0354   0.0000  -1.3674   2.1501   0.2848  -0.0000
  61 S   :2pz    0.5267  -1.5906  -0.0000   0.2870  -0.6596   0.1350   0.0000
  62 S   :2pz  -10.6491   6.6164   0.0000  -8.8621   1.4704  12.2239  -0.0000
  63 S   :2pz   -0.0025   0.0343   0.0000  -0.0188   0.0197  -0.0068  -0.0000
  64 S   :2pz   -0.0297   0.0686   0.0000   0.0052   0.0145   0.0111  -0.0000
  65 S   :2pz   -0.7478   0.3183  -0.0000  -1.0388   0.5705   1.5978  -0.0000
  66 S   :3d0    0.0002  -0.0007  -0.0000  -0.0003  -0.0011  -0.0027   0.0000
  67 S   :3d2+  -0.0000   0.0000  -0.0006  -0.0000   0.0000   0.0000   0.0019
  68 S   :3d0   -0.0041   0.0047   0.0000  -0.0095  -0.0069  -0.0763   0.0000
  69 S   :3d2+  -0.0000   0.0000  -0.0106  -0.0000   0.0000  -0.0000   0.0393
  70 S   :3d0   -0.0170  -0.0614   0.0000  -0.0038  -0.1204  -0.3519   0.0000
  71 S   :3d2+  -0.0000   0.0000  -0.0714  -0.0000   0.0000  -0.0000   0.2337
  72 S   :3d0    0.9127  -1.3457   0.0000  -0.9071  -0.5304  -1.7649   0.0000
  73 S   :3d2+  -0.0000   0.0000  -0.0145  -0.0000  -0.0000   0.0000   0.7859
  74 S   :3d0    3.2407  -0.7235   0.0000   0.9252  -0.6828  -3.9147   0.0000
  75 S   :3d2+  -0.0000   0.0000  -0.4321   0.0000   0.0000  -0.0000   0.2995
  76 S   :4f0   -0.0007  -0.0004   0.0000   0.0002  -0.0003  -0.0002   0.0000
  77 S   :4f2+   0.0000  -0.0000   0.0003  -0.0000  -0.0000  -0.0000   0.0007
  78 S   :4f0   -0.1439   0.1648   0.0000   0.0975  -0.0586  -0.0956   0.0000
  79 S   :4f2+  -0.0000   0.0000  -0.0755   0.0000   0.0000  -0.0000   0.1103
  80 S   :4f0   -0.8244  -0.8451  -0.0000   1.2849   0.8578   1.5225   0.0000
  81 S   :4f2+   0.0000  -0.0000   0.9441   0.0000  -0.0000   0.0000  -1.1029

    Orbital        36       37       38       39       40       41       42
   1 O   :1s    -0.2563   0.0000   1.0570   0.0000  -0.8338  -0.0000  -0.1519
   2 O   :1s    -1.1104   0.0000   4.8318   0.0000  -3.6258  -0.0000  -0.6453
   3 O   :1s     0.2726  -0.0000  -0.8865  -0.0000   0.8492   0.0000   0.0915
   4 O   :1s     7.5623  -0.0000 -11.2650  -0.0000  -8.2996   0.0000   1.5353
   5 O   :1s    -0.1100   0.0000   0.4256   0.0000  -0.3451  -0.0000  -0.0572
   6 O   :1s    -0.0158   0.0000   0.0755   0.0000  -0.0574  -0.0000  -0.0129
   7 O   :1s     5.2263  -0.0000  -3.7991  -0.0000  -4.2994   0.0000  -0.4845
   8 O   :2pz    0.2743   0.0000  -0.0335   0.0000  -0.4885   0.0000  -0.0614
   9 O   :2pz    0.3147  -0.0000  -0.8570  -0.0000  -1.5592   0.0000   0.3815
  10 O   :2pz    3.4946  -0.0000  -6.2656  -0.0000  -1.8219   0.0000   4.4573
  11 O   :2pz    0.0053  -0.0000  -0.0149  -0.0000  -0.0120   0.0000   0.0066
  12 O   :2pz   -0.0001   0.0000   0.0002   0.0000   0.0002  -0.0000  -0.0001
  13 O   :2pz    1.1756  -0.0000   0.3562  -0.0000   0.3909  -0.0000   0.4337
  14 O   :3d0   -0.0017   0.0000   0.0005  -0.0000  -0.0033  -0.0000  -0.0016
  15 O   :3d2+   0.0000  -0.0006   0.0000   0.0068  -0.0000  -0.0011   0.0000
  16 O   :3d0   -0.0171   0.0000   0.0245   0.0000  -0.0303  -0.0000  -0.0237
  17 O   :3d2+  -0.0000  -0.0060  -0.0000   0.0160   0.0000  -0.0004   0.0000
  18 O   :3d0   -0.2520  -0.0000  -0.5124  -0.0000  -1.0913  -0.0000  -0.0320
  19 O   :3d2+  -0.0000  -0.0802  -0.0000   1.2145   0.0000  -0.2092   0.0000
  20 O   :3d0    0.7698  -0.0000  -1.9296  -0.0000   1.2763   0.0000   2.6612
  21 O   :3d2+   0.0000   0.3557  -0.0000  -0.7848   0.0000   0.1945   0.0000
  22 O   :4f0   -0.0145  -0.0000  -0.0500  -0.0000  -0.0845   0.0000  -0.0571
  23 O   :4f2+  -0.0000  -0.0079  -0.0000   0.0506  -0.0000   0.0262  -0.0000
  24 O   :4f0   -0.0818  -0.0000  -0.1393  -0.0000   0.5893   0.0000   1.0840
  25 O   :4f2+  -0.0000   0.0764   0.0000  -0.4246   0.0000  -0.4180   0.0000
  26 C   :1s    -0.9280   0.0000   0.7885   0.0000  -0.0892  -0.0000  -0.8925
  27 C   :1s    -4.6499   0.0000   3.7056   0.0000   0.0865  -0.0000  -3.9852
  28 C   :1s     0.9668   0.0000  -0.2946  -0.0000  -0.6166   0.0000   0.2366
  29 C   :1s   -27.9740   0.0000   5.6233  -0.0000  15.6292  -0.0000  -2.9582
  30 C   :1s    -0.3987   0.0000   0.2820   0.0000  -0.0278  -0.0000  -0.3406
  31 C   :1s    -0.0532   0.0000   0.0708   0.0000  -0.0143  -0.0000  -0.0726
  32 C   :1s   -10.2398   0.0000   1.1740  -0.0000   2.0081  -0.0000  -1.2904
  33 C   :2pz    0.4426   0.0000   0.6983   0.0000   0.1747   0.0000  -0.6099
  34 C   :2pz   -1.7042  -0.0000  -5.4490  -0.0000  -3.2715  -0.0000   3.1614
  35 C   :2pz   -8.1272  -0.0000   2.4551  -0.0000  -1.3225  -0.0000  -8.1183
  36 C   :2pz   -0.0128  -0.0000  -0.0184  -0.0000  -0.0244  -0.0000  -0.0035
  37 C   :2pz   -0.0001  -0.0000  -0.0005   0.0000  -0.0004   0.0000   0.0003
  38 C   :2pz   -1.9653   0.0000  -0.9005  -0.0000  -0.7805  -0.0000  -0.7351
  39 C   :3d0   -0.0015   0.0000   0.0003  -0.0000  -0.0013  -0.0000  -0.0001
  40 C   :3d2+  -0.0000   0.0004  -0.0000   0.0003   0.0000  -0.0003   0.0000
  41 C   :3d0    0.0071   0.0000   0.1573   0.0000  -0.0607  -0.0000  -0.0148
  42 C   :3d2+  -0.0000   0.0231  -0.0000   0.0552  -0.0000  -0.0712   0.0000
  43 C   :3d0   -3.9492   0.0000   0.5998  -0.0000   5.1228  -0.0000  -0.9483
  44 C   :3d2+  -0.0000   0.2178  -0.0000   0.2132  -0.0000   0.4264  -0.0000
  45 C   :3d0   -2.1603   0.0000   2.8089   0.0000   2.1480  -0.0000  -0.3359
  46 C   :3d2+  -0.0000  -0.1373   0.0000   0.6379  -0.0000  -0.4389   0.0000
  47 C   :4f0   -0.1166  -0.0000  -0.2604  -0.0000  -0.2816   0.0000   0.1059
  48 C   :4f2+   0.0000   0.0394  -0.0000  -0.1163  -0.0000  -0.1526  -0.0000
  49 C   :4f0   -0.8904   0.0000   2.0684  -0.0000  -0.0773  -0.0000  -1.0513
  50 C   :4f2+  -0.0000   0.5621  -0.0000   0.6007   0.0000   0.2336   0.0000
  51 S   :1s     0.0178  -0.0000  -0.0781  -0.0000  -0.0471   0.0000   0.0446
  52 S   :1s     0.7271  -0.0000  -1.5218  -0.0000  -0.8831   0.0000   0.7494
  53 S   :1s     2.2053  -0.0000  -4.3059  -0.0000  -2.7163   0.0000   2.2800
  54 S   :1s    -1.3767  -0.0000   0.6204   0.0000   0.3818  -0.0000   0.0435
  55 S   :1s    17.4155   0.0000  -0.4844   0.0000  -4.7286   0.0000   3.8539
  56 S   :1s     0.0090   0.0000  -0.0273  -0.0000  -0.0151   0.0000   0.0138
  57 S   :1s     0.6775   0.0000  -0.9061  -0.0000  -0.4662   0.0000   0.3286
  58 S   :1s    11.2583  -0.0000   1.9273   0.0000  -0.0358   0.0000   1.5524
  59 S   :2pz   -2.0907   0.0000   0.6185  -0.0000   1.2493  -0.0000   0.0123
  60 S   :2pz   -8.2577  -0.0000   1.6912  -0.0000   4.7090  -0.0000  -0.5727
  61 S   :2pz    2.3186  -0.0000  -0.7675   0.0000  -1.2869   0.0000  -0.5896
  62 S   :2pz   -9.0164  -0.0000  -3.5548  -0.0000  -0.4642   0.0000  -0.6229
  63 S   :2pz   -0.0481  -0.0000   0.0102  -0.0000   0.0335   0.0000  -0.0176
  64 S   :2pz   -0.0975   0.0000   0.0313  -0.0000   0.0435  -0.0000   0.0449
  65 S   :2pz   -1.1144   0.0000  -0.0908  -0.0000   0.1068  -0.0000   0.0493
  66 S   :3d0   -0.0037  -0.0000  -0.0046  -0.0000  -0.0033  -0.0000   0.0029
  67 S   :3d2+  -0.0000   0.0100  -0.0000   0.0007  -0.0000   0.0012   0.0000
  68 S   :3d0   -0.0623  -0.0000  -0.0623  -0.0000  -0.0342   0.0000   0.0417
  69 S   :3d2+  -0.0000   0.1244  -0.0000   0.0075  -0.0000   0.0178   0.0000
  70 S   :3d0   -0.5060  -0.0000  -0.6299  -0.0000  -0.4488   0.0000   0.4236
  71 S   :3d2+  -0.0000   1.1880  -0.0000   0.0905  -0.0000   0.1604   0.0000
  72 S   :3d0    3.8558   0.0000   2.1102   0.0000  -0.0655   0.0000  -1.0927
  73 S   :3d2+   0.0000  -1.6441   0.0000  -0.3540  -0.0000  -0.3756  -0.0000
  74 S   :3d0    2.1176  -0.0000   0.9282   0.0000  -0.0706  -0.0000  -0.7288
  75 S   :3d2+   0.0000   0.5897  -0.0000  -0.3423   0.0000   0.3183  -0.0000
  76 S   :4f0    0.0004   0.0000  -0.0015   0.0000   0.0014  -0.0000  -0.0036
  77 S   :4f2+   0.0000  -0.0008  -0.0000  -0.0002   0.0000   0.0056   0.0000
  78 S   :4f0   -0.2200  -0.0000  -0.5549  -0.0000   0.2914  -0.0000  -0.7354
  79 S   :4f2+  -0.0000  -0.1557   0.0000  -0.0540   0.0000   1.2071   0.0000
  80 S   :4f0   -1.0469  -0.0000  -0.4637  -0.0000  -0.5116  -0.0000   1.3635
  81 S   :4f2+  -0.0000   0.3933  -0.0000   0.4780   0.0000  -0.6331   0.0000

    Orbital        43       44       45       46       47       48       49
   1 O   :1s    -1.1000   0.1456   0.0000   0.0137  -0.2346   0.0000   0.1319
   2 O   :1s    -5.0282   0.5887   0.0000   0.1515  -1.1360   0.0000   0.7387
   3 O   :1s     0.8068  -0.3320  -0.0000   0.1061  -0.0435  -0.0000  -0.0907
   4 O   :1s     5.6178  10.3522   0.0000   0.9061   2.9240   0.0000  -0.2234
   5 O   :1s    -0.4224   0.0796   0.0000  -0.0035  -0.0696   0.0000   0.0476
   6 O   :1s    -0.0865   0.0025   0.0000   0.0034  -0.0256   0.0000   0.0097
   7 O   :1s     2.6572   6.7817   0.0000   0.0674  -0.5692  -0.0000   0.0755
   8 O   :2pz   -0.1549   0.2334   0.0000  -0.1964   0.1905   0.0000   0.2839
   9 O   :2pz    0.0710   1.2442   0.0000  -0.5445   0.7592   0.0000   0.1386
  10 O   :2pz    6.2558   6.6934   0.0000   0.5697   6.7720  -0.0000  -2.3594
  11 O   :2pz    0.0041   0.0157   0.0000   0.0011   0.0045   0.0000   0.0032
  12 O   :2pz    0.0000  -0.0002  -0.0000  -0.0001  -0.0000  -0.0000  -0.0002
  13 O   :2pz    0.8986   1.9370   0.0000   0.3269   0.0356  -0.0000  -0.1684
  14 O   :3d0    0.0025   0.0037   0.0000   0.0012   0.0004  -0.0000  -0.0022
  15 O   :3d2+   0.0000  -0.0000   0.0025  -0.0000  -0.0000   0.0011  -0.0000
  16 O   :3d0    0.0021  -0.0077  -0.0000  -0.0034   0.0032   0.0000  -0.0602
  17 O   :3d2+   0.0000  -0.0000   0.0094  -0.0000   0.0000   0.0185   0.0000
  18 O   :3d0    0.9160   1.6155   0.0000  -0.2474   1.0010  -0.0000  -0.1349
  19 O   :3d2+   0.0000  -0.0000   0.5302  -0.0000  -0.0000   0.1858  -0.0000
  20 O   :3d0    1.7798   1.8989   0.0000   0.6113   2.5677  -0.0000  -1.3114
  21 O   :3d2+   0.0000  -0.0000   1.5174  -0.0000   0.0000   0.2887   0.0000
  22 O   :4f0    0.0905   0.0454   0.0000  -0.0401   0.0823  -0.0000   0.1223
  23 O   :4f2+  -0.0000   0.0000  -0.0958   0.0000   0.0000  -0.0536   0.0000
  24 O   :4f0   -0.1812   1.1739   0.0000   0.3750   0.3473  -0.0000  -0.8606
  25 O   :4f2+   0.0000  -0.0000   1.5694  -0.0000   0.0000   0.3967   0.0000
  26 C   :1s    -2.3298  -2.9510  -0.0000  -0.9088  -2.6818   0.0000   1.3171
  27 C   :1s   -10.1777 -12.7604  -0.0000  -4.1832 -11.3230   0.0000   5.7622
  28 C   :1s     2.0265   1.9615   0.0000   0.5742   2.5297  -0.0000  -1.0220
  29 C   :1s     5.4427   6.1980  -0.0000 -11.9757  -7.5833   0.0000  13.1057
  30 C   :1s    -0.9635  -1.1789  -0.0000  -0.3632  -1.1418   0.0000   0.5591
  31 C   :1s    -0.1655  -0.2282  -0.0000  -0.0656  -0.1875   0.0000   0.0880
  32 C   :1s    -1.2544  -1.2099  -0.0000  -2.0318  -2.4557   0.0000   4.6244
  33 C   :2pz   -0.5922  -0.8650  -0.0000  -1.1369   0.5844   0.0000  -2.9316
  34 C   :2pz    3.3511   8.0948   0.0000  -2.0585   4.7456  -0.0000   4.9157
  35 C   :2pz   -0.4876  10.8436   0.0000  -3.5289 -10.5571   0.0000  11.0388
  36 C   :2pz    0.0079   0.0282   0.0000   0.0030   0.0038  -0.0000   0.0857
  37 C   :2pz    0.0006   0.0007   0.0000   0.0002   0.0001   0.0000   0.0018
  38 C   :2pz   -0.2108  -0.0448  -0.0000  -0.6393  -0.1702   0.0000   1.0206
  39 C   :3d0    0.0033   0.0022   0.0000   0.0015   0.0001  -0.0000  -0.0054
  40 C   :3d2+  -0.0000  -0.0000   0.0018  -0.0000   0.0000  -0.0089   0.0000
  41 C   :3d0   -0.1196  -0.2880  -0.0000   0.0593  -0.2842  -0.0000  -0.6645
  42 C   :3d2+   0.0000  -0.0000   0.2262  -0.0000   0.0000  -1.2117   0.0000
  43 C   :3d0    1.8992   0.8187  -0.0000  -0.6023   0.8809  -0.0000   2.1527
  44 C   :3d2+  -0.0000   0.0000  -1.3444   0.0000  -0.0000   0.7127  -0.0000
  45 C   :3d0    1.2077   1.9758   0.0000   0.0479   1.0429  -0.0000   0.7966
  46 C   :3d2+  -0.0000   0.0000  -0.1143  -0.0000  -0.0000  -0.1601  -0.0000
  47 C   :4f0    0.1789   0.2739   0.0000  -0.7017   0.6633   0.0000  -0.4306
  48 C   :4f2+   0.0000   0.0000  -0.1068   0.0000   0.0000  -0.1719  -0.0000
  49 C   :4f0   -1.9188   1.6466   0.0000   1.8434  -1.5454   0.0000   0.8776
  50 C   :4f2+   0.0000  -0.0000   1.9995  -0.0000   0.0000   0.7759   0.0000
  51 S   :1s     0.0404  -0.0454  -0.0000  -0.1339  -0.1494   0.0000  -0.0319
  52 S   :1s     0.9713  -0.7032  -0.0000  -3.0586  -4.4270   0.0000  -0.8921
  53 S   :1s     2.5495  -2.3942  -0.0000  -8.5423 -12.0836   0.0000  -2.4304
  54 S   :1s    -0.8798  -0.0104  -0.0000   2.6615   7.6498   0.0000   1.7316
  55 S   :1s    -5.3569 -11.0624  -0.0000  17.4719  17.1998  -0.0000 -13.4825
  56 S   :1s     0.0167  -0.0119  -0.0000  -0.0512  -0.0662   0.0000  -0.0136
  57 S   :1s     0.7542  -0.2178  -0.0000  -2.2003  -4.0044   0.0000  -0.7998
  58 S   :1s     0.9670   0.1741   0.0000   3.5434   5.0638  -0.0000  -6.2969
  59 S   :2pz    0.7758   2.2855   0.0000  -2.1987   0.9992  -0.0000   2.5323
  60 S   :2pz    2.7620   8.4409   0.0000  -6.9085   3.5400  -0.0000   8.8137
  61 S   :2pz   -1.1733  -2.7743  -0.0000   3.9420  -1.5034  -0.0000  -3.4841
  62 S   :2pz    0.2711  -0.0610  -0.0000  -5.6656  -9.6603   0.0000   4.8306
  63 S   :2pz    0.0082   0.0551   0.0000  -0.0196   0.0236   0.0000   0.0631
  64 S   :2pz    0.0596   0.1018   0.0000  -0.1868   0.0519   0.0000   0.1135
  65 S   :2pz   -0.1496  -0.1910  -0.0000  -0.2373  -0.9261   0.0000   0.7132
  66 S   :3d0   -0.0035  -0.0054  -0.0000  -0.0010  -0.0037  -0.0000  -0.0000
  67 S   :3d2+  -0.0000   0.0000   0.0008  -0.0000  -0.0000   0.0005   0.0000
  68 S   :3d0   -0.0385  -0.0507  -0.0000  -0.0221  -0.0484   0.0000   0.0108
  69 S   :3d2+  -0.0000  -0.0000   0.0091  -0.0000   0.0000   0.0117   0.0000
  70 S   :3d0   -0.4163  -0.6310  -0.0000  -0.2683  -0.4474   0.0000   0.0172
  71 S   :3d2+  -0.0000  -0.0000   0.1123   0.0000   0.0000   0.0826   0.0000
  72 S   :3d0   -0.2494  -1.4083  -0.0000   3.0295  -0.4142  -0.0000  -2.4758
  73 S   :3d2+  -0.0000   0.0000  -0.7656  -0.0000  -0.0000  -0.4597  -0.0000
  74 S   :3d0   -0.6153  -0.0092   0.0000   1.8711   2.3134  -0.0000  -1.4165
  75 S   :3d2+  -0.0000  -0.0000   0.0652   0.0000   0.0000  -0.0225   0.0000
  76 S   :4f0   -0.0038   0.0023   0.0000  -0.0022   0.0014   0.0000   0.0001
  77 S   :4f2+   0.0000  -0.0000   0.0020   0.0000   0.0000  -0.0004  -0.0000
  78 S   :4f0   -0.6136   0.9003   0.0000  -0.7680   0.6258  -0.0000   0.1835
  79 S   :4f2+   0.0000  -0.0000   0.4777  -0.0000   0.0000  -0.0421   0.0000
  80 S   :4f0    0.3888  -0.2039  -0.0000  -0.5108  -0.3719   0.0000   0.5168
  81 S   :4f2+   0.0000  -0.0000   0.1365   0.0000  -0.0000   0.4311   0.0000

    Orbital        50       51       52       53       54       55       56
   1 O   :1s    -0.0000  -1.0725   0.1167  -1.5554   1.3008  -2.6433  -0.0000
   2 O   :1s    -0.0000  -4.5494   0.5541  -6.4606   4.2589  -9.7660  -0.0000
   3 O   :1s     0.0000   0.8623  -0.0607   1.7584  -2.3829   4.5518   0.0000
   4 O   :1s     0.0000  -5.7536   3.5892   0.2276 -17.0967  -0.6942   0.0000
   5 O   :1s    -0.0000  -0.4055   0.0433  -0.6498   0.6746  -1.2822  -0.0000
   6 O   :1s     0.0000  -0.0916   0.0091  -0.1089   0.0642  -0.1504  -0.0000
   7 O   :1s     0.0000  -2.5119   2.6298  -0.7334  -5.3632  -2.1406   0.0000
   8 O   :2pz    0.0000   1.5299   0.7056  -1.2431   2.5745   1.6456  -0.0000
   9 O   :2pz    0.0000  -3.3703  -0.6885  -1.3945  -5.6554  -3.5529   0.0000
  10 O   :2pz    0.0000   0.2951   1.7003  -0.5220 -10.6456  -2.3550   0.0000
  11 O   :2pz    0.0000  -0.0416  -0.0155   0.0145  -0.0974  -0.0545   0.0000
  12 O   :2pz   -0.0000  -0.0005  -0.0003   0.0007  -0.0014  -0.0015  -0.0000
  13 O   :2pz   -0.0000   0.3119   0.7177   0.0544  -1.0163  -0.5527   0.0000
  14 O   :3d0    0.0000   0.0054  -0.0019   0.0071  -0.0003   0.0036   0.0000
  15 O   :3d2+  -0.0019   0.0000  -0.0000  -0.0000  -0.0000   0.0000   0.0037
  16 O   :3d0    0.0000  -0.0612  -0.0469   0.2551   0.0757   0.4030   0.0000
  17 O   :3d2+   0.0012  -0.0000   0.0000   0.0000  -0.0000  -0.0000   0.3312
  18 O   :3d0    0.0000   0.6967  -0.4471  -0.8052  -2.4776  -1.2047   0.0000
  19 O   :3d2+  -0.4922   0.0000  -0.0000  -0.0000  -0.0000   0.0000  -0.2073
  20 O   :3d0    0.0000   1.4814   0.1465   0.2720  -2.7901  -0.2813  -0.0000
  21 O   :3d2+   0.0186  -0.0000  -0.0000   0.0000  -0.0000   0.0000   0.7498
  22 O   :4f0    0.0000  -0.1501   0.1174  -0.2536   0.0047   0.6320   0.0000
  23 O   :4f2+   0.0774  -0.0000  -0.0000   0.0000  -0.0000  -0.0000  -1.2371
  24 O   :4f0    0.0000   1.2446  -0.4421   0.2479  -0.8250  -0.7041   0.0000
  25 O   :4f2+  -0.6909   0.0000  -0.0000   0.0000  -0.0000   0.0000   0.8964
  26 C   :1s    -0.0000  -0.3407  -3.8237   0.6168   4.3605   1.9852   0.0000
  27 C   :1s    -0.0000  -2.2019 -15.3010   2.8471  19.3343   8.6324   0.0000
  28 C   :1s    -0.0000  -2.1991   7.2605  -0.6399  -3.5350  -2.1927  -0.0000
  29 C   :1s     0.0000  10.1078 -13.0763  -2.4418   3.0425   3.0339   0.0000
  30 C   :1s    -0.0000   0.0280  -1.8982   0.2192   1.7292   0.8137   0.0000
  31 C   :1s    -0.0000  -0.0634  -0.2072   0.0550   0.3422   0.1566  -0.0000
  32 C   :1s     0.0000   1.3372  -5.0648  -0.5669   3.0055   1.3095  -0.0000
  33 C   :2pz    0.0000   3.3287   1.2362   2.8053  -0.3154   0.0997  -0.0000
  34 C   :2pz    0.0000  -6.7266  -6.0474  -8.0654  -9.2217  -3.7522   0.0000
  35 C   :2pz    0.0000  -3.7243  -5.1446  -3.4195   0.2020  -1.7271   0.0000
  36 C   :2pz   -0.0000  -0.1093  -0.0465  -0.0651  -0.0159  -0.0029   0.0000
  37 C   :2pz    0.0000  -0.0031  -0.0009  -0.0042   0.0004  -0.0003   0.0000
  38 C   :2pz    0.0000  -0.3563  -0.9933  -0.4314   0.1614   0.1696   0.0000
  39 C   :3d0    0.0000  -0.0063  -0.0034   0.0032   0.0058   0.0027   0.0000
  40 C   :3d2+   0.0011   0.0000   0.0000   0.0000   0.0000   0.0000   0.0014
  41 C   :3d0   -0.0000  -0.9011  -0.2633   0.7625   1.4120   0.5375   0.0000
  42 C   :3d2+   0.1504   0.0000   0.0000   0.0000  -0.0000  -0.0000   0.0840
  43 C   :3d0    0.0000   4.6593  -4.5423   0.0587   0.8124   2.4103   0.0000
  44 C   :3d2+   0.4412  -0.0000  -0.0000  -0.0000   0.0000  -0.0000  -0.4629
  45 C   :3d0    0.0000   2.1916  -0.5110  -0.4865   0.5057  -0.3720   0.0000
  46 C   :3d2+   0.1104  -0.0000  -0.0000  -0.0000   0.0000  -0.0000  -0.1475
  47 C   :4f0    0.0000  -0.6985  -0.5979  -1.9346  -1.1075  -0.1705   0.0000
  48 C   :4f2+  -1.3830   0.0000  -0.0000  -0.0000  -0.0000   0.0000  -0.2514
  49 C   :4f0   -0.0000   0.1639  -0.1810  -0.3076   1.0006  -1.4299   0.0000
  50 C   :4f2+   0.4552  -0.0000  -0.0000   0.0000   0.0000   0.0000   0.7061
  51 S   :1s     0.0000  -0.0568   0.0855   0.0462   0.0063   0.0259   0.0000
  52 S   :1s     0.0000  -0.8570   2.4383   1.2337   0.0874   0.4939  -0.0000
  53 S   :1s     0.0000  -2.3138   7.1289   3.9585   0.2959   1.4554  -0.0000
  54 S   :1s     0.0000  -0.0081  -4.2322  -1.2818  -0.4020  -0.0140   0.0000
  55 S   :1s    -0.0000  -0.4084  10.2908   1.3959  -1.4334  -2.2722  -0.0000
  56 S   :1s     0.0000  -0.0183   0.0340   0.0156   0.0009   0.0086  -0.0000
  57 S   :1s    -0.0000  -0.3581   2.0807   0.8421   0.0240   0.2537  -0.0000
  58 S   :1s    -0.0000   0.2346   6.1330   0.6982  -1.7619  -1.4732   0.0000
  59 S   :2pz    0.0000   0.0371  -3.7564  -1.0141  -0.3320   0.2791   0.0000
  60 S   :2pz    0.0000   0.1400 -14.0779  -4.5795  -1.4187   0.8797   0.0000
  61 S   :2pz   -0.0000   0.4490   4.7972   0.6908   0.2362  -0.5312  -0.0000
  62 S   :2pz    0.0000  -0.6277  -2.9772   0.7976   1.2019   1.6341  -0.0000
  63 S   :2pz    0.0000   0.0233  -0.0859  -0.0154  -0.0233   0.0172   0.0000
  64 S   :2pz    0.0000  -0.0604  -0.1901  -0.0642   0.0205  -0.0090  -0.0000
  65 S   :2pz    0.0000   0.0059  -0.6353   0.0896   0.2249   0.1981  -0.0000
  66 S   :3d0   -0.0000   0.0010   0.0047   0.0063   0.0030   0.0005   0.0000
  67 S   :3d2+   0.0001  -0.0000   0.0000   0.0000  -0.0000  -0.0000   0.0000
  68 S   :3d0   -0.0000   0.0602   0.1388   0.1257   0.0183  -0.0231   0.0000
  69 S   :3d2+   0.0175   0.0000  -0.0000   0.0000  -0.0000  -0.0000   0.0216
  70 S   :3d0   -0.0000   0.0812   0.6551   0.8155   0.3366   0.0680  -0.0000
  71 S   :3d2+   0.0464  -0.0000   0.0000   0.0000   0.0000   0.0000   0.0168
  72 S   :3d0   -0.0000   0.8961   4.3275   0.9362   0.6177  -0.4869  -0.0000
  73 S   :3d2+  -0.0776   0.0000   0.0000  -0.0000  -0.0000  -0.0000  -0.2149
  74 S   :3d0   -0.0000   0.0923   1.4919  -0.1236   0.0001  -0.5571   0.0000
  75 S   :3d2+  -0.1725   0.0000   0.0000   0.0000  -0.0000   0.0000   0.0411
  76 S   :4f0   -0.0000  -0.0020  -0.0011   0.0023   0.0023   0.0006  -0.0000
  77 S   :4f2+  -0.0021   0.0000  -0.0000  -0.0000  -0.0000   0.0000   0.0000
[...]
     130       0.00000000     0.00000000     0.00000000     0.00000000     1.00000000

               Column 131     Column 132     Column 133     Column 134     Column 135
     131       1.00000000     0.00000000     0.00000000     0.00000000     0.00000000
     132       0.00000000     1.00000000     0.00000000     0.00000000     0.00000000
     133       0.00000000     0.00000000     1.00000000     0.00000000     0.00000000
     134       0.00000000     0.00000000     0.00000000     1.00000000     0.00000000
     135       0.00000000     0.00000000     0.00000000     0.00000000     1.00000000

               Column 136     Column 137     Column 138     Column 139     Column 140
     136       1.00000000     0.00000000     0.00000000     0.00000000     0.00000000
     137       0.00000000     1.00000000     0.00000000     0.00000000     0.00000000
     138       0.00000000     0.00000000     1.00000000     0.00000000     0.00000000
     139       0.00000000     0.00000000     0.00000000     1.00000000     0.00000000
     140       0.00000000     0.00000000     0.00000000     0.00000000     1.00000000

               Column 141     Column 142     Column 143     Column 144     Column 145
     141       1.00000000     0.00000000     0.00000000     0.00000000     0.00000000
     142       0.00000000     1.00000000     0.00000000     0.00000000     0.00000000
     143       0.00000000     0.00000000     1.00000000     0.00000000     0.00000000
     144       0.00000000     0.00000000     0.00000000     1.00000000     0.00000000
     145       0.00000000     0.00000000     0.00000000     0.00000000     1.00000000

               Column 146     Column 147     Column 148     Column 149     Column 150
     146       1.00000000     0.00000000     0.00000000     0.00000000     0.00000000
     147       0.00000000     1.00000000     0.00000000     0.00000000     0.00000000
     148       0.00000000     0.00000000     1.00000000     0.00000000     0.00000000
     149       0.00000000     0.00000000     0.00000000     1.00000000     0.00000000
     150       0.00000000     0.00000000     0.00000000     0.00000000     1.00000000

               Column 151     Column 152     Column 153     Column 154     Column 155
     151       1.00000000     0.00000000     0.00000000     0.00000000     0.00000000
     152       0.00000000     1.00000000     0.00000000     0.00000000     0.00000000
     153       0.00000000     0.00000000     1.00000000     0.00000000     0.00000000
     154       0.00000000     0.00000000     0.00000000     1.00000000     0.00000000
     155       0.00000000     0.00000000     0.00000000     0.00000000     1.00000000

               Column 156     Column 157     Column 158     Column 159     Column 160
     156       1.00000000     0.00000000     0.00000000     0.00000000     0.00000000
     157       0.00000000     1.00000000     0.00000000     0.00000000     0.00000000
     158       0.00000000     0.00000000     1.00000000     0.00000000     0.00000000
     159       0.00000000     0.00000000     0.00000000     1.00000000     0.00000000
     160       0.00000000     0.00000000     0.00000000     0.00000000     1.00000000

               Column 161     Column 162     Column 163     Column 164     Column 165
     161       1.00000000     0.00000000     0.00000000     0.00000000     0.00000000
     162       0.00000000     1.00000000     0.00000000     0.00000000     0.00000000
     163       0.00000000     0.00000000     1.00000000     0.00000000     0.00000000
     164       0.00000000     0.00000000     0.00000000     1.00000000     0.00000000
     165       0.00000000     0.00000000     0.00000000     0.00000000     1.00000000

               Column 166     Column 167     Column 168     Column 169     Column 170
     166       1.00000000     0.00000000     0.00000000     0.00000000     0.00000000
     167       0.00000000     1.00000000     0.00000000     0.00000000     0.00000000
     168       0.00000000     0.00000000     1.00000000     0.00000000     0.00000000
     169       0.00000000     0.00000000     0.00000000     1.00000000     0.00000000
     170       0.00000000     0.00000000     0.00000000     0.00000000     1.00000000

               Column 171     Column 172     Column 173     Column 174     Column 175
     171       1.00000000     0.00000000     0.00000000     0.00000000     0.00000000
     172       0.00000000     1.00000000     0.00000000     0.00000000     0.00000000
     173       0.00000000     0.00000000     1.00000000     0.00000000     0.00000000
     174       0.00000000     0.00000000     0.00000000     1.00000000     0.00000000
     175       0.00000000     0.00000000     0.00000000     0.00000000     1.00000000

               Column 176     Column 177     Column 178     Column 179     Column 180
     176       1.00000000     0.00000000     0.00000000     0.00000000     0.00000000
     177       0.00000000     1.00000000     0.00000000     0.00000000     0.00000000
     178       0.00000000     0.00000000     1.00000000     0.00000000     0.00000000
     179       0.00000000     0.00000000     0.00000000     1.00000000     0.00000000
     180       0.00000000     0.00000000     0.00000000     0.00000000     1.00000000

               Column 181     Column 182     Column 183     Column 184     Column 185
     181       1.00000000     0.00000000     0.00000000     0.00000000     0.00000000
     182       0.00000000     1.00000000     0.00000000     0.00000000     0.00000000
     183       0.00000000     0.00000000     1.00000000     0.00000000     0.00000000
     184       0.00000000     0.00000000     0.00000000     1.00000000     0.00000000
     185       0.00000000     0.00000000     0.00000000     0.00000000     1.00000000

               Column 186     Column 187     Column 188     Column 189     Column 190
     186       1.00000000     0.00000000     0.00000000     0.00000000     0.00000000
     187       0.00000000     1.00000000     0.00000000     0.00000000     0.00000000
     188       0.00000000     0.00000000     1.00000000     0.00000000     0.00000000
     189       0.00000000     0.00000000     0.00000000     1.00000000     0.00000000
     190       0.00000000     0.00000000     0.00000000     0.00000000     1.00000000

               Column 191     Column 192     Column 193
     191       1.00000000     0.00000000     0.00000000
     192       0.00000000     1.00000000     0.00000000
     193       0.00000000     0.00000000     1.00000000
    ==== End of matrix output ====
 -----------------------------------------------------------------------------
@  1    -490.849101349        4.90038D+00   -4.91D+02    1
      Virial theorem: -V/T =      1.965222
@      MULPOP O      -0.06; C       0.15; S       0.91; 
 -----------------------------------------------------------------------------
@  2    -489.525110775        6.92456D+00    1.32D+00    2
      Virial theorem: -V/T =      1.932995
@      MULPOP O      -1.59; C      -0.35; S       2.94; 
 -----------------------------------------------------------------------------
@  3    -491.236640408        2.37261D+00   -1.71D+00    3
      Virial theorem: -V/T =      1.947490
@      MULPOP O      -0.88; C       1.48; S       0.41; 
 -----------------------------------------------------------------------------
@  4    -491.540700874        1.15845D+00   -3.04D-01    4
      Virial theorem: -V/T =      1.953131
@      MULPOP O      -0.73; C      -0.04; S       1.77; 
 -----------------------------------------------------------------------------
@  5    -491.627532058        1.03432D-01   -8.68D-02    5
      Virial theorem: -V/T =      1.953024
@      MULPOP O      -0.73; C       0.39; S       1.34; 
 -----------------------------------------------------------------------------
@  6    -491.627848589        4.83846D-02   -3.17D-04    6
      Virial theorem: -V/T =      1.952569
@      MULPOP O      -0.71; C       0.36; S       1.35; 
 -----------------------------------------------------------------------------
@  7    -491.627972318        6.37304D-03   -1.24D-04    7
      Virial theorem: -V/T =      1.952646
@      MULPOP O      -0.72; C       0.38; S       1.34; 
 -----------------------------------------------------------------------------
@  8    -491.627974165        1.00503D-03   -1.85D-06    8
      Virial theorem: -V/T =      1.952654
@      MULPOP O      -0.72; C       0.38; S       1.34; 
 -----------------------------------------------------------------------------
@  9    -491.627974226        2.00844D-04   -6.09D-08    9
      Virial theorem: -V/T =      1.952655
@      MULPOP O      -0.72; C       0.38; S       1.34; 
 -----------------------------------------------------------------------------
@ 10    -491.627974228        4.83844D-05   -2.15D-09   10
      Virial theorem: -V/T =      1.952654
@      MULPOP O      -0.72; C       0.38; S       1.34; 
 -----------------------------------------------------------------------------
@ 11    -491.627974229        1.63669D-05   -1.08D-10   10
      Virial theorem: -V/T =      1.952654
@      MULPOP O      -0.72; C       0.38; S       1.34; 
 -----------------------------------------------------------------------------
@ 12    -491.627974229        5.25317D-07   -1.93D-11   10

@ *** DIIS converged in  12 iterations !
@     Converged SCF energy, gradient:   -491.627974228585    5.25D-07
    - total time used in SIRFCK :              0.00 seconds


 *** SCF orbital energy analysis ***

 Orbital energy analysis for an open-shell system.
 Orbital energies are not well-defined for open-shell systems
   here is used block diagonalization of the FD=FC+FV Fock matrix.
 NOTE that Koopmans' theorem is not fulfilled for this case.

 Only the five lowest virtual orbital energies printed in each symmetry.

 Number of electrons :   28
 Orbital occupations :    8    3    3    0

 Sym       Kohn-Sham orbital energies

  1    -89.20690955   -10.67398725    -8.28326012    -6.24502965    -1.62842131
        -1.11361610    -0.99444897    -0.76926739   -21.29418094    -0.24224596
        -0.18334099    -0.11967049    -0.07964376    -0.07939195

  2     -6.24090907    -0.91656445    -0.60861583    -0.35063707    -0.11449235
        -0.06568663     0.01026601     0.06371856

  3     -6.24090907    -0.91656445    -0.60861583    -0.35063707    -0.11449235
        -0.06568663     0.01026601     0.06371856

  4     -0.07939201     0.06251353     0.27501234     0.39263381     0.50386678


    E(LUMO) :    -0.35063707 au (symmetry 2)
  - E(HOMO) :    -0.60861583 au (symmetry 2)
  ------------------------------------------
    gap     :     0.25797876 au

and E(SOMO) :   -21.29418094 au (symmetry 1)

 NOTE: MOLECULAR ORBITALS ARE NOT CANONICAL HARTREE-FOCK ORBITALS

 Largest off-diagonal Fock matrix element is  5.32D-01

 >>> Writing SIRIFC interface file <<<

 >>>> CPU and wall time for SCF :     127.207     135.670


                       .-----------------------------------.
                       | >>> Final results from SIRIUS <<< |
                       `-----------------------------------'


@    Spin multiplicity:           2
@    Spatial symmetry:            1
@    Total charge of molecule:    1

@    Final DFT energy:           -491.627974228585                 
@    Nuclear repulsion:            80.281643676153
@    Electronic energy:          -571.909617904738

@    Final gradient norm:           0.000000525317

 
     Date and time (Linux)  : Sun Sep  8 21:00:23 2013
     Host name              : lpqlx131.ups-tlse.fr                    

 (Only coefficients >0.0100 are printed.)

 Molecular orbitals for symmetry species  1
 ------------------------------------------

    Orbital         5        6        7        8        9       10       11
   1 O   :1s     0.0703   0.0143  -0.0119  -0.0078  -0.9974   0.0056   0.0027
   2 O   :1s    -0.7361  -0.1482   0.4932   0.0107   0.0258   0.3159  -0.0916
   3 O   :1s    -0.1089  -0.0266   0.0417   0.0128  -0.0160   0.0267  -0.0147
   4 O   :1s     0.1028  -0.0196   0.1632  -0.0302  -0.0157   0.1243  -0.3070
   5 O   :1s    -0.0030   0.0001   0.0107  -0.0024   0.0034   0.0081  -0.0008
   6 O   :1s     0.0109   0.0024  -0.0049  -0.0007   0.0072  -0.0014   0.0008
   7 O   :1s    -0.0025  -0.0185   0.0400  -0.0194  -0.0015   0.0765  -0.8749
   8 O   :2pz   -0.3642   0.1119  -1.0172   0.2093  -0.0043   0.3360   0.0391
   9 O   :2pz    0.0655  -0.0108   0.1841  -0.0427   0.0053  -0.0342  -0.0132
  10 O   :2pz    0.1049  -0.0327   0.2898  -0.0531  -0.0051  -0.0019  -0.1391
  13 O   :2pz    0.0051  -0.0053   0.0044  -0.0079  -0.0002   0.0169  -0.2277
  16 O   :3d0   -0.0099   0.0016  -0.0133   0.0022  -0.0001   0.0014  -0.0006
  18 O   :3d0   -0.0187   0.0014  -0.0094   0.0011   0.0003   0.0043  -0.0060
  20 O   :3d0    0.0012  -0.0018   0.0168  -0.0021  -0.0027   0.0034  -0.0354
  26 C   :1s     0.0403  -0.0142  -0.0058   0.0022   0.0004  -0.0206  -0.0217
  27 C   :1s    -0.3065   0.5150  -0.3521  -0.4411   0.0019  -0.5635  -0.4196
  28 C   :1s    -0.0221   0.0070  -0.0011  -0.0023   0.0003   0.0153  -0.0124
  29 C   :1s     0.0859  -0.0734   0.0468  -0.0020   0.0004  -0.4961   0.5949
  30 C   :1s     0.0086   0.0010  -0.0040  -0.0031   0.0003  -0.0105  -0.0073
  32 C   :1s    -0.0087   0.0425  -0.0123   0.0048   0.0013  -0.6102   1.8598
  33 C   :2pz    0.3357   0.3335   0.3839  -0.3962   0.0006  -0.1254  -0.2949
  34 C   :2pz   -0.0469  -0.0226   0.0230   0.0185   0.0006   0.0603   0.0049
  35 C   :2pz   -0.1320  -0.0835  -0.1386   0.0557   0.0037   0.0469  -0.0923
  38 C   :2pz   -0.0038   0.0078  -0.0027   0.0075   0.0002   0.0351   0.2263
  41 C   :3d0   -0.0281   0.0094  -0.0203   0.0054  -0.0005   0.0445  -0.0119
  43 C   :3d0   -0.0231   0.0103  -0.0115   0.0084  -0.0035   0.0784   0.0430
  45 C   :3d0    0.0103   0.0045  -0.0167  -0.0079   0.0014   0.0496   0.0995
  47 C   :4f0    0.0149   0.0088   0.0188  -0.0112   0.0001  -0.0008   0.0025
  49 C   :4f0    0.0050   0.0075  -0.0134  -0.0064   0.0032  -0.0136   0.0055
  52 S   :1s    -0.0080  -0.0268  -0.0029   0.0141  -0.0012   0.0388  -0.0551
  53 S   :1s    -0.0337   0.7197   0.2336   0.6911  -0.0033   0.4860  -0.2124
  54 S   :1s     0.0069   0.0173   0.0101  -0.0022   0.0001   0.0031   0.0391
  55 S   :1s     0.0242  -0.1346  -0.0154   0.1087   0.0009   0.1178  -0.1196
  57 S   :1s    -0.0041   0.0006   0.0027   0.0145  -0.0005   0.0191  -0.0346
  58 S   :1s     0.0218  -0.0514  -0.0055   0.0059   0.0001   0.0666  -0.3876
  59 S   :2pz    0.0025   0.0392   0.0117  -0.0467  -0.0002  -0.0021   0.0246
  60 S   :2pz    0.0202  -0.1709   0.0083   0.5568  -0.0007  -0.6847  -0.1345
  61 S   :2pz   -0.0001  -0.0273  -0.0108   0.0392   0.0007  -0.0100  -0.0290
  62 S   :2pz   -0.0281   0.0729   0.0089  -0.1490  -0.0015  -0.1678  -0.1552
  65 S   :2pz   -0.0039   0.0093   0.0035  -0.0033  -0.0002  -0.1348  -0.0525
  68 S   :3d0    0.0000   0.0058   0.0011  -0.0076   0.0000  -0.0137  -0.0222
  70 S   :3d0   -0.0046   0.0333   0.0014  -0.0415  -0.0001  -0.0798  -0.1366
  72 S   :3d0   -0.0016   0.0122  -0.0130  -0.0196   0.0009  -0.1127  -0.1849
  74 S   :3d0    0.0065  -0.0071  -0.0069   0.0037   0.0009  -0.0718  -0.1442
  78 S   :4f0    0.0016  -0.0100   0.0016   0.0091  -0.0001   0.0059   0.0185

 Molecular orbitals for symmetry species  2
 ------------------------------------------

    Orbital         1        2        3        4        5
   1 O   :2px   -0.0002   1.1227   0.4120  -0.4890   0.1266
   2 O   :2px    0.0004  -0.1536  -0.0495   0.0565  -0.0144
   3 O   :2px    0.0019  -0.1921  -0.0565   0.0351  -0.0393
   6 O   :2px    0.0002   0.0144   0.0130  -0.0346   0.0081
   8 O   :3d1+  -0.0001   0.0132  -0.0010   0.0065   0.0034
   9 O   :3d1+   0.0007   0.0244  -0.0002   0.0188   0.0030
  10 O   :3d1+   0.0013   0.0041  -0.0060   0.0212   0.0111
  15 C   :2px   -0.0004   0.4159  -0.4782   0.8733   0.1918
  16 C   :2px    0.0000  -0.0317   0.0079  -0.0241   0.0134
  17 C   :2px   -0.0003  -0.0701   0.0782   0.0340  -0.0518
  20 C   :2px   -0.0001   0.0012  -0.0082   0.0527  -0.7756
  22 C   :3d1+   0.0000  -0.0234  -0.0177   0.0025   0.0010
  23 C   :3d1+   0.0034  -0.0188  -0.0435   0.0198   0.0134
  24 C   :3d1+   0.0001   0.0485  -0.0017   0.0350   0.0782
  25 C   :4f1+  -0.0005   0.0141  -0.0083   0.0017   0.0073
  27 C   :4f1+   0.0012   0.0174   0.0128  -0.0142   0.0143
  29 S   :2px    1.0083  -0.0089   0.0192   0.0038   0.0085
  30 S   :2px   -0.0101   0.0470  -0.8198  -0.6387   0.2987
  31 S   :2px    0.0125   0.0086  -0.0135  -0.0093   0.0017
  32 S   :2px    0.0047  -0.0659   0.0830  -0.1159  -0.0655
  35 S   :2px   -0.0008  -0.0050   0.0084  -0.0451  -0.3076
  37 S   :3d1+  -0.0005  -0.0017   0.0058  -0.0125  -0.0027
  38 S   :3d1+  -0.0003  -0.0095   0.0349  -0.0754  -0.0153
  39 S   :3d1+   0.0023   0.0053   0.0395  -0.0883  -0.0122
  40 S   :3d1+  -0.0005   0.0212   0.0113  -0.0142   0.0200
  43 S   :4f1+  -0.0002  -0.0004  -0.0118   0.0139   0.0038

 Molecular orbitals for symmetry species  3
 ------------------------------------------

    Orbital         1        2        3        4        5
   1 O   :2py   -0.0002   1.1227   0.4120  -0.4890   0.1266
   2 O   :2py    0.0004  -0.1536  -0.0495   0.0565  -0.0144
   3 O   :2py    0.0019  -0.1921  -0.0565   0.0351  -0.0393
   6 O   :2py    0.0002   0.0144   0.0130  -0.0346   0.0081
   8 O   :3d1-  -0.0001   0.0132  -0.0010   0.0065   0.0034
   9 O   :3d1-   0.0007   0.0244  -0.0002   0.0188   0.0030
  10 O   :3d1-   0.0013   0.0041  -0.0060   0.0212   0.0111
  15 C   :2py   -0.0004   0.4159  -0.4782   0.8733   0.1918
  16 C   :2py    0.0000  -0.0317   0.0079  -0.0241   0.0134
  17 C   :2py   -0.0003  -0.0701   0.0782   0.0340  -0.0518
  20 C   :2py   -0.0001   0.0012  -0.0082   0.0527  -0.7756
  22 C   :3d1-   0.0000  -0.0234  -0.0177   0.0025   0.0010
  23 C   :3d1-   0.0034  -0.0188  -0.0435   0.0198   0.0134
  24 C   :3d1-   0.0001   0.0485  -0.0017   0.0350   0.0782
  26 C   :4f1-  -0.0005   0.0141  -0.0083   0.0017   0.0073
  28 C   :4f1-   0.0012   0.0174   0.0128  -0.0142   0.0143
  29 S   :2py    1.0083  -0.0089   0.0192   0.0038   0.0085
  30 S   :2py   -0.0101   0.0470  -0.8198  -0.6387   0.2987
  31 S   :2py    0.0125   0.0086  -0.0135  -0.0093   0.0017
  32 S   :2py    0.0047  -0.0659   0.0830  -0.1159  -0.0655
  35 S   :2py   -0.0008  -0.0050   0.0084  -0.0451  -0.3076
  37 S   :3d1-  -0.0005  -0.0017   0.0058  -0.0125  -0.0027
  38 S   :3d1-  -0.0003  -0.0095   0.0349  -0.0754  -0.0153
  39 S   :3d1-   0.0023   0.0053   0.0395  -0.0883  -0.0122
  40 S   :3d1-  -0.0005   0.0212   0.0113  -0.0142   0.0200
  44 S   :4f1-  -0.0002  -0.0004  -0.0118   0.0139   0.0038

 Molecular orbitals for symmetry species  4
 ------------------------------------------

    Orbital         1        2
   3 O   :3d2-   0.0173   0.0400
   4 O   :3d2-   0.0047   0.0820
   6 O   :4f2-   0.0055   0.0188
   8 C   :3d2-   0.0213   0.0268
   9 C   :3d2-   0.0495  -0.0053
  10 C   :3d2-   0.3507   1.1850
  12 C   :4f2-   0.0100   0.0459
  14 S   :3d2-   0.0258  -0.0181
  15 S   :3d2-   0.1600  -0.1121
  16 S   :3d2-   0.1649  -0.1194
  17 S   :3d2-   0.5328  -0.9244
  19 S   :4f2-  -0.0089  -0.0244
  20 S   :4f2-   0.0044   0.0572



 >>>> Total CPU  time used in SIRIUS :    127.23 seconds
 >>>> Total wall time used in SIRIUS :    135.70 seconds

 
     Date and time (Linux)  : Sun Sep  8 21:00:23 2013
     Host name              : lpqlx131.ups-tlse.fr                    


                     .---------------------------------------.
                     | End of Wave Function Section (SIRIUS) |
                     `---------------------------------------'

 >>>> Total CPU  time used in DALTON:  2 minutes 21 seconds
 >>>> Total wall time used in DALTON:  2 minutes 30 seconds

 
     Date and time (Linux)  : Sun Sep  8 21:00:23 2013
     Host name              : lpqlx131.ups-tlse.fr                    
