

     ************************************************************************
     *************** Dalton - An Electronic Structure Program ***************
     ************************************************************************

    This is output from DALTON (Release Dalton2013 patch 0)
   ----------------------------------------------------------------------------
    NOTE:
     
    Dalton is an experimental code for the evaluation of molecular
    properties using (MC)SCF, DFT, CI, and CC wave functions.
    The authors accept no responsibility for the performance of
    the code or for the correctness of the results.
     
    The code (in whole or part) is provided under a licence and
    is not to be reproduced for further distribution without
    the written permission of the authors or their representatives.
     
    See the home page "http://daltonprogram.org" for further information.
     
    If results obtained with this code are published,
    the appropriate citations would be both of:
     
       K. Aidas, C. Angeli, K. L. Bak, V. Bakken, R. Bast,
       L. Boman, O. Christiansen, R. Cimiraglia, S. Coriani,
       P. Dahle, E. K. Dalskov, U. Ekstroem, T. Enevoldsen,
       J. J. Eriksen, P. Ettenhuber, B. Fernandez, L. Ferrighi,
       H. Fliegl, L. Frediani, K. Hald, A. Halkier, C. Haettig,
       H. Heiberg, T. Helgaker, A. C. Hennum, H. Hettema,
       E. Hjertenaes, S. Hoest, I.-M. Hoeyvik, M. F. Iozzi,
       B. Jansik, H. J. Aa. Jensen, D. Jonsson, P. Joergensen,
       J. Kauczor, S. Kirpekar, T. Kjaergaard, W. Klopper,
       S. Knecht, R. Kobayashi, H. Koch, J. Kongsted, A. Krapp,
       K. Kristensen, A. Ligabue, O. B. Lutnaes, J. I. Melo,
       K. V. Mikkelsen, R. H. Myhre, C. Neiss, C. B. Nielsen,
       P. Norman, J. Olsen, J. M. H. Olsen, A. Osted,
       M. J. Packer, F. Pawlowski, T. B. Pedersen, P. F. Provasi,
       S. Reine, Z. Rinkevicius, T. A. Ruden, K. Ruud, V. Rybkin,
       P. Salek, C. C. M. Samson, A. Sanchez de Meras, T. Saue,
       S. P. A. Sauer, B. Schimmelpfennig, K. Sneskov,
       A. H. Steindal, K. O. Sylvester-Hvid, P. R. Taylor,
       A. M. Teale, E. I. Tellgren, D. P. Tew, A. J. Thorvaldsen,
       L. Thoegersen, O. Vahtras, M. A. Watson, D. J. D. Wilson,
       M. Ziolkowski and H. Agren.
       The Dalton quantum chemistry program system.
       WIREs Comput. Mol. Sci. 2013. doi: 10.1002/wcms.1172
    
    and
    
       Dalton, a Molecular Electronic Structure Program,
       Release DALTON2013.0 (2013), see http://daltonprogram.org
   ----------------------------------------------------------------------------

    Authors in alphabetical order (major contribution(s) in parenthesis):

  Kestutis Aidas,           Vilnius University,           Lithuania   (QM/MM)
  Celestino Angeli,         University of Ferrara,        Italy       (NEVPT2)
  Keld L. Bak,              UNI-C,                        Denmark     (AOSOPPA, non-adiabatic coupling, magnetic properties)
  Vebjoern Bakken,          University of Oslo,           Norway      (DALTON; geometry optimizer, symmetry detection)
  Radovan Bast,             KTH Stockholm                 Sweden      (DALTON installation and execution frameworks)
  Linus Boman,              NTNU,                         Norway      (Cholesky decomposition and subsystems)
  Ove Christiansen,         Aarhus University,            Denmark     (CC module)
  Renzo Cimiraglia,         University of Ferrara,        Italy       (NEVPT2)
  Sonia Coriani,            University of Trieste,        Italy       (CC module, MCD in RESPONS)
  Paal Dahle,               University of Oslo,           Norway      (Parallelization)
  Erik K. Dalskov,          UNI-C,                        Denmark     (SOPPA)
  Thomas Enevoldsen,        Univ. of Southern Denmark,    Denmark     (SOPPA)
  Janus J. Eriksen,         Aarhus University,            Denmark     (PE-MP2/SOPPA, TDA)
  Berta Fernandez,          U. of Santiago de Compostela, Spain       (doublet spin, ESR in RESPONS)
  Lara Ferrighi,            Aarhus University,            Denmark     (PCM Cubic response)
  Heike Fliegl,             University of Oslo,           Norway      (CCSD(R12))
  Luca Frediani,            UiT The Arctic U. of Norway,  Norway      (PCM)
  Bin Gao,                  UiT The Arctic U. of Norway,  Norway      (Gen1Int library)
  Christof Haettig,         Ruhr-University Bochum,       Germany     (CC module)
  Kasper Hald,              Aarhus University,            Denmark     (CC module)
  Asger Halkier,            Aarhus University,            Denmark     (CC module)
  Hanne Heiberg,            University of Oslo,           Norway      (geometry analysis, selected one-electron integrals)
  Trygve Helgaker,          University of Oslo,           Norway      (DALTON; ABACUS, ERI, DFT modules, London, and much more)
  Alf Christian Hennum,     University of Oslo,           Norway      (Parity violation)
  Hinne Hettema,            University of Auckland,       New Zealand (quadratic response in RESPONS; SIRIUS supersymmetry)
  Eirik Hjertenaes,         NTNU,                         Norway      (Cholesky decomposition)
  Maria Francesca Iozzi,    University of Oslo,           Norway      (RPA)
  Brano Jansik              Technical Univ. of Ostrava    Czech Rep.  (DFT cubic response)
  Hans Joergen Aa. Jensen,  Univ. of Southern Denmark,    Denmark     (DALTON; SIRIUS, RESPONS, ABACUS modules, London, and much more)
  Dan Jonsson,              UiT The Arctic U. of Norway,  Norway      (cubic response in RESPONS module)
  Poul Joergensen,          Aarhus University,            Denmark     (RESPONS, ABACUS, and CC modules)
  Joanna Kauczor,           Linkoeping University,        Sweden      (Complex polarization propagator (CPP) module)
  Sheela Kirpekar,          Univ. of Southern Denmark,    Denmark     (Mass-velocity & Darwin integrals)
  Wim Klopper,              KIT Karlsruhe,                Germany     (R12 code in CC, SIRIUS, and ABACUS modules)
  Stefan Knecht,            ETH Zurich,                   Switzerland (Parallel CI and MCSCF)
  Rika Kobayashi,           Australian National Univ.,    Australia   (DIIS in CC, London in MCSCF)
  Henrik Koch,              NTNU,                         Norway      (CC module, Cholesky decomposition)
  Jacob Kongsted,           Univ. of Southern Denmark,    Denmark     (Polarizable embedding, QM/MM)
  Andrea Ligabue,           University of Modena,         Italy       (CTOCD, AOSOPPA)
  Ola B. Lutnaes,           University of Oslo,           Norway      (DFT Hessian)
  Juan I. Melo,             University of Buenos Aires,   Argentina   (LRESC, Relativistic Effects on NMR Shieldings)
  Kurt V. Mikkelsen,        University of Copenhagen,     Denmark     (MC-SCRF and QM/MM)
  Rolf H. Myhre,            NTNU,                         Norway      (Cholesky, subsystems and ECC2)
  Christian Neiss,          Univ. Erlangen-Nuernberg,     Germany     (CCSD(R12))
  Christian B. Nielsen,     University of Copenhagen,     Denmark     (QM/MM)
  Patrick Norman,           Linkoeping University,        Sweden      (Cubic response and complex response in RESPONS)
  Jeppe Olsen,              Aarhus University,            Denmark     (SIRIUS CI/density modules)
  Jogvan Magnus H. Olsen,   Univ. of Southern Denmark,    Denmark     (Polarizable embedding, PE library, QM/MM)
  Anders Osted,             Copenhagen University,        Denmark     (QM/MM)
  Martin J. Packer,         University of Sheffield,      UK          (SOPPA)
  Filip Pawlowski,          Kazimierz Wielki University   Poland      (CC3)
  Thomas B. Pedersen,       University of Oslo,           Norway      (Cholesky decomposition)
  Patricio F. Provasi,      University of Northeastern,   Argentina   (Analysis of coupling constants in localized orbitals)
  Zilvinas Rinkevicius,     KTH Stockholm,                Sweden      (open-shell DFT, ESR)
  Elias Rudberg,            KTH Stockholm,                Sweden      (DFT grid and basis info)
  Torgeir A. Ruden,         University of Oslo,           Norway      (Numerical derivatives in ABACUS)
  Kenneth Ruud,             UiT The Arctic U. of Norway,  Norway      (DALTON; ABACUS magnetic properties and  much more)
  Pawel Salek,              KTH Stockholm,                Sweden      (DALTON; DFT code)
  Claire C. M. Samson       University of Karlsruhe       Germany     (Boys localization, r12 integrals in ERI)
  Alfredo Sanchez de Meras, University of Valencia,       Spain       (CC module, Cholesky decomposition)
  Trond Saue,               Paul Sabatier University,     France      (direct Fock matrix construction)
  Stephan P. A. Sauer,      University of Copenhagen,     Denmark     (SOPPA(CCSD), SOPPA prop., AOSOPPA, vibrational g-factors)
  Bernd Schimmelpfennig,    Forschungszentrum Karlsruhe,  Germany     (AMFI module)
  Kristian Sneskov,         Aarhus University,            Denmark     (QM/MM, PE-CC)
  Arnfinn H. Steindal,      UiT The Arctic U. of Norway,  Norway      (parallel QM/MM)
  K. O. Sylvester-Hvid,     University of Copenhagen,     Denmark     (MC-SCRF)
  Peter R. Taylor,          VLSCI/Univ. of Melbourne,     Australia   (Symmetry handling ABACUS, integral transformation)
  Andrew M. Teale,          University of Nottingham,     England     (DFT-AC, DFT-D)
  David P. Tew,             University of Bristol,        England     (CCSD(R12))
  Olav Vahtras,             KTH Stockholm,                Sweden      (triplet response, spin-orbit, ESR, TDDFT, open-shell DFT)
  David J. Wilson,          La Trobe University,          Australia   (DFT Hessian and DFT magnetizabilities)
  Hans Agren,               KTH Stockholm,                Sweden      (SIRIUS module, RESPONS, MC-SCRF solvation model)
 --------------------------------------------------------------------------------

     Date and time (Linux)  : Sun Sep  8 21:00:24 2013
     Host name              : lpqlx131.ups-tlse.fr                    

 * Work memory size             :    64000000 =  488.28 megabytes.

 * Directories for basis set searches:
   1) /home/bast/DALTON-2013.0-Source/build/test_dft_stex
   2) /home/bast/DALTON-2013.0-Source/build/basis


Compilation information
-----------------------

 Who compiled             | bast
 Host                     | lpqlx131.ups-tlse.fr
 System                   | Linux-3.8.5-201.fc18.x86_64
 CMake generator          | Unix Makefiles
 Processor                | x86_64
 64-bit integers          | OFF
 MPI                      | OFF
 Fortran compiler         | /usr/bin/gfortran
 Fortran compiler version | GNU Fortran (GCC) 4.7.2 20121109 (Red Hat 4.7.2-8)
 C compiler               | /usr/bin/gcc
 C compiler version       | gcc (GCC) 4.7.2 20121109 (Red Hat 4.7.2-8)
 C++ compiler             | /usr/bin/g++
 C++ compiler version     | g++ (GCC) 4.7.2 20121109 (Red Hat 4.7.2-8)
 Static linking           | OFF
 Last Git revision        | f34203295a86316e27f9e7b44f9b6769c4a046c0
 Configuration time       | 2013-09-08 20:31:27.952056


   Content of the .dal input file
 ----------------------------------

**DALTON                                          
.RUN WAVE FUNCTIONS                               
**WAVE FUNCTION                                   
.DFT                                              
 B3LYP                                            
*SCF INPUT                                        
.DOUBLY OCCUPIED                                  
 8 3 3 0                                          
.SINGLY OCCUPIED                                  
 1 0 0 0                                          
*ORBITAL INPUT                                    
.MOSTART                                          
 NEWORB                                           
.NOSUPS                                           
.FREEZE                                           
 8 3 3 0                                          
 1 2 3 4 5 6 7 8                                  
 1 2 3                                            
 1 2 3                                            
**END OF DALTON INPUT                             


   Content of the .mol file
 ----------------------------

BASIS                                                                          
aug-cc-pCVTZ                                                                   
OCS                                                                            
===========                                                                    
Atomtypes=3 Angstrom Generators=2 X Y                                          
Charge=8.0 Atoms=1                                                             
O 0.000 0.000 -1.1239                                                          
Charge=6.0 Atoms=1                                                             
C 0.000 0.000 0.000                                                            
Charge=16.0 Atoms=1                                                            
S 0.0 0.0 1.5640                                                               


       *******************************************************************
       *********** Output from DALTON general input processing ***********
       *******************************************************************

 --------------------------------------------------------------------------------
   Overall default print level:    0
   Print level for DALTON.STAT:    1

    HERMIT 1- and 2-electron integral sections will be executed
    "Old" integral transformation used (limited to max 255 basis functions)
    Wave function sections will be executed (SIRIUS module)
 --------------------------------------------------------------------------------


   ****************************************************************************
   *************** Output of molecule and basis set information ***************
   ****************************************************************************


    The two title cards from your ".mol" input:
    ------------------------------------------------------------------------
 1: OCS                                                                     
 2: ===========                                                             
    ------------------------------------------------------------------------

  Coordinates are entered in Angstrom and converted to atomic units.
          - Conversion factor : 1 bohr = 0.52917721 A

  Atomic type no.    1
  --------------------
  Nuclear charge:   8.00000
  Number of symmetry independent centers:    1
  Number of basis sets to read;    1
  Basis set file used for this atomic type with Z =   8 :
     "/home/bast/DALTON-2013.0-Source/build/basis/aug-cc-pCVTZ"

  Atomic type no.    2
  --------------------
  Nuclear charge:   6.00000
  Number of symmetry independent centers:    1
  Number of basis sets to read;    1
  Basis set file used for this atomic type with Z =   6 :
     "/home/bast/DALTON-2013.0-Source/build/basis/aug-cc-pCVTZ"

  Atomic type no.    3
  --------------------
  Nuclear charge:  16.00000
  Number of symmetry independent centers:    1
  Number of basis sets to read;    1
  Basis set file used for this atomic type with Z =  16 :
     "/home/bast/DALTON-2013.0-Source/build/basis/aug-cc-pCVTZ"


                         SYMGRP: Point group information
                         -------------------------------

Point group: C2v

   * The point group was generated by:

      Reflection in the yz-plane
      Reflection in the xz-plane

   * Group multiplication table

        |  E   C2z  Oxz  Oyz
   -----+--------------------
     E  |  E   C2z  Oxz  Oyz
    C2z | C2z   E   Oyz  Oxz
    Oxz | Oxz  Oyz   E   C2z
    Oyz | Oyz  Oxz  C2z   E 

   * Character table

        |  E   C2z  Oxz  Oyz
   -----+--------------------
    A1  |   1    1    1    1
    B1  |   1   -1    1   -1
    B2  |   1   -1   -1    1
    A2  |   1    1   -1   -1

   * Direct product table

        | A1   B1   B2   A2 
   -----+--------------------
    A1  | A1   B1   B2   A2 
    B1  | B1   A1   A2   B2 
    B2  | B2   A2   A1   B1 
    A2  | A2   B2   B1   A1 


                                 Isotopic Masses
                                 ---------------

                           O          15.994915
                           C          12.000000
                           S          31.972072

                       Total mass:    59.966987 amu
                       Natural abundance:  93.749 %

 Center-of-mass coordinates (a.u.):    0.000000    0.000000    1.009280


  Atoms and basis sets
  --------------------

  Number of atom types :    3
  Total number of atoms:    3

  Basis set used is "aug-cc-pCVTZ" from the basis set library.

  label    atoms   charge   prim   cont     basis
  ----------------------------------------------------------------------
  O           1    8.0000    71    59      [13s8p4d2f|7s6p4d2f]                               
  C           1    6.0000    71    59      [13s8p4d2f|7s6p4d2f]                               
  S           1   16.0000   100    75      [18s12p5d3f|8s7p5d3f]                              
  ----------------------------------------------------------------------
  total:      3   30.0000   242   193
  ----------------------------------------------------------------------
  Spherical harmonic basis used.

  Threshold for neglecting AO integrals:  1.00D-12


  Cartesian Coordinates (a.u.)
  ----------------------------

  Total number of coordinates:    9
  O       :     1  x   0.0000000000    2  y   0.0000000000    3  z  -2.1238631919
  C       :     4  x   0.0000000000    5  y   0.0000000000    6  z   0.0000000000
  S       :     7  x   0.0000000000    8  y   0.0000000000    9  z   2.9555316595


  Symmetry Coordinates
  --------------------

  Number of coordinates in each symmetry:     3    3    3    0

  Symmetry  A1  ( 1)

    1   O     z    3
    2   C     z    6
    3   S     z    9

  Symmetry  B1  ( 2)

    4   O     x    1
    5   C     x    4
    6   S     x    7

  Symmetry  B2  ( 3)

    7   O     y    2
    8   C     y    5
    9   S     y    8


   Interatomic separations (in Angstrom):
   --------------------------------------

            O           C           S     
            ------      ------      ------
 O     :    0.000000
 C     :    1.123900    0.000000
 S     :    2.687900    1.564000    0.000000


  Max    interatomic separation is    2.6879 Angstrom (    5.0794 Bohr)
  between atoms    3 and    1, "S     " and "O     ".

  Min YX interatomic separation is    1.1239 Angstrom (    2.1239 Bohr)


  Bond distances (Angstrom):
  --------------------------

                  atom 1     atom 2       distance
                  ------     ------       --------
  bond distance:  C          O            1.123900
  bond distance:  S          C            1.564000


  Bond angles (degrees):
  ----------------------

                  atom 1     atom 2     atom 3         angle
                  ------     ------     ------         -----
  bond angle:     O          C          S            180.000




 Principal moments of inertia (u*A**2) and principal axes
 --------------------------------------------------------

   IA       0.000000          0.000000    0.000000    1.000000
   IB      81.305184          0.000000    1.000000    0.000000
   IC      81.305184          1.000000    0.000000    0.000000


 Rotational constants
 --------------------

 The molecule is linear.

               B =         6215.83 MHz     (    0.207338 cm-1)


@  Nuclear repulsion energy :   80.281643676153 Hartree


  Symmetry Orbitals
  -----------------

  Number of orbitals in each symmetry:          81   46   46   20


  Symmetry  A1 ( 1)

    1     O        1s         1
    2     O        1s         2
    3     O        1s         3
    4     O        1s         4
    5     O        1s         5
    6     O        1s         6
    7     O        1s         7
    8     O        2pz       10
    9     O        2pz       13
   10     O        2pz       16
   11     O        2pz       19
   12     O        2pz       22
   13     O        2pz       25
   14     O        3d0       28
   15     O        3d2+      30
   16     O        3d0       33
   17     O        3d2+      35
   18     O        3d0       38
   19     O        3d2+      40
   20     O        3d0       43
   21     O        3d2+      45
   22     O        4f0       49
   23     O        4f2+      51
   24     O        4f0       56
   25     O        4f2+      58
   26     C        1s        60
   27     C        1s        61
   28     C        1s        62
   29     C        1s        63
   30     C        1s        64
   31     C        1s        65
   32     C        1s        66
   33     C        2pz       69
   34     C        2pz       72
   35     C        2pz       75
   36     C        2pz       78
   37     C        2pz       81
   38     C        2pz       84
   39     C        3d0       87
   40     C        3d2+      89
   41     C        3d0       92
   42     C        3d2+      94
   43     C        3d0       97
   44     C        3d2+      99
   45     C        3d0      102
   46     C        3d2+     104
   47     C        4f0      108
   48     C        4f2+     110
   49     C        4f0      115
   50     C        4f2+     117
   51     S        1s       119
   52     S        1s       120
   53     S        1s       121
   54     S        1s       122
   55     S        1s       123
   56     S        1s       124
   57     S        1s       125
   58     S        1s       126
   59     S        2pz      129
   60     S        2pz      132
   61     S        2pz      135
   62     S        2pz      138
   63     S        2pz      141
   64     S        2pz      144
   65     S        2pz      147
   66     S        3d0      150
   67     S        3d2+     152
   68     S        3d0      155
   69     S        3d2+     157
   70     S        3d0      160
   71     S        3d2+     162
   72     S        3d0      165
   73     S        3d2+     167
   74     S        3d0      170
   75     S        3d2+     172
   76     S        4f0      176
   77     S        4f2+     178
   78     S        4f0      183
   79     S        4f2+     185
   80     S        4f0      190
   81     S        4f2+     192


  Symmetry  B1 ( 2)

   82     O        2px        8
   83     O        2px       11
   84     O        2px       14
   85     O        2px       17
   86     O        2px       20
   87     O        2px       23
   88     O        3d1+      29
   89     O        3d1+      34
   90     O        3d1+      39
   91     O        3d1+      44
   92     O        4f1+      50
   93     O        4f3+      52
   94     O        4f1+      57
   95     O        4f3+      59
   96     C        2px       67
   97     C        2px       70
   98     C        2px       73
   99     C        2px       76
  100     C        2px       79
  101     C        2px       82
  102     C        3d1+      88
  103     C        3d1+      93
  104     C        3d1+      98
  105     C        3d1+     103
  106     C        4f1+     109
  107     C        4f3+     111
  108     C        4f1+     116
  109     C        4f3+     118
  110     S        2px      127
  111     S        2px      130
  112     S        2px      133
  113     S        2px      136
  114     S        2px      139
  115     S        2px      142
  116     S        2px      145
  117     S        3d1+     151
  118     S        3d1+     156
  119     S        3d1+     161
  120     S        3d1+     166
  121     S        3d1+     171
  122     S        4f1+     177
  123     S        4f3+     179
  124     S        4f1+     184
  125     S        4f3+     186
  126     S        4f1+     191
  127     S        4f3+     193


  Symmetry  B2 ( 3)

  128     O        2py        9
  129     O        2py       12
  130     O        2py       15
  131     O        2py       18
  132     O        2py       21
  133     O        2py       24
  134     O        3d1-      27
  135     O        3d1-      32
  136     O        3d1-      37
  137     O        3d1-      42
  138     O        4f3-      46
  139     O        4f1-      48
  140     O        4f3-      53
  141     O        4f1-      55
  142     C        2py       68
  143     C        2py       71
  144     C        2py       74
  145     C        2py       77
  146     C        2py       80
  147     C        2py       83
  148     C        3d1-      86
  149     C        3d1-      91
  150     C        3d1-      96
  151     C        3d1-     101
  152     C        4f3-     105
  153     C        4f1-     107
  154     C        4f3-     112
  155     C        4f1-     114
  156     S        2py      128
  157     S        2py      131
  158     S        2py      134
  159     S        2py      137
  160     S        2py      140
  161     S        2py      143
  162     S        2py      146
  163     S        3d1-     149
  164     S        3d1-     154
  165     S        3d1-     159
  166     S        3d1-     164
  167     S        3d1-     169
  168     S        4f3-     173
  169     S        4f1-     175
  170     S        4f3-     180
  171     S        4f1-     182
  172     S        4f3-     187
  173     S        4f1-     189


  Symmetry  A2 ( 4)

  174     O        3d2-      26
  175     O        3d2-      31
  176     O        3d2-      36
  177     O        3d2-      41
  178     O        4f2-      47
  179     O        4f2-      54
  180     C        3d2-      85
  181     C        3d2-      90
  182     C        3d2-      95
  183     C        3d2-     100
  184     C        4f2-     106
  185     C        4f2-     113
  186     S        3d2-     148
  187     S        3d2-     153
  188     S        3d2-     158
  189     S        3d2-     163
  190     S        3d2-     168
  191     S        4f2-     174
  192     S        4f2-     181
  193     S        4f2-     188

  Symmetries of electric field:  B1 (2)  B2 (3)  A1 (1)

  Symmetries of magnetic field:  B2 (3)  B1 (2)  A2 (4)


                     .---------------------------------------.
                     | Starting in Integral Section (HERMIT) |
                     `---------------------------------------'



    *************************************************************************
    ****************** Output from HERMIT input processing ******************
    *************************************************************************



     ************************************************************************
     ************************** Output from HERINT **************************
     ************************************************************************


 Threshold for neglecting two-electron integrals:  1.00D-12
 Number of two-electron integrals written:    31358623 ( 17.9% )
 Megabytes written:                            359.075

 >>>  Time used in TWOINT     is  13.75 seconds
 >>>> Total CPU  time used in HERMIT:  13.95 seconds
 >>>> Total wall time used in HERMIT:  14.11 seconds


                        .----------------------------------.
                        | End of Integral Section (HERMIT) |
                        `----------------------------------'



                   .--------------------------------------------.
                   | Starting in Wave Function Section (SIRIUS) |
                   `--------------------------------------------'


 **********************************************************************
 *SIRIUS* a direct, restricted step, second order MCSCF program       *
 **********************************************************************

 
     Date and time (Linux)  : Sun Sep  8 21:00:38 2013
     Host name              : lpqlx131.ups-tlse.fr                    

 Title lines from ".mol" input file:
     OCS                                                                     
     ===========                                                             

 Print level on unit LUPRI =   2 is   0
 Print level on unit LUW4  =   2 is   5

@    Restricted, one open shell Kohn-Sham DFT calculation.

 Initial molecular orbitals are obtained according to
 ".MOSTART NEWORB" input option

     Wave function specification
     ============================
@    For the wave function of type :      >>> KS-DFT <<<
@    Number of closed shell electrons          28
@    Number of electrons in active shells       1
@    Total charge of the molecule               1

@    Spin multiplicity and 2 M_S                2         1
     Total number of symmetries                 4
@    Reference state symmetry                   1
 
     This is a DFT calculation of type: B3LYP
 Weighted mixed functional:
               HF exchange:    0.20000
                       VWN:    0.19000
                       LYP:    0.81000
                     Becke:    0.72000
                    Slater:    0.80000

     Orbital specifications
     ======================
     Abelian symmetry species          All |    1    2    3    4
                                       --- |  ---  ---  ---  ---
@    Occupied SCF orbitals              14 |    8    3    3    0
@    Open shell SCF orbitals             1 |    1    0    0    0
     Secondary orbitals                178 |   72   43   43   20
     Total number of orbitals          193 |   81   46   46   20
     Number of basis functions         193 |   81   46   46   20

     Optimization information
     ========================
@    Number of configurations                 1
@    Number of orbital rotations             72
     ------------------------------------------
@    Total number of variables               73

     Maximum number of Fock   iterations      0
     Maximum number of DIIS   iterations     60
     Maximum number of QC-SCF iterations     60
     Threshold for SCF convergence     1.00D-05

@    Number of orbitals frozen with ".FREEZE" 14

     Orbital  Symmetry   No. in   Type
       no.              symmetry
         1         1         1   inactive 
         2         1         2   inactive 
         3         1         3   inactive 
         4         1         4   inactive 
         5         1         5   inactive 
         6         1         6   inactive 
         7         1         7   inactive 
         8         1         8   inactive 
        82         2         1   inactive 
        83         2         2   inactive 
        84         2         3   inactive 
       128         3         1   inactive 
       129         3         2   inactive 
       130         3         3   inactive 
 
     This is a DFT calculation of type: B3LYP
 Weighted mixed functional:
               HF exchange:    0.20000
                       VWN:    0.19000
                       LYP:    0.81000
                     Becke:    0.72000
                    Slater:    0.80000


 >>>>> DIIS optimization of Hartree-Fock <<<<<

 C1-DIIS algorithm; max error vectors =   10

 Iter      Total energy        Error norm    Delta(E)  DIIS dim.


                                  Start orbitals
                                  --------------


 Molecular orbitals for symmetry species  1
 ------------------------------------------

    Orbital         1        2        3        4        5        6        7
   1 O   :1s    -0.0002   0.0006   0.0005   0.0015   0.0703   0.0143  -0.0119
   2 O   :1s    -0.0006   0.0007   0.0021   0.0059  -0.7361  -0.1482   0.4932
   3 O   :1s     0.0002  -0.0010  -0.0005  -0.0016  -0.1089  -0.0266   0.0417
   4 O   :1s    -0.0002  -0.0081   0.0015   0.0006   0.1028  -0.0196   0.1632
   5 O   :1s    -0.0001   0.0002   0.0002   0.0006  -0.0030   0.0001   0.0107
   6 O   :1s     0.0000   0.0000   0.0000   0.0001   0.0109   0.0024  -0.0049
   7 O   :1s    -0.0006  -0.0031   0.0051  -0.0005  -0.0025  -0.0185   0.0400
   8 O   :2pz    0.0000  -0.0011   0.0000   0.0001  -0.3642   0.1119  -1.0172
   9 O   :2pz   -0.0002   0.0017   0.0003   0.0005   0.0655  -0.0108   0.1841
  10 O   :2pz    0.0003  -0.0038  -0.0035  -0.0026   0.1049  -0.0327   0.2898
  11 O   :2pz   -0.0000   0.0000  -0.0000  -0.0000  -0.0023   0.0010  -0.0075
  12 O   :2pz    0.0000  -0.0000   0.0000   0.0000  -0.0002   0.0001  -0.0005
  13 O   :2pz   -0.0001  -0.0009   0.0013  -0.0014   0.0051  -0.0053   0.0044
  14 O   :3d0    0.0000  -0.0000  -0.0000  -0.0000  -0.0005   0.0000  -0.0008
  16 O   :3d0   -0.0000  -0.0000   0.0000   0.0001  -0.0099   0.0016  -0.0133
  18 O   :3d0   -0.0000   0.0019  -0.0002  -0.0003  -0.0187   0.0014  -0.0094
  20 O   :3d0    0.0002  -0.0004  -0.0019  -0.0009   0.0012  -0.0018   0.0168
  22 O   :4f0   -0.0000   0.0001   0.0000  -0.0001  -0.0038   0.0002  -0.0033
  24 O   :4f0    0.0000   0.0012  -0.0002   0.0001  -0.0045  -0.0008  -0.0015
  26 C   :1s     0.0001  -0.9986   0.0007  -0.0009   0.0403  -0.0142  -0.0058
  27 C   :1s     0.0002   0.0282   0.0022  -0.0060  -0.3065   0.5150  -0.3521
  28 C   :1s    -0.0002  -0.0239  -0.0002   0.0016  -0.0221   0.0070  -0.0011
  29 C   :1s    -0.0009   0.0168   0.0160  -0.0245   0.0859  -0.0734   0.0468
  30 C   :1s     0.0000   0.0061   0.0002  -0.0006   0.0086   0.0010  -0.0040
  31 C   :1s     0.0000   0.0090   0.0000   0.0000   0.0010   0.0001  -0.0017
  32 C   :1s     0.0001   0.0061   0.0002  -0.0022  -0.0087   0.0425  -0.0123
  33 C   :2pz    0.0001   0.0055  -0.0008  -0.0014   0.3357   0.3335   0.3839
  34 C   :2pz    0.0001   0.0028  -0.0008  -0.0040  -0.0469  -0.0226   0.0230
  35 C   :2pz   -0.0017   0.0039   0.0175  -0.0062  -0.1320  -0.0835  -0.1386
  36 C   :2pz   -0.0000   0.0005   0.0000   0.0000   0.0018   0.0018   0.0013
  37 C   :2pz    0.0000  -0.0000  -0.0000   0.0000   0.0003   0.0002   0.0003
  38 C   :2pz    0.0000   0.0011  -0.0002   0.0006  -0.0038   0.0078  -0.0027
  39 C   :3d0   -0.0000   0.0000  -0.0000  -0.0000  -0.0006   0.0002  -0.0003
  41 C   :3d0    0.0000  -0.0021  -0.0000  -0.0000  -0.0281   0.0094  -0.0203
  43 C   :3d0    0.0002   0.0079  -0.0005  -0.0033  -0.0231   0.0103  -0.0115
  45 C   :3d0    0.0000  -0.0002   0.0000  -0.0031   0.0103   0.0045  -0.0167
  47 C   :4f0   -0.0000   0.0011   0.0001   0.0004   0.0149   0.0088   0.0188
  49 C   :4f0   -0.0002   0.0007   0.0013   0.0029   0.0050   0.0075  -0.0134
  51 S   :1s     0.9994  -0.0001   0.0082  -0.0003  -0.0006  -0.0011  -0.0002
  52 S   :1s     0.0016  -0.0030  -0.9642   0.0005  -0.0080  -0.0268  -0.0029
  53 S   :1s    -0.0026  -0.0090   0.0207  -0.0124  -0.0337   0.7197   0.2336
  54 S   :1s     0.0025   0.0040  -0.0302   0.0023   0.0069   0.0173   0.0101
  55 S   :1s     0.0030  -0.0133  -0.0322   0.0348   0.0242  -0.1346  -0.0154
  56 S   :1s     0.0025  -0.0000  -0.0011  -0.0001  -0.0001  -0.0021  -0.0006
  57 S   :1s    -0.0054  -0.0023  -0.0091  -0.0020  -0.0041   0.0006   0.0027
  58 S   :1s     0.0002  -0.0084  -0.0036   0.0027   0.0218  -0.0514  -0.0055
  59 S   :2pz   -0.0003   0.0046   0.0050   1.0055   0.0025   0.0392   0.0117
  60 S   :2pz    0.0003   0.0173   0.0010  -0.0174   0.0202  -0.1709   0.0083
  61 S   :2pz   -0.0001  -0.0050   0.0000   0.0174  -0.0001  -0.0273  -0.0108
  62 S   :2pz   -0.0009   0.0053   0.0119  -0.0084  -0.0281   0.0729   0.0089
  63 S   :2pz    0.0002   0.0001   0.0003  -0.0076   0.0006   0.0006   0.0006
  64 S   :2pz    0.0002   0.0002   0.0002  -0.0092  -0.0008  -0.0017  -0.0006
  65 S   :2pz   -0.0000   0.0011   0.0006  -0.0004  -0.0039   0.0093   0.0035
  66 S   :3d0    0.0000  -0.0000  -0.0000  -0.0002  -0.0001   0.0003  -0.0000
  68 S   :3d0    0.0000   0.0000  -0.0002  -0.0005   0.0000   0.0058   0.0011
  70 S   :3d0    0.0000  -0.0008  -0.0004  -0.0014  -0.0046   0.0333   0.0014
  72 S   :3d0   -0.0001  -0.0053  -0.0002   0.0060  -0.0016   0.0122  -0.0130
  74 S   :3d0    0.0002  -0.0027  -0.0030   0.0034   0.0065  -0.0071  -0.0069
  76 S   :4f0   -0.0000   0.0000   0.0000   0.0001  -0.0000  -0.0002  -0.0000
  78 S   :4f0    0.0000   0.0005   0.0001   0.0000   0.0016  -0.0100   0.0016
  80 S   :4f0    0.0000   0.0014  -0.0000  -0.0020  -0.0008   0.0055   0.0046

    Orbital         8        9       10       11       12       13       14
   1 O   :1s    -0.0078  -0.9974   0.0056   0.0027  -0.0076   0.0029   0.0000
   2 O   :1s     0.0107   0.0258   0.3159  -0.0916  -0.1965   0.0187  -0.0000
   3 O   :1s     0.0128  -0.0160   0.0267  -0.0147  -0.0103   0.0044  -0.0000
   4 O   :1s    -0.0302  -0.0157   0.1243  -0.3070  -0.0784  -0.7333  -0.0000
   5 O   :1s    -0.0024   0.0034   0.0081  -0.0008  -0.0065   0.0007   0.0000
   6 O   :1s    -0.0007   0.0072  -0.0014   0.0008   0.0006   0.0004  -0.0000
   7 O   :1s    -0.0194  -0.0015   0.0765  -0.8749   0.4820  -2.4336  -0.0000
   8 O   :2pz    0.2093  -0.0043   0.3360   0.0391   0.0291   0.3144   0.0000
   9 O   :2pz   -0.0427   0.0053  -0.0342  -0.0132  -0.0064  -0.0908  -0.0000
  10 O   :2pz   -0.0531  -0.0051  -0.0019  -0.1391   0.0639  -0.4697  -0.0000
  11 O   :2pz    0.0013  -0.0003   0.0019   0.0001   0.0003   0.0009  -0.0000
  12 O   :2pz    0.0001  -0.0000   0.0001   0.0000   0.0000   0.0001   0.0000
  13 O   :2pz   -0.0079  -0.0002   0.0169  -0.2277   0.2094  -0.7138  -0.0000
  14 O   :3d0    0.0002  -0.0000   0.0001  -0.0001   0.0000   0.0001   0.0000
  15 O   :3d2+   0.0000  -0.0000  -0.0000  -0.0000  -0.0000   0.0000   0.0002
  16 O   :3d0    0.0022  -0.0001   0.0014  -0.0006   0.0003   0.0026  -0.0000
  17 O   :3d2+  -0.0000   0.0000  -0.0000   0.0000  -0.0000  -0.0000   0.0021
  18 O   :3d0    0.0011   0.0003   0.0043  -0.0060  -0.0047  -0.0363  -0.0000
  19 O   :3d2+   0.0000  -0.0000   0.0000  -0.0000  -0.0000   0.0000   0.0173
  20 O   :3d0   -0.0021  -0.0027   0.0034  -0.0354   0.0357  -0.0623   0.0000
  21 O   :3d2+   0.0000  -0.0000  -0.0000  -0.0000   0.0000  -0.0000   0.0047
  22 O   :4f0    0.0007   0.0001   0.0012   0.0004  -0.0007  -0.0022  -0.0000
  23 O   :4f2+  -0.0000   0.0000   0.0000   0.0000  -0.0000   0.0000   0.0011
  24 O   :4f0    0.0007  -0.0002   0.0015  -0.0002   0.0001  -0.0077   0.0000
  25 O   :4f2+   0.0000  -0.0000  -0.0000  -0.0000   0.0000  -0.0000   0.0055
  26 C   :1s     0.0022   0.0004  -0.0206  -0.0217  -0.0061   0.0744  -0.0000
  27 C   :1s    -0.4411   0.0019  -0.5635  -0.4196  -0.0121   0.2358  -0.0000
  28 C   :1s    -0.0023   0.0003   0.0153  -0.0124   0.0100  -0.0546  -0.0000
  29 C   :1s    -0.0020   0.0004  -0.4961   0.5949  -1.3024   0.9047   0.0000
  30 C   :1s    -0.0031   0.0003  -0.0105  -0.0073  -0.0031   0.0290  -0.0000
  31 C   :1s    -0.0002   0.0000  -0.0011  -0.0024  -0.0002   0.0059  -0.0000
  32 C   :1s     0.0048   0.0013  -0.6102   1.8598  -2.8529   2.6343   0.0000
  33 C   :2pz   -0.3962   0.0006  -0.1254  -0.2949  -0.0587   0.0857   0.0000
  34 C   :2pz    0.0185   0.0006   0.0603   0.0049  -0.0321  -0.2060  -0.0000
  35 C   :2pz    0.0557   0.0037   0.0469  -0.0923  -0.7209  -0.8255  -0.0000
  36 C   :2pz   -0.0015  -0.0000   0.0006  -0.0001  -0.0005  -0.0006  -0.0000
  37 C   :2pz   -0.0002   0.0000  -0.0001  -0.0001  -0.0000  -0.0000   0.0000
  38 C   :2pz    0.0075   0.0002   0.0351   0.2263  -1.3759  -1.1622   0.0000
  39 C   :3d0    0.0001  -0.0000   0.0010  -0.0002  -0.0002   0.0005   0.0000
  40 C   :3d2+   0.0000  -0.0000  -0.0000  -0.0000  -0.0000   0.0000   0.0004
  41 C   :3d0    0.0054  -0.0005   0.0445  -0.0119  -0.0055   0.0381  -0.0000
  42 C   :3d2+   0.0000  -0.0000   0.0000  -0.0000   0.0000   0.0000   0.0213
  43 C   :3d0    0.0084  -0.0035   0.0784   0.0430  -0.0709   0.1330   0.0000
  44 C   :3d2+   0.0000  -0.0000  -0.0000   0.0000  -0.0000   0.0000   0.0495
  45 C   :3d0   -0.0079   0.0014   0.0496   0.0995  -0.1389   0.1967   0.0000
  46 C   :3d2+   0.0000  -0.0000   0.0000  -0.0000  -0.0000   0.0000   0.3507
  47 C   :4f0   -0.0112   0.0001  -0.0008   0.0025  -0.0003  -0.0142  -0.0000
  48 C   :4f2+  -0.0000   0.0000  -0.0000   0.0000  -0.0000   0.0000   0.0059
  49 C   :4f0   -0.0064   0.0032  -0.0136   0.0055  -0.0097  -0.0183  -0.0000
  50 C   :4f2+   0.0000  -0.0000  -0.0000  -0.0000   0.0000  -0.0000   0.0100
  51 S   :1s     0.0003  -0.0001   0.0013  -0.0025   0.0005   0.0009   0.0000
  52 S   :1s     0.0141  -0.0012   0.0388  -0.0551   0.0217   0.0182   0.0000
  53 S   :1s     0.6911  -0.0033   0.4860  -0.2124   0.2761   0.1207   0.0000
  54 S   :1s    -0.0022   0.0001   0.0031   0.0391  -0.0081  -0.0089  -0.0000
  55 S   :1s     0.1087   0.0009   0.1178  -0.1196   1.0046   0.1493  -0.0000
  56 S   :1s    -0.0013  -0.0000  -0.0004  -0.0008  -0.0003   0.0001   0.0000
  57 S   :1s     0.0145  -0.0005   0.0191  -0.0346   0.0112   0.0086   0.0000
  58 S   :1s     0.0059   0.0001   0.0666  -0.3876   2.4671  -0.3012  -0.0000
  59 S   :2pz   -0.0467  -0.0002  -0.0021   0.0246  -0.0271  -0.0223   0.0000
  60 S   :2pz    0.5568  -0.0007  -0.6847  -0.1345   0.1132  -0.4064   0.0000
  61 S   :2pz    0.0392   0.0007  -0.0100  -0.0290   0.0419   0.0116  -0.0000
  62 S   :2pz   -0.1490  -0.0015  -0.1678  -0.1552  -0.8681   0.0010   0.0000
  63 S   :2pz   -0.0005   0.0001   0.0005   0.0012  -0.0005  -0.0008  -0.0000
  64 S   :2pz    0.0053  -0.0001  -0.0077  -0.0025   0.0005  -0.0035   0.0000
  65 S   :2pz   -0.0033  -0.0002  -0.1348  -0.0525  -1.0050   1.2697   0.0000
  66 S   :3d0   -0.0003  -0.0000  -0.0007  -0.0012   0.0000   0.0003   0.0000
  67 S   :3d2+   0.0000  -0.0000   0.0000   0.0000   0.0000  -0.0000   0.0014
  68 S   :3d0   -0.0076   0.0000  -0.0137  -0.0222   0.0002   0.0037   0.0000
  69 S   :3d2+   0.0000  -0.0000   0.0000  -0.0000   0.0000  -0.0000   0.0258
  70 S   :3d0   -0.0415  -0.0001  -0.0798  -0.1366  -0.0001   0.0279   0.0000
  71 S   :3d2+   0.0000  -0.0000   0.0000  -0.0000   0.0000  -0.0000   0.1600
  72 S   :3d0   -0.0196   0.0009  -0.1127  -0.1849   0.0807   0.0321  -0.0000
  73 S   :3d2+  -0.0000   0.0000   0.0000  -0.0000  -0.0000   0.0000   0.1649
  74 S   :3d0    0.0037   0.0009  -0.0718  -0.1442   0.2308  -0.0207  -0.0000
  75 S   :3d2+   0.0000  -0.0000  -0.0000   0.0000   0.0000  -0.0000   0.5328
  76 S   :4f0    0.0002   0.0000   0.0001   0.0002   0.0000  -0.0000  -0.0000
  78 S   :4f0    0.0091  -0.0001   0.0059   0.0185  -0.0020  -0.0142  -0.0000
  79 S   :4f2+  -0.0000   0.0000  -0.0000   0.0000   0.0000  -0.0000  -0.0089
  80 S   :4f0   -0.0036  -0.0002   0.0018   0.0007  -0.0233   0.0223   0.0000
  81 S   :4f2+   0.0000  -0.0000  -0.0000  -0.0000   0.0000   0.0000   0.0044

    Orbital        15       16       17       18       19       20       21
   1 O   :1s    -0.0190   0.0059  -0.0069   0.0000   0.0200   0.0408  -0.0291
   2 O   :1s    -0.2114   0.2009   0.1005   0.0000   0.1272   0.2982   0.1557
   3 O   :1s     0.0055   0.0156   0.0196  -0.0000   0.0031  -0.0047   0.0808
   4 O   :1s     0.6446  -1.4289   0.4710  -0.0000  -1.7449   0.9342   0.2488
   5 O   :1s    -0.0110   0.0061  -0.0003   0.0000   0.0078   0.0169  -0.0098
   6 O   :1s    -0.0001  -0.0009  -0.0014   0.0000   0.0015   0.0029  -0.0029
   7 O   :1s     3.5790  -5.4901   1.7037  -0.0000  -8.6142  -1.1160   0.8935
   8 O   :2pz   -0.1177   0.1027  -0.0412  -0.0000  -0.4111   0.0266   0.3731
   9 O   :2pz    0.0609  -0.0928   0.0276  -0.0000  -0.0951   0.0230  -0.0528
  10 O   :2pz    0.2611  -0.1881   0.7538  -0.0000  -1.6553  -0.5528  -0.4486
  11 O   :2pz    0.0003  -0.0011   0.0002  -0.0000  -0.0048   0.0003   0.0018
  12 O   :2pz   -0.0000   0.0001  -0.0000   0.0000  -0.0001  -0.0000   0.0001
  13 O   :2pz   -0.9704  -1.6698   3.4382   0.0000  -1.5104  -2.9874  -1.1338
  14 O   :3d0    0.0003   0.0001  -0.0002  -0.0000   0.0002  -0.0002  -0.0010
  15 O   :3d2+  -0.0000   0.0000   0.0000   0.0005  -0.0000   0.0000   0.0000
  16 O   :3d0    0.0061   0.0021  -0.0045  -0.0000   0.0092   0.0028  -0.0167
  17 O   :3d2+   0.0000  -0.0000   0.0000   0.0062  -0.0000   0.0000   0.0000
  18 O   :3d0    0.0205  -0.0183   0.0023  -0.0000  -0.0992  -0.0896  -0.1102
  19 O   :3d2+   0.0000   0.0000  -0.0000   0.0400   0.0000   0.0000   0.0000
  20 O   :3d0    0.0668   0.1786   0.2983  -0.0000  -0.2237  -0.2401  -0.4178
  21 O   :3d2+   0.0000  -0.0000   0.0000   0.0820  -0.0000   0.0000   0.0000
  22 O   :4f0    0.0020  -0.0032  -0.0028   0.0000  -0.0079  -0.0055  -0.0031
  23 O   :4f2+  -0.0000   0.0000  -0.0000  -0.0005   0.0000  -0.0000  -0.0000
  24 O   :4f0   -0.0171   0.0117   0.0270   0.0000  -0.0222  -0.0572  -0.0836
  25 O   :4f2+   0.0000  -0.0000   0.0000   0.0188  -0.0000   0.0000   0.0000
  26 C   :1s     0.0576  -0.0112  -0.1601  -0.0000   0.2537   0.2056   0.3498
  27 C   :1s     0.3917   0.0935  -0.8695   0.0000   1.3920   0.5924   1.2510
  28 C   :1s    -0.0007   0.0089   0.1263  -0.0000  -0.2151  -0.0839  -0.1891
  29 C   :1s    -3.7374  -0.9755  -5.7776   0.0000   6.6000 -10.6000   0.4648
  30 C   :1s     0.0220  -0.0071  -0.0677   0.0000   0.1049   0.0786   0.1396
  31 C   :1s     0.0045   0.0003  -0.0102  -0.0000   0.0172   0.0173   0.0266
  32 C   :1s   -11.2319  -0.6149 -11.8229   0.0000   7.4563  -5.8200  -2.0717
  33 C   :2pz   -0.2012   0.2756   0.0439  -0.0000  -0.1673  -0.0929   0.7699
  34 C   :2pz    0.0089  -0.1846   0.0848   0.0000  -0.6819  -0.5721  -0.3103
  35 C   :2pz   -1.7824  -3.9860  -1.7229   0.0000  -1.7157  -5.1175  -2.5376
  36 C   :2pz   -0.0003  -0.0021  -0.0007  -0.0000  -0.0025  -0.0008  -0.0016
  37 C   :2pz   -0.0000   0.0001   0.0000  -0.0000  -0.0001  -0.0000   0.0001
  38 C   :2pz   -0.8884  -0.0225  -6.1924  -0.0000  -1.2976   1.0514  -0.2642
  39 C   :3d0   -0.0004   0.0004   0.0001  -0.0000  -0.0008   0.0001   0.0007
  40 C   :3d2+  -0.0000  -0.0000   0.0000   0.0003  -0.0000   0.0000   0.0000
  41 C   :3d0   -0.0147   0.0283   0.0011  -0.0000  -0.0098   0.0407   0.0706
  42 C   :3d2+   0.0000  -0.0000   0.0000   0.0268  -0.0000   0.0000  -0.0000
  43 C   :3d0   -0.3649   0.1596  -0.1761   0.0000   0.2145  -0.4809  -0.2894
  44 C   :3d2+  -0.0000  -0.0000  -0.0000  -0.0053   0.0000  -0.0000   0.0000
  45 C   :3d0   -1.5171   0.7181   0.2800   0.0000  -0.2721  -2.8333  -2.9575
  46 C   :3d2+   0.0000   0.0000  -0.0000   1.1850  -0.0000   0.0000  -0.0000
  47 C   :4f0    0.0010  -0.0091   0.0002   0.0000  -0.0414  -0.0293  -0.0322
  48 C   :4f2+  -0.0000  -0.0000  -0.0000  -0.0085   0.0000  -0.0000  -0.0000
  49 C   :4f0   -0.0987  -0.1690  -0.0437  -0.0000   0.0432   0.1177  -0.3530
  50 C   :4f2+   0.0000  -0.0000   0.0000   0.0459  -0.0000   0.0000   0.0000
  51 S   :1s    -0.0018  -0.0008  -0.0042   0.0000  -0.0030  -0.0230   0.0245
  52 S   :1s    -0.0249  -0.0363  -0.0718   0.0000  -0.0727  -0.5174   0.5672
  53 S   :1s    -0.2872  -0.2255  -0.3554   0.0000  -0.2290  -1.3568   1.6117
  54 S   :1s    -0.0597   0.0265  -0.0099   0.0000   0.0377   0.3318  -0.5098
  55 S   :1s     3.2921   1.3249   0.9663  -0.0000   1.1071  10.4225   3.2868
  56 S   :1s     0.0001  -0.0002  -0.0009   0.0000  -0.0011  -0.0090   0.0092
  57 S   :1s     0.0023  -0.0276  -0.0295   0.0000  -0.0493  -0.3544   0.3967
  58 S   :1s     9.0107   5.2542  14.0516  -0.0000  -4.6008   7.1940  -1.2613
  59 S   :2pz   -0.1965  -0.0259  -0.0716   0.0000   0.0276  -0.2500  -0.4464
  60 S   :2pz   -0.7267  -0.0992  -0.5041   0.0000   0.4899  -1.0073  -1.5639
  61 S   :2pz    0.2261   0.0131   0.0698  -0.0000   0.0059   0.3205   0.4900
  62 S   :2pz   -2.0958  -2.3105  -2.8658   0.0000   0.5617  -7.1602   1.9130
  63 S   :2pz   -0.0038  -0.0022  -0.0014   0.0000   0.0003  -0.0030  -0.0124
  64 S   :2pz   -0.0101   0.0022  -0.0058   0.0000   0.0049  -0.0179  -0.0143
  65 S   :2pz   -1.8616  -2.5619  -1.4831   0.0000   2.1384  -1.8597   1.0648
  66 S   :3d0   -0.0006   0.0008  -0.0004  -0.0000  -0.0004   0.0003   0.0021
  67 S   :3d2+   0.0000  -0.0000   0.0000  -0.0010   0.0000   0.0000   0.0000
  68 S   :3d0   -0.0126   0.0157  -0.0041  -0.0000  -0.0102   0.0022   0.0308
  69 S   :3d2+  -0.0000  -0.0000   0.0000  -0.0181   0.0000   0.0000   0.0000
  70 S   :3d0   -0.0674   0.0971  -0.0380  -0.0000  -0.0570   0.0235   0.2372
  71 S   :3d2+   0.0000  -0.0000   0.0000  -0.1121   0.0000   0.0000   0.0000
  72 S   :3d0    0.1435   0.1790   0.1934  -0.0000  -0.0362   0.5144   0.5079
  73 S   :3d2+  -0.0000   0.0000  -0.0000  -0.1194   0.0000  -0.0000  -0.0000
  74 S   :3d0    0.0331   1.0136   0.9220  -0.0000  -1.0535   2.8943  -2.1832
  75 S   :3d2+  -0.0000  -0.0000   0.0000  -0.9244   0.0000  -0.0000  -0.0000
  76 S   :4f0    0.0000  -0.0001   0.0001   0.0000   0.0000   0.0003  -0.0003
  77 S   :4f2+  -0.0000   0.0000   0.0000  -0.0001   0.0000   0.0000  -0.0000
  78 S   :4f0   -0.0157  -0.0136  -0.0009   0.0000  -0.0344  -0.0118  -0.0870
  79 S   :4f2+  -0.0000  -0.0000   0.0000  -0.0244  -0.0000   0.0000   0.0000
  80 S   :4f0   -0.0215  -0.0567  -0.0944   0.0000   0.0924  -0.1378   0.2594
  81 S   :4f2+   0.0000  -0.0000   0.0000   0.0572  -0.0000   0.0000   0.0000

    Orbital        22       23       24       25       26       27       28
   1 O   :1s     0.0540   0.0000  -0.0404   0.0000   0.1831   0.0000   0.1987
   2 O   :1s     0.4558   0.0000  -0.1818   0.0000   0.6930  -0.0000   1.0392
   3 O   :1s    -0.0035  -0.0000   0.0367  -0.0000  -0.1657  -0.0000  -0.2061
   4 O   :1s     4.5098   0.0000   2.1081  -0.0000  -3.8284  -0.0000   5.6145
   5 O   :1s     0.0236   0.0000  -0.0171   0.0000   0.0749   0.0000   0.0906
   6 O   :1s     0.0034   0.0000  -0.0026   0.0000   0.0131   0.0000   0.0102
   7 O   :1s     7.5032   0.0000   6.7505  -0.0000  -6.4644  -0.0000   8.5157
   8 O   :2pz    0.1297   0.0000   0.0721  -0.0000   0.5262   0.0000  -0.2237
   9 O   :2pz    0.1078   0.0000   0.0762  -0.0000  -0.3344  -0.0000   0.4405
  10 O   :2pz   -0.5582   0.0000   2.5343  -0.0000  -3.5443  -0.0000   3.0561
  11 O   :2pz    0.0032   0.0000   0.0023  -0.0000  -0.0023  -0.0000   0.0043
  12 O   :2pz   -0.0000  -0.0000  -0.0000  -0.0000   0.0002   0.0000  -0.0001
  13 O   :2pz    1.5267   0.0000   3.6374  -0.0000   0.0380   0.0000   0.4519
  14 O   :3d0    0.0005   0.0000   0.0007  -0.0000  -0.0010  -0.0000  -0.0009
  15 O   :3d2+   0.0000  -0.0001   0.0000   0.0007  -0.0000   0.0005  -0.0000
  16 O   :3d0    0.0138   0.0000   0.0112  -0.0000  -0.0084   0.0000  -0.0266
  17 O   :3d2+   0.0000  -0.0038   0.0000   0.0323   0.0000   0.0195   0.0000
  18 O   :3d0    0.0058   0.0000   0.0584  -0.0000  -0.2986  -0.0000   0.1873
  19 O   :3d2+  -0.0000  -0.0040  -0.0000  -0.0179  -0.0000  -0.0099  -0.0000
  20 O   :3d0   -0.5113  -0.0000   1.2120  -0.0000  -1.2663  -0.0000  -0.9699
  21 O   :3d2+   0.0000  -0.1632   0.0000   1.4340   0.0000   0.1938   0.0000
  22 O   :4f0    0.0007   0.0000  -0.0075   0.0000  -0.0197  -0.0000   0.0243
  23 O   :4f2+  -0.0000   0.0021  -0.0000  -0.0168  -0.0000   0.0112  -0.0000
  24 O   :4f0   -0.0108  -0.0000   0.0732  -0.0000  -0.0523  -0.0000  -0.0662
  25 O   :4f2+   0.0000  -0.0159   0.0000   0.1156  -0.0000  -0.0469   0.0000
  26 C   :1s     0.1301  -0.0000  -0.3157   0.0000   0.2595   0.0000  -0.0636
  27 C   :1s     0.6320  -0.0000  -1.1233   0.0000   0.7494   0.0000  -0.0679
  28 C   :1s    -0.0598   0.0000   0.3791  -0.0000  -0.2259  -0.0000   0.2678
  29 C   :1s     5.8437  -0.0000 -22.1440   0.0000   9.5074   0.0000 -16.2268
  30 C   :1s     0.0516  -0.0000  -0.1454   0.0000   0.1022   0.0000  -0.0338
  31 C   :1s     0.0095  -0.0000  -0.0166   0.0000   0.0221   0.0000  -0.0029
  32 C   :1s     6.5982  -0.0000 -17.6974   0.0000   5.7786   0.0000  -5.3431
  33 C   :2pz   -0.0669  -0.0000   0.0529  -0.0000   0.4265   0.0000   0.4935
  34 C   :2pz   -0.0927   0.0000   0.1002   0.0000  -1.8580  -0.0000   0.8091
  35 C   :2pz   15.0815   0.0000  -6.4300   0.0000   3.1359   0.0000   5.0464
  36 C   :2pz    0.0050   0.0000  -0.0038   0.0000  -0.0045  -0.0000   0.0067
  37 C   :2pz   -0.0001  -0.0000   0.0000  -0.0000  -0.0001  -0.0000   0.0002
  38 C   :2pz    1.8828  -0.0000  -5.0109   0.0000  -0.4529  -0.0000   1.2767
  39 C   :3d0    0.0004   0.0000   0.0002  -0.0000  -0.0001  -0.0000  -0.0004
  40 C   :3d2+   0.0000  -0.0005   0.0000   0.0001  -0.0000   0.0015   0.0000
  41 C   :3d0    0.0187   0.0000   0.0212  -0.0000   0.0517   0.0000  -0.0666
  42 C   :3d2+   0.0000  -0.0094   0.0000   0.0060  -0.0000   0.0327   0.0000
  43 C   :3d0   -0.0024  -0.0000  -0.9950   0.0000   0.6410   0.0000  -1.3267
  44 C   :3d2+   0.0000  -0.1597  -0.0000  -0.0765  -0.0000   0.6495  -0.0000
  45 C   :3d0   -0.2890  -0.0000   0.0493  -0.0000   3.5218   0.0000   0.3038
  46 C   :3d2+  -0.0000  -0.0126  -0.0000  -0.8468   0.0000  -1.3113  -0.0000
  47 C   :4f0   -0.0467  -0.0000  -0.0287   0.0000  -0.1089  -0.0000   0.0966
  48 C   :4f2+  -0.0000   0.0081  -0.0000  -0.0261  -0.0000   0.0053   0.0000
  49 C   :4f0    0.8367   0.0000  -0.1152   0.0000   0.7624   0.0000   0.3385
  50 C   :4f2+   0.0000  -0.1235   0.0000   0.3837   0.0000  -0.2722   0.0000
  51 S   :1s    -0.0171  -0.0000   0.0003   0.0000  -0.0419  -0.0000  -0.0318
  52 S   :1s    -0.3721  -0.0000   0.1102  -0.0000  -0.9397  -0.0000  -0.6917
  53 S   :1s    -1.4087  -0.0000   0.6131  -0.0000  -2.9843  -0.0000  -2.2407
  54 S   :1s     0.1953   0.0000  -0.2544   0.0000   0.5957   0.0000   0.4105
  55 S   :1s    -8.7662   0.0000   7.3223  -0.0000  -4.5247  -0.0000   2.7428
  56 S   :1s    -0.0052  -0.0000   0.0002   0.0000  -0.0147  -0.0000  -0.0107
  57 S   :1s    -0.2218  -0.0000   0.1093  -0.0000  -0.6090  -0.0000  -0.4353
  58 S   :1s   -12.7729   0.0000  20.9743  -0.0000  -1.8808   0.0000   4.7029
  59 S   :2pz    0.3594  -0.0000  -0.2760   0.0000   0.6181   0.0000   0.0758
  60 S   :2pz    1.3943  -0.0000  -0.5710   0.0000   2.6182   0.0000   0.7701
  61 S   :2pz   -0.3500   0.0000   0.3618  -0.0000  -0.6115  -0.0000  -0.0062
  62 S   :2pz    8.1717  -0.0000 -11.7482   0.0000  -0.7640   0.0000  -5.4225
  63 S   :2pz    0.0105  -0.0000  -0.0082   0.0000   0.0127   0.0000   0.0039
  64 S   :2pz    0.0108  -0.0000  -0.0058   0.0000   0.0312   0.0000   0.0021
  65 S   :2pz    2.2579   0.0000  -2.3100   0.0000   0.3527   0.0000  -1.4618
  66 S   :3d0    0.0005   0.0000   0.0006  -0.0000   0.0006   0.0000  -0.0014
  67 S   :3d2+   0.0000  -0.0018   0.0000   0.0002   0.0000  -0.0010  -0.0000
  68 S   :3d0    0.0112   0.0000   0.0178  -0.0000   0.0167   0.0000  -0.0232
  69 S   :3d2+   0.0000  -0.0574   0.0000  -0.0022   0.0000  -0.0215  -0.0000
  70 S   :3d0    0.0515   0.0000   0.0715  -0.0000   0.0556   0.0000  -0.1625
  71 S   :3d2+   0.0000  -0.2535   0.0000   0.0118   0.0000  -0.1199  -0.0000
  72 S   :3d0   -0.1763   0.0000   1.3004  -0.0000   0.2873   0.0000   0.1470
  73 S   :3d2+   0.0000  -0.9073  -0.0000  -0.2146   0.0000  -0.2249  -0.0000
  74 S   :3d0   -1.8279   0.0000   2.4991  -0.0000   0.4208  -0.0000   2.6232
  75 S   :3d2+  -0.0000   1.0676   0.0000   0.4214  -0.0000   0.9029   0.0000
  76 S   :4f0    0.0001   0.0000  -0.0001   0.0000   0.0003   0.0000  -0.0004
  77 S   :4f2+  -0.0000   0.0002   0.0000   0.0003   0.0000  -0.0005  -0.0000
  78 S   :4f0    0.0057  -0.0000  -0.0813   0.0000  -0.0527  -0.0000   0.0041
  79 S   :4f2+  -0.0000   0.0016   0.0000  -0.0098  -0.0000   0.0380   0.0000
  80 S   :4f0    0.0758  -0.0000  -0.2722   0.0000   0.1595   0.0000  -0.5709
  81 S   :4f2+   0.0000   0.0343   0.0000   0.5113   0.0000  -0.8528  -0.0000

    Orbital        29       30       31       32       33       34       35
   1 O   :1s    -0.0298  -0.0978   0.0000  -0.2833  -0.0948  -0.0358  -0.0000
   2 O   :1s    -0.0669  -0.0805   0.0000  -0.8605  -0.5857  -0.1563  -0.0000
   3 O   :1s     0.0726   0.0986  -0.0000   0.2413   0.0343   0.0669   0.0000
   4 O   :1s    -2.2701  -0.7053   0.0000  -4.9429   8.1799  -0.6162   0.0000
   5 O   :1s    -0.0163  -0.0314   0.0000  -0.1052  -0.0400  -0.0198  -0.0000
   6 O   :1s    -0.0004  -0.0112   0.0000  -0.0256  -0.0055  -0.0003  -0.0000
   7 O   :1s    -5.4972   3.2331   0.0000  -4.1403   6.0048  -1.9808   0.0000
   8 O   :2pz    0.6726   0.1842  -0.0000   0.0283  -0.1438   0.3564  -0.0000
   9 O   :2pz   -0.2153  -0.0892   0.0000   0.0203   0.4485   0.0199   0.0000
  10 O   :2pz   -2.0176   2.0059  -0.0000   7.3434   4.3180  -3.8145   0.0000
  11 O   :2pz    0.0014   0.0007  -0.0000   0.0014   0.0090   0.0021   0.0000
  12 O   :2pz    0.0001   0.0001  -0.0000   0.0000  -0.0001  -0.0000  -0.0000
  13 O   :2pz   -1.0378   1.9813  -0.0000  -0.0086   2.0690  -1.1724   0.0000
  14 O   :3d0   -0.0008  -0.0006   0.0000   0.0005  -0.0015  -0.0002  -0.0000
  15 O   :3d2+   0.0000  -0.0000   0.0003   0.0000  -0.0000   0.0000   0.0016
  16 O   :3d0    0.0062  -0.0253   0.0000  -0.0146  -0.0268   0.0065  -0.0000
  17 O   :3d2+  -0.0000   0.0000  -0.0060  -0.0000  -0.0000   0.0000   0.0225
  18 O   :3d0   -0.2435   0.1937  -0.0000   0.4388   0.0749  -0.1445   0.0000
  19 O   :3d2+   0.0000  -0.0000   0.0540   0.0000  -0.0000  -0.0000   0.1329
  20 O   :3d0    0.5599   1.1667  -0.0000   4.4353   1.8094  -1.4830  -0.0000
  21 O   :3d2+   0.0000  -0.0000  -1.0673  -0.0000   0.0000   0.0000  -1.3140
  22 O   :4f0   -0.0214   0.0068  -0.0000   0.0146  -0.0175   0.0022   0.0000
  23 O   :4f2+   0.0000   0.0000   0.0140   0.0000  -0.0000   0.0000   0.0380
  24 O   :4f0    0.0323   0.2132  -0.0000   0.2810   0.2006  -0.1479   0.0000
  25 O   :4f2+   0.0000  -0.0000  -0.0424  -0.0000   0.0000  -0.0000  -0.1934
  26 C   :1s    -0.0104  -1.4221   0.0000  -1.2994  -0.7940   1.6706  -0.0000
  27 C   :1s    -0.0086  -6.7837   0.0000  -5.8361  -3.6265   7.7856  -0.0000
  28 C   :1s    -0.0786   0.6540  -0.0000   0.7334   0.4794  -1.1642   0.0000
  29 C   :1s    -3.9559  23.7201  -0.0000 -13.7103  -3.6210  15.1047  -0.0000
  30 C   :1s    -0.0049  -0.5545   0.0000  -0.5137  -0.3142   0.6881  -0.0000
  31 C   :1s    -0.0002  -0.1083   0.0000  -0.0986  -0.0599   0.1130  -0.0000
  32 C   :1s    -0.4854   4.4000  -0.0000  -5.9974  -0.9088   6.3359  -0.0000
  33 C   :2pz    1.0287   0.4199  -0.0000   0.2161   0.4397   0.5491   0.0000
  34 C   :2pz   -0.9224   1.7388  -0.0000   3.8338   2.6610  -0.1248   0.0000
  35 C   :2pz   -7.2943  11.6983   0.0000 -27.0555   5.8799   5.7291   0.0000
  36 C   :2pz   -0.0019   0.0020   0.0000  -0.0009   0.0125   0.0046  -0.0000
  37 C   :2pz   -0.0002   0.0001  -0.0000   0.0002  -0.0002  -0.0002   0.0000
  38 C   :2pz   -0.5089   0.4674   0.0000  -1.7452  -0.5903   1.0877  -0.0000
  39 C   :3d0    0.0002   0.0001  -0.0000   0.0001  -0.0002  -0.0006  -0.0000
  40 C   :3d2+  -0.0000   0.0000   0.0018   0.0000   0.0000  -0.0000  -0.0005
  41 C   :3d0    0.0457  -0.1187   0.0000  -0.1061  -0.0906   0.0211  -0.0000
  42 C   :3d2+   0.0000  -0.0000   0.0038   0.0000   0.0000  -0.0000  -0.0071
  43 C   :3d0    0.6240   1.8093  -0.0000   0.1006  -0.2803   0.0628  -0.0000
  44 C   :3d2+  -0.0000   0.0000   1.2660   0.0000   0.0000  -0.0000  -0.1837
  45 C   :3d0   -0.6893   3.5151  -0.0000  -0.2429   0.3594  -1.9674  -0.0000
  46 C   :3d2+   0.0000   0.0000   0.5305   0.0000   0.0000  -0.0000  -0.0394
  47 C   :4f0   -0.0547   0.0778  -0.0000   0.1386   0.0478  -0.0436   0.0000
  48 C   :4f2+  -0.0000   0.0000   0.0074   0.0000  -0.0000   0.0000   0.0794
  49 C   :4f0    0.1972  -0.1473   0.0000  -2.6559   1.5936  -0.3786   0.0000
  50 C   :4f2+   0.0000  -0.0000  -0.2819  -0.0000   0.0000  -0.0000  -2.1682
  51 S   :1s    -0.0569   0.0609  -0.0000   0.0222  -0.0353   0.1018   0.0000
  52 S   :1s    -1.3170   1.3160  -0.0000   0.2996  -0.7881   2.2259   0.0000
  53 S   :1s    -4.1911   4.1241  -0.0000   0.4050  -2.2049   6.6707   0.0000
  54 S   :1s     0.9122  -0.5660   0.0000   0.0273   0.6838  -1.5115  -0.0000
  55 S   :1s    10.6418 -24.4703  -0.0000  21.1800  -2.5274 -14.1982  -0.0000
  56 S   :1s    -0.0202   0.0213  -0.0000   0.0080  -0.0132   0.0362   0.0000
  57 S   :1s    -0.8732   0.8184  -0.0000   0.1417  -0.5442   1.4468   0.0000
  58 S   :1s     3.6729  -6.0954   0.0000   9.6625  -1.0341 -10.5537   0.0000
  59 S   :2pz    0.1257   1.2023  -0.0000  -0.8248   0.5756  -0.2738  -0.0000
  60 S   :2pz    0.7443   4.9331  -0.0000  -2.9503   2.0142  -0.5651  -0.0000
  61 S   :2pz   -0.0436  -1.3720   0.0000   0.7215  -0.6336   0.3445   0.0000
  62 S   :2pz   -6.4635   9.8108   0.0000  -9.4444   1.2553  12.9297   0.0000
  63 S   :2pz    0.0063   0.0237   0.0000  -0.0286   0.0173  -0.0107   0.0000
  64 S   :2pz   -0.0004   0.0658  -0.0000  -0.0118   0.0159   0.0005  -0.0000
  65 S   :2pz   -0.6062   0.4831  -0.0000  -1.0756   0.5619   1.7480  -0.0000
  66 S   :3d0   -0.0010  -0.0010   0.0000  -0.0003  -0.0012  -0.0030   0.0000
  67 S   :3d2+   0.0000  -0.0000  -0.0005   0.0000  -0.0000   0.0000   0.0021
  68 S   :3d0   -0.0218  -0.0047  -0.0000  -0.0155  -0.0082  -0.0794   0.0000
  69 S   :3d2+   0.0000  -0.0000  -0.0093   0.0000  -0.0000   0.0000   0.0417
  70 S   :3d0   -0.1393  -0.0873  -0.0000  -0.0105  -0.1200  -0.3876   0.0000
  71 S   :3d2+   0.0000  -0.0000  -0.0633   0.0000  -0.0000   0.0000   0.2594
  72 S   :3d0   -0.1687  -1.7008   0.0000  -0.6023  -0.6454  -1.3461   0.0000
  73 S   :3d2+  -0.0000   0.0000   0.0025  -0.0000  -0.0000   0.0000   0.7171
  74 S   :3d0    2.3267  -2.1550   0.0000   0.8063  -0.7891  -4.1689   0.0000
  75 S   :3d2+  -0.0000  -0.0000  -0.4883  -0.0000  -0.0000   0.0000   0.3315
  76 S   :4f0   -0.0008   0.0000  -0.0000   0.0004  -0.0002  -0.0000  -0.0000
  77 S   :4f2+  -0.0000   0.0000   0.0004   0.0000  -0.0000  -0.0000   0.0006
  78 S   :4f0   -0.0424   0.2111  -0.0000   0.0692  -0.0353  -0.1031  -0.0000
  79 S   :4f2+  -0.0000  -0.0000  -0.0612  -0.0000  -0.0000  -0.0000   0.1119
  80 S   :4f0   -0.8144  -0.1072  -0.0000   1.4522   1.0050   1.4669  -0.0000
  81 S   :4f2+   0.0000   0.0000   0.9807   0.0000   0.0000  -0.0000  -1.1148

    Orbital        36       37       38       39       40       41       42
   1 O   :1s    -0.2381  -0.0000   1.0392   0.0000  -0.8340   0.0000  -0.1808
   2 O   :1s    -1.0475  -0.0000   4.7753   0.0000  -3.6393   0.0000  -0.7728
   3 O   :1s     0.2378   0.0000  -0.8146  -0.0000   0.8312   0.0000   0.1193
   4 O   :1s     8.0095  -0.0000 -10.6625   0.0000  -8.7951  -0.0000   1.1047
   5 O   :1s    -0.1028  -0.0000   0.4282   0.0000  -0.3500  -0.0000  -0.0698
   6 O   :1s    -0.0145  -0.0000   0.0710   0.0000  -0.0559   0.0000  -0.0147
   7 O   :1s     5.8808  -0.0000  -3.8037   0.0000  -4.7431  -0.0000  -0.7746
   8 O   :2pz    0.2547  -0.0000  -0.0401   0.0000  -0.5431  -0.0000  -0.0721
   9 O   :2pz    0.2972  -0.0000  -0.7300   0.0000  -1.4355  -0.0000   0.3278
  10 O   :2pz    3.9837  -0.0000  -6.4598  -0.0000  -2.0382  -0.0000   4.3403
  11 O   :2pz    0.0069  -0.0000  -0.0146   0.0000  -0.0149  -0.0000   0.0060
  12 O   :2pz   -0.0001   0.0000   0.0002   0.0000   0.0001   0.0000  -0.0001
  13 O   :2pz    1.2766  -0.0000   0.3820  -0.0000   0.3512  -0.0000   0.3936
  14 O   :3d0   -0.0017   0.0000   0.0006   0.0000  -0.0040  -0.0000  -0.0022
  15 O   :3d2+   0.0000  -0.0008  -0.0000   0.0079   0.0000  -0.0009  -0.0000
  16 O   :3d0   -0.0195   0.0000   0.0284   0.0000  -0.0370  -0.0000  -0.0297
  17 O   :3d2+  -0.0000  -0.0078   0.0000   0.0289   0.0000  -0.0007  -0.0000
  18 O   :3d0   -0.1885  -0.0000  -0.5124  -0.0000  -1.1290  -0.0000  -0.1020
  19 O   :3d2+   0.0000  -0.0901  -0.0000   1.2283   0.0000  -0.1579  -0.0000
  20 O   :3d0    0.8417  -0.0000  -2.0622  -0.0000   1.2214  -0.0000   2.6827
  21 O   :3d2+   0.0000   0.3918  -0.0000  -0.7518  -0.0000   0.1814   0.0000
  22 O   :4f0   -0.0108   0.0000  -0.0499  -0.0000  -0.0802  -0.0000  -0.0539
  23 O   :4f2+  -0.0000  -0.0087   0.0000   0.0474   0.0000   0.0258  -0.0000
  24 O   :4f0   -0.0833  -0.0000  -0.1445  -0.0000   0.4581  -0.0000   1.0285
  25 O   :4f2+   0.0000   0.0740  -0.0000  -0.3555  -0.0000  -0.4240   0.0000
  26 C   :1s    -0.9645   0.0000   0.8366   0.0000  -0.0897   0.0000  -0.8150
  27 C   :1s    -4.8132   0.0000   3.8954   0.0000   0.0408   0.0000  -3.6399
  28 C   :1s     0.9765  -0.0000  -0.3120  -0.0000  -0.5233  -0.0000   0.1971
  29 C   :1s   -30.6572   0.0000   4.7287  -0.0000  15.4817   0.0000  -2.7376
  30 C   :1s    -0.4114   0.0000   0.3015   0.0000  -0.0323   0.0000  -0.3104
  31 C   :1s    -0.0563   0.0000   0.0744   0.0000  -0.0124   0.0000  -0.0665
  32 C   :1s   -11.3751   0.0000   1.0762   0.0000   1.8803   0.0000  -1.2003
  33 C   :2pz    0.3017  -0.0000   0.6679   0.0000   0.2677   0.0000  -0.6327
  34 C   :2pz   -1.4897   0.0000  -5.4464  -0.0000  -3.5948  -0.0000   3.0314
  35 C   :2pz   -8.7929   0.0000   2.7941   0.0000  -2.2566  -0.0000  -8.6407
  36 C   :2pz   -0.0120   0.0000  -0.0172  -0.0000  -0.0249  -0.0000  -0.0030
  37 C   :2pz   -0.0000  -0.0000  -0.0005   0.0000  -0.0004  -0.0000   0.0003
  38 C   :2pz   -2.0978   0.0000  -0.9788   0.0000  -0.8968  -0.0000  -0.7586
  39 C   :3d0   -0.0016   0.0000   0.0002   0.0000  -0.0009  -0.0000  -0.0002
  40 C   :3d2+   0.0000   0.0005  -0.0000   0.0004  -0.0000  -0.0003   0.0000
  41 C   :3d0   -0.0104   0.0000   0.1601   0.0000  -0.0258   0.0000  -0.0124
  42 C   :3d2+   0.0000   0.0245  -0.0000   0.0617  -0.0000  -0.0678  -0.0000
  43 C   :3d0   -4.1130   0.0000   0.3438  -0.0000   5.0332   0.0000  -0.8656
  44 C   :3d2+   0.0000   0.2281   0.0000   0.1615   0.0000   0.4200  -0.0000
  45 C   :3d0   -2.2685   0.0000   2.7644  -0.0000   2.0954   0.0000  -0.3719
  46 C   :3d2+   0.0000  -0.1547  -0.0000   0.6724   0.0000  -0.4350  -0.0000
  47 C   :4f0   -0.0946   0.0000  -0.2560   0.0000  -0.2842  -0.0000   0.0967
  48 C   :4f2+   0.0000   0.0373   0.0000  -0.1105  -0.0000  -0.1525   0.0000
  49 C   :4f0   -0.9242   0.0000   2.2014   0.0000  -0.3055   0.0000  -1.1670
  50 C   :4f2+   0.0000   0.6022  -0.0000   0.6734  -0.0000   0.2611   0.0000
  51 S   :1s     0.0132   0.0000  -0.0809   0.0000  -0.0396  -0.0000   0.0479
  52 S   :1s     0.6217   0.0000  -1.5794   0.0000  -0.7207  -0.0000   0.8154
  53 S   :1s     1.8938   0.0000  -4.4601   0.0000  -2.2551  -0.0000   2.4741
  54 S   :1s    -1.2934   0.0000   0.6503   0.0000   0.2343  -0.0000   0.0120
  55 S   :1s    19.0496  -0.0000  -0.1329  -0.0000  -4.2035   0.0000   3.9693
  56 S   :1s     0.0073   0.0000  -0.0283   0.0000  -0.0124  -0.0000   0.0148
  57 S   :1s     0.6054   0.0000  -0.9437  -0.0000  -0.3561  -0.0000   0.3679
  58 S   :1s    12.5310  -0.0000   2.1253  -0.0000   0.2745  -0.0000   1.4884
  59 S   :2pz   -2.1028   0.0000   0.5904  -0.0000   1.0974  -0.0000  -0.0266
  60 S   :2pz   -8.3595   0.0000   1.5666  -0.0000   4.1672  -0.0000  -0.7106
  61 S   :2pz    2.3028  -0.0000  -0.7366   0.0000  -1.1110   0.0000  -0.5481
  62 S   :2pz  -10.2391   0.0000  -3.8058   0.0000  -0.5829   0.0000  -0.4998
  63 S   :2pz   -0.0485   0.0000   0.0104  -0.0000   0.0291   0.0000  -0.0183
  64 S   :2pz   -0.0978   0.0000   0.0281  -0.0000   0.0386  -0.0000   0.0427
  65 S   :2pz   -1.2939   0.0000  -0.0887   0.0000   0.0973   0.0000   0.0743
  66 S   :3d0   -0.0034   0.0000  -0.0044   0.0000  -0.0034   0.0000   0.0030
  67 S   :3d2+   0.0000   0.0098   0.0000   0.0007   0.0000   0.0012  -0.0000
  68 S   :3d0   -0.0552   0.0000  -0.0601   0.0000  -0.0395   0.0000   0.0429
  69 S   :3d2+   0.0000   0.1237   0.0000   0.0072   0.0000   0.0176  -0.0000
  70 S   :3d0   -0.4593   0.0000  -0.6079   0.0000  -0.4729   0.0000   0.4345
  71 S   :3d2+   0.0000   1.1728   0.0000   0.0892   0.0000   0.1583  -0.0000
  72 S   :3d0    3.9599  -0.0000   2.1990   0.0000   0.1194   0.0000  -1.1136
  73 S   :3d2+  -0.0000  -1.6875  -0.0000  -0.3748   0.0000  -0.3886   0.0000
  74 S   :3d0    2.4333  -0.0000   1.0102  -0.0000  -0.0805   0.0000  -0.8043
  75 S   :3d2+   0.0000   0.6217   0.0000  -0.3654  -0.0000   0.3180   0.0000
  76 S   :4f0    0.0005  -0.0000  -0.0015  -0.0000   0.0010   0.0000  -0.0037
  77 S   :4f2+   0.0000  -0.0008  -0.0000  -0.0004  -0.0000   0.0056   0.0000
  78 S   :4f0   -0.1943   0.0000  -0.5515  -0.0000   0.1907  -0.0000  -0.7646
  79 S   :4f2+   0.0000  -0.1553  -0.0000  -0.0864  -0.0000   1.2096   0.0000
  80 S   :4f0   -1.1280   0.0000  -0.4856   0.0000  -0.5148  -0.0000   1.4177
  81 S   :4f2+   0.0000   0.4146  -0.0000   0.5261   0.0000  -0.6384  -0.0000

    Orbital        43       44       45       46       47       48       49
   1 O   :1s    -0.9289   0.0549   0.0000   0.0345  -0.2125  -0.0000   0.0511
   2 O   :1s    -4.3184   0.1805   0.0000   0.2594  -1.0551  -0.0000   0.4150
   3 O   :1s     0.5990  -0.2537  -0.0000   0.1123  -0.0811  -0.0000   0.0166
   4 O   :1s     5.4570   9.8546  -0.0000   1.3610   2.3036   0.0000  -0.4995
   5 O   :1s    -0.3637   0.0425   0.0000   0.0058  -0.0642  -0.0000   0.0193
   6 O   :1s    -0.0706  -0.0037   0.0000   0.0046  -0.0227  -0.0000   0.0021
   7 O   :1s     2.8322   6.7206  -0.0000   0.2904  -0.7980   0.0000  -0.0077
   8 O   :2pz   -0.1338   0.2343  -0.0000  -0.2418   0.2403   0.0000   0.3892
   9 O   :2pz    0.1322   1.0132  -0.0000  -0.4182   0.5743   0.0000  -0.1151
  10 O   :2pz    6.1352   6.8825  -0.0000   0.4899   6.6238   0.0000  -2.5116
  11 O   :2pz    0.0038   0.0159   0.0000   0.0011   0.0044   0.0000   0.0024
  12 O   :2pz    0.0000  -0.0002  -0.0000  -0.0001   0.0000  -0.0000  -0.0002
  13 O   :2pz    0.8713   2.0661  -0.0000   0.3485   0.0293   0.0000  -0.1543
  14 O   :3d0    0.0032   0.0038   0.0000   0.0013   0.0005   0.0000  -0.0027
  15 O   :3d2+   0.0000   0.0000   0.0026  -0.0000  -0.0000   0.0014  -0.0000
  16 O   :3d0    0.0102  -0.0047   0.0000  -0.0006   0.0023  -0.0000  -0.0685
  17 O   :3d2+   0.0000   0.0000   0.0117  -0.0000  -0.0000   0.0213   0.0000
  18 O   :3d0    0.9388   1.5166  -0.0000  -0.2696   0.9458   0.0000  -0.1654
  19 O   :3d2+   0.0000   0.0000   0.4765  -0.0000  -0.0000   0.1977  -0.0000
  20 O   :3d0    1.6226   2.1197  -0.0000   0.5445   2.5847   0.0000  -1.3352
  21 O   :3d2+   0.0000  -0.0000   1.5617  -0.0000  -0.0000   0.3125   0.0000
  22 O   :4f0    0.0897   0.0439  -0.0000  -0.0394   0.0797   0.0000   0.1190
  23 O   :4f2+   0.0000   0.0000  -0.0902   0.0000   0.0000  -0.0542   0.0000
  24 O   :4f0   -0.2423   1.2277   0.0000   0.3651   0.3507   0.0000  -0.8717
  25 O   :4f2+  -0.0000  -0.0000   1.5683  -0.0000  -0.0000   0.4338  -0.0000
  26 C   :1s    -2.2461  -3.0346  -0.0000  -0.8401  -2.6597  -0.0000   1.2585
  27 C   :1s    -9.8708 -13.0831  -0.0000  -3.8974 -11.2343  -0.0000   5.5405
  28 C   :1s     2.0096   1.9893   0.0000   0.5287   2.4867   0.0000  -0.9256
  29 C   :1s     3.8172   7.6213   0.0000 -12.5444  -7.7177  -0.0000  13.8073
  30 C   :1s    -0.9295  -1.2146  -0.0000  -0.3339  -1.1314  -0.0000   0.5298
  31 C   :1s    -0.1586  -0.2346  -0.0000  -0.0609  -0.1865  -0.0000   0.0848
  32 C   :1s    -1.5224  -1.1133   0.0000  -2.1073  -2.4611  -0.0000   4.7593
  33 C   :2pz   -0.5004  -0.9111  -0.0000  -1.1922   0.5312  -0.0000  -2.8856
  34 C   :2pz    3.1752   7.9827  -0.0000  -1.9250   4.4565   0.0000   4.4043
  35 C   :2pz   -0.8139  10.8670   0.0000  -3.1111 -10.9057  -0.0000  11.1668
  36 C   :2pz    0.0078   0.0272  -0.0000   0.0050   0.0039   0.0000   0.0806
  37 C   :2pz    0.0005   0.0007   0.0000   0.0002   0.0001   0.0000   0.0019
  38 C   :2pz   -0.2015  -0.1082   0.0000  -0.6473  -0.1958  -0.0000   1.0204
  39 C   :3d0    0.0036   0.0020   0.0000   0.0017  -0.0001  -0.0000  -0.0056
  40 C   :3d2+  -0.0000   0.0000   0.0019   0.0000   0.0000  -0.0090   0.0000
  41 C   :3d0   -0.0747  -0.2936   0.0000   0.0831  -0.2953  -0.0000  -0.6901
  42 C   :3d2+  -0.0000   0.0000   0.2417   0.0000   0.0000  -1.2120   0.0000
  43 C   :3d0    1.4345   1.2614   0.0000  -0.8129   1.0172   0.0000   2.3170
  44 C   :3d2+   0.0000   0.0000  -1.3652   0.0000  -0.0000   0.6979  -0.0000
  45 C   :3d0    1.0945   2.2653   0.0000  -0.0888   1.1615   0.0000   0.8993
  46 C   :3d2+  -0.0000   0.0000  -0.1272   0.0000   0.0000  -0.1710   0.0000
  47 C   :4f0    0.1712   0.2571  -0.0000  -0.7027   0.6127   0.0000  -0.4531
  48 C   :4f2+  -0.0000   0.0000  -0.1166   0.0000   0.0000  -0.1385  -0.0000
  49 C   :4f0   -1.8726   1.5816   0.0000   1.9379  -1.4746  -0.0000   0.8747
  50 C   :4f2+   0.0000   0.0000   2.0048  -0.0000  -0.0000   0.7968   0.0000
  51 S   :1s     0.0425  -0.0455  -0.0000  -0.1316  -0.1585  -0.0000  -0.0292
  52 S   :1s     0.9977  -0.7182  -0.0000  -2.9672  -4.5893  -0.0000  -0.7832
  53 S   :1s     2.6439  -2.4462  -0.0000  -8.2991 -12.5337  -0.0000  -2.1310
  54 S   :1s    -0.8903   0.0147   0.0000   2.4848   7.7578   0.0000   1.4779
  55 S   :1s    -4.3724 -11.9348  -0.0000  17.3164  17.9054   0.0000 -13.8664
  56 S   :1s     0.0172  -0.0120  -0.0000  -0.0499  -0.0693  -0.0000  -0.0122
  57 S   :1s     0.7576  -0.2313  -0.0000  -2.1090  -4.1004  -0.0000  -0.6846
  58 S   :1s     1.2267   0.1960  -0.0000   3.4839   5.2749   0.0000  -6.4072
  59 S   :2pz    0.5673   2.4496  -0.0000  -2.2182   0.9596   0.0000   2.4352
  60 S   :2pz    2.0193   9.0113  -0.0000  -6.9910   3.4150   0.0000   8.4830
  61 S   :2pz   -0.9082  -2.9946   0.0000   3.9549  -1.4143  -0.0000  -3.3133
  62 S   :2pz    0.0584  -0.0182   0.0000  -5.5374 -10.0511  -0.0000   5.0524
  63 S   :2pz    0.0036   0.0583   0.0000  -0.0217   0.0237   0.0000   0.0623
  64 S   :2pz    0.0495   0.1107  -0.0000  -0.1839   0.0468   0.0000   0.1044
  65 S   :2pz   -0.1844  -0.1972   0.0000  -0.2111  -0.9590  -0.0000   0.7325
  66 S   :3d0   -0.0033  -0.0054  -0.0000  -0.0009  -0.0036  -0.0000   0.0001
  67 S   :3d2+   0.0000   0.0000   0.0008  -0.0000  -0.0000   0.0005   0.0000
  68 S   :3d0   -0.0388  -0.0509  -0.0000  -0.0228  -0.0476  -0.0000   0.0146
  69 S   :3d2+   0.0000   0.0000   0.0090   0.0000   0.0000   0.0115   0.0000
  70 S   :3d0   -0.3937  -0.6365  -0.0000  -0.2628  -0.4448  -0.0000   0.0266
  71 S   :3d2+   0.0000   0.0000   0.1098  -0.0000   0.0000   0.0832   0.0000
  72 S   :3d0   -0.0796  -1.5006   0.0000   3.0246  -0.3008  -0.0000  -2.3277
  73 S   :3d2+  -0.0000  -0.0000  -0.7624   0.0000   0.0000  -0.4730  -0.0000
  74 S   :3d0   -0.5402  -0.0484  -0.0000   1.8407   2.4391   0.0000  -1.4441
  75 S   :3d2+   0.0000   0.0000   0.0721  -0.0000   0.0000  -0.0162   0.0000
  76 S   :4f0   -0.0039   0.0022  -0.0000  -0.0021   0.0013   0.0000  -0.0001
  77 S   :4f2+   0.0000   0.0000   0.0020  -0.0000   0.0000  -0.0003  -0.0000
  78 S   :4f0   -0.6623   0.8837  -0.0000  -0.7476   0.5831   0.0000   0.1160
  79 S   :4f2+   0.0000   0.0000   0.4696  -0.0000  -0.0000  -0.0267  -0.0000
  80 S   :4f0    0.4042  -0.1929  -0.0000  -0.5033  -0.4025  -0.0000   0.4909
  81 S   :4f2+  -0.0000   0.0000   0.1310   0.0000  -0.0000   0.4315  -0.0000

    Orbital        50       51       52       53       54       55       56
   1 O   :1s    -0.0000  -0.9416   0.2685  -1.6115   1.4966  -2.7131   0.0000
   2 O   :1s    -0.0000  -4.0349   1.1906  -6.6225   4.9804 -10.0900   0.0000
   3 O   :1s     0.0000   0.7282  -0.1822   1.8291  -2.6568   4.5986  -0.0000
   4 O   :1s    -0.0000  -6.8857   3.6744   2.0263 -17.2516  -2.3339   0.0000
   5 O   :1s    -0.0000  -0.3557   0.1042  -0.6755   0.7154  -1.2611   0.0000
   6 O   :1s    -0.0000  -0.0803   0.0209  -0.1135   0.0929  -0.1707   0.0000
   7 O   :1s     0.0000  -2.7526   2.7486  -0.0180  -5.3472  -2.8403   0.0000
   8 O   :2pz    0.0000   1.7408   0.6768  -1.3192   2.1173   1.8931   0.0000
   9 O   :2pz   -0.0000  -3.7874  -0.5074  -0.8917  -5.2234  -4.3418   0.0000
  10 O   :2pz    0.0000  -0.2615   1.4564   0.8046 -10.8184  -3.4088   0.0000
  11 O   :2pz   -0.0000  -0.0402  -0.0114   0.0123  -0.0765  -0.0566  -0.0000
  12 O   :2pz   -0.0000  -0.0005  -0.0002   0.0006  -0.0010  -0.0016  -0.0000
  13 O   :2pz    0.0000   0.3200   0.6623   0.2493  -1.0194  -0.6604   0.0000
  14 O   :3d0    0.0000   0.0051  -0.0033   0.0090   0.0003   0.0059  -0.0000
  15 O   :3d2+  -0.0022   0.0000  -0.0000  -0.0000   0.0000  -0.0000  -0.0093
  16 O   :3d0    0.0000  -0.0598  -0.0511   0.2423   0.0901   0.4561  -0.0000
  17 O   :3d2+  -0.0022   0.0000   0.0000  -0.0000   0.0000  -0.0000  -0.5871
  18 O   :3d0    0.0000   0.4593  -0.5664  -0.4622  -2.5117  -1.6361   0.0000
  19 O   :3d2+  -0.4870   0.0000  -0.0000   0.0000   0.0000   0.0000   0.4306
  20 O   :3d0    0.0000   1.3511  -0.0513   0.6564  -2.9107  -0.4474   0.0000
  21 O   :3d2+   0.0152   0.0000  -0.0000  -0.0000  -0.0000  -0.0000  -0.7327
  22 O   :4f0   -0.0000  -0.1366   0.1359  -0.2272  -0.0591   0.4900  -0.0000
  23 O   :4f2+   0.0769  -0.0000  -0.0000   0.0000   0.0000   0.0000   1.1182
  24 O   :4f0    0.0000   1.1629  -0.5891   0.3713  -0.8110  -0.7428   0.0000
  25 O   :4f2+  -0.6995   0.0000  -0.0000   0.0000   0.0000   0.0000  -0.7689
  26 C   :1s    -0.0000  -0.4624  -3.6850  -0.1963   4.4036   2.4964  -0.0000
  27 C   :1s    -0.0000  -2.5732 -14.6362  -0.7100  19.5365  10.9594  -0.0000
  28 C   :1s    -0.0000  -1.6950   7.3625   0.1687  -3.4805  -2.5571   0.0000
  29 C   :1s    -0.0000   9.1300 -14.3560  -2.9043   2.4843   3.0559  -0.0000
  30 C   :1s    -0.0000  -0.0597  -1.8532  -0.1189   1.7414   1.0050  -0.0000
  31 C   :1s    -0.0000  -0.0630  -0.1952  -0.0042   0.3464   0.1980  -0.0000
  32 C   :1s    -0.0000   1.0105  -5.2700  -1.1178   2.9773   1.5219  -0.0000
  33 C   :2pz    0.0000   3.1968   0.7745   3.1024  -0.2189  -0.1339  -0.0000
  34 C   :2pz   -0.0000  -7.6997  -5.3982  -7.5235  -9.4150  -4.8166   0.0000
  35 C   :2pz   -0.0000  -4.4119  -4.9972  -3.7308   0.3765  -2.1957  -0.0000
  36 C   :2pz   -0.0000  -0.1111  -0.0336  -0.0705  -0.0140  -0.0046  -0.0000
  37 C   :2pz   -0.0000  -0.0029  -0.0003  -0.0044   0.0000  -0.0000   0.0000
  38 C   :2pz   -0.0000  -0.4782  -0.9770  -0.5201   0.1393   0.1259  -0.0000
  39 C   :3d0    0.0000  -0.0064  -0.0026   0.0015   0.0060   0.0034  -0.0000
  40 C   :3d2+   0.0008   0.0000  -0.0000  -0.0000   0.0000   0.0000  -0.0014
  41 C   :3d0    0.0000  -0.8421  -0.1372   0.4583   1.4534   0.8115   0.0000
  42 C   :3d2+   0.1173   0.0000  -0.0000  -0.0000   0.0000   0.0000  -0.0889
  43 C   :3d0    0.0000   4.3392  -4.9819  -0.1178   0.4498   2.5324  -0.0000
  44 C   :3d2+   0.4717  -0.0000   0.0000   0.0000  -0.0000  -0.0000   0.3879
  45 C   :3d0   -0.0000   2.2319  -0.7193  -0.4232   0.4096  -0.4063   0.0000
  46 C   :3d2+   0.1103  -0.0000   0.0000   0.0000   0.0000   0.0000   0.1907
  47 C   :4f0    0.0000  -0.6884  -0.4346  -1.8611  -1.2365  -0.3182   0.0000
  48 C   :4f2+  -1.3869   0.0000  -0.0000   0.0000   0.0000   0.0000   0.2463
  49 C   :4f0   -0.0000   0.2206  -0.2127  -0.3620   1.1658  -1.4409   0.0000
  50 C   :4f2+   0.4679   0.0000   0.0000  -0.0000  -0.0000   0.0000  -0.5525
  51 S   :1s    -0.0000  -0.0511   0.0896   0.0463   0.0090   0.0303  -0.0000
  52 S   :1s    -0.0000  -0.6780   2.4754   1.2926   0.1591   0.5649  -0.0000
  53 S   :1s    -0.0000  -1.8299   7.1902   4.1376   0.5274   1.6638  -0.0000
  54 S   :1s     0.0000  -0.4634  -4.2090  -1.4673  -0.5027  -0.0623   0.0000
  55 S   :1s     0.0000   0.8373  10.7084   2.0302  -1.3025  -2.1000   0.0000
  56 S   :1s    -0.0000  -0.0157   0.0354   0.0161   0.0018   0.0098   0.0000
  57 S   :1s    -0.0000  -0.1777   2.0856   0.9235   0.0746   0.2829  -0.0000
  58 S   :1s     0.0000   0.8553   6.2724   1.2402  -1.7638  -1.5227   0.0000
  59 S   :2pz   -0.0000  -0.3886  -3.7891  -1.1745  -0.4202   0.2157  -0.0000
  60 S   :2pz   -0.0000  -1.3573 -14.1341  -5.1658  -1.8003   0.6173  -0.0000
  61 S   :2pz    0.0000   1.0649   4.8296   0.9507   0.3052  -0.5101   0.0000
  62 S   :2pz   -0.0000  -1.0218  -3.1223   0.4596   1.2823   1.7042  -0.0000
  63 S   :2pz   -0.0000   0.0126  -0.0900  -0.0165  -0.0253   0.0110  -0.0000
  64 S   :2pz   -0.0000  -0.0801  -0.1830  -0.0793   0.0164  -0.0001   0.0000
  65 S   :2pz   -0.0000  -0.0562  -0.6602   0.0301   0.2426   0.2215  -0.0000
  66 S   :3d0   -0.0000   0.0012   0.0043   0.0062   0.0035   0.0010   0.0000
  67 S   :3d2+   0.0001   0.0000  -0.0000  -0.0000  -0.0000  -0.0000  -0.0000
  68 S   :3d0   -0.0000   0.0640   0.1246   0.1369   0.0267  -0.0209  -0.0000
  69 S   :3d2+   0.0177  -0.0000  -0.0000  -0.0000  -0.0000  -0.0000  -0.0182
  70 S   :3d0   -0.0000   0.0971   0.5980   0.8157   0.3985   0.1171  -0.0000
[...]
     139       0.00171706    -0.00069216    -0.00000000    -0.00000969    -0.00000000
     141       0.00718081    -0.00075506    -0.00000000    -0.00003312    -0.00000001
     142       0.01898909    -0.00561842    -0.00000000    -0.00010140    -0.00000003
     143       0.01702735    -0.00603896    -0.00000000    -0.00009432    -0.00000003
     144       0.01780582    -0.00386007     0.00000000    -0.00009113    -0.00000003
     145       0.00409486    -0.00092199    -0.00000000    -0.00002058    -0.00000001
     146       0.00129649    -0.00028146    -0.00000000    -0.00000648    -0.00000000
     147       0.01062493    -0.00081261    -0.00000000    -0.00004896    -0.00000002
     148       0.00020463     0.00016238    -0.00000000    -0.00000031    -0.00000000
     149       0.00833116     0.00627742    -0.00000000    -0.00001392    -0.00000001
     150       0.02278919     0.01427189     0.00000000    -0.00005137    -0.00000003
     151       0.02216557     0.01088206     0.00000000    -0.00006005    -0.00000003
     153      -0.00086987    -0.00645339     0.00000000    -0.00002069    -0.00000000
     155       0.00505814    -0.00618056     0.00000000    -0.00005072    -0.00000001
     156      -0.00238641     0.00042100     0.00000001    -0.00005945     0.00000000
     157       0.03369196     0.00704143    -0.00000000    -0.00011889    -0.00000005
     158       0.02029244     0.00527554     0.00000001    -0.00010394    -0.00000003
     159       0.02760214     0.00489867     0.00000000    -0.00010545    -0.00000004
     160      -0.00669562    -0.00066838     0.00000001    -0.00004055     0.00000001
     161       0.00058093     0.00104202     0.00000001    -0.00006268     0.00000000
     162       0.01320395     0.00134927     0.00000000    -0.00005276    -0.00000002
     163      -0.00024370    -0.00003331    -0.00000000     0.00000095     0.00000000
     164      -0.00083374    -0.00011043     0.00000000     0.00000320     0.00000000
     165      -0.00462264    -0.00040042     0.00000000     0.00001826     0.00000001
     166       0.99126559     0.00035106     0.00000000     0.00003830     0.00000001
     167      -0.00606907     1.00282082     0.00000000     0.00003554     0.00000001
     168       0.00000000     0.00000000     1.00000000     0.00000000    -0.00000000
     169       0.00003104     0.00000354     0.00000000     0.99999988    -0.00000000
     170       0.00000000     0.00000000    -0.00000000    -0.00000000     1.00000000
     171       0.00440740    -0.00021095    -0.00000000    -0.00001946    -0.00000001
     173       0.00588179    -0.00254430    -0.00000000    -0.00003379    -0.00000001

               Column 171     Column 172     Column 173     Column 174     Column 175
     128       0.00281800    -0.00000000     0.00394025     0.00000000     0.00000000
     129       0.00294637    -0.00000000     0.00368922     0.00000000     0.00000000
     130       0.00029025     0.00000000     0.00263156     0.00000000     0.00000000
     131       0.00142432    -0.00000000     0.00131949     0.00000000     0.00000000
     132       0.00048364    -0.00000000     0.00044527     0.00000000     0.00000000
     133      -0.00203337     0.00000000     0.00098177     0.00000000     0.00000000
     134      -0.00001345     0.00000000     0.00002193     0.00000000     0.00000000
     135      -0.00030398     0.00000000     0.00019155     0.00000000     0.00000000
     136      -0.00176084     0.00000000     0.00045012     0.00000000     0.00000000
     137      -0.00399038     0.00000001     0.00031476     0.00000000     0.00000000
     139      -0.00058064     0.00000000     0.00016727     0.00000000     0.00000000
     141      -0.00230559     0.00000000     0.00029684     0.00000000     0.00000000
     142      -0.00631475     0.00000001     0.00148095     0.00000000     0.00000000
     143      -0.00571926     0.00000001     0.00151563     0.00000000     0.00000000
     144      -0.00584769     0.00000001     0.00113371     0.00000000     0.00000000
     145      -0.00134288     0.00000000     0.00026169     0.00000000     0.00000000
     146      -0.00042457     0.00000000     0.00008088     0.00000000     0.00000000
     147      -0.00340186     0.00000001     0.00039303     0.00000000     0.00000000
     148      -0.00005515     0.00000000    -0.00002617     0.00000000     0.00000000
     149      -0.00226656     0.00000000    -0.00099954     0.00000000     0.00000000
     150      -0.00639191     0.00000001    -0.00215222     0.00000000     0.00000000
     151      -0.00638673     0.00000001    -0.00153196     0.00000000     0.00000000
     153      -0.00011221     0.00000000     0.00121880     0.00000000     0.00000000
     155      -0.00200958     0.00000000     0.00135915     0.00000000     0.00000000
     156       0.00021863    -0.00000000     0.00065443     0.00000000     0.00000000
     157      -0.01021152     0.00000002    -0.00059843     0.00000000     0.00000000
     158      -0.00637275     0.00000001    -0.00015829     0.00000000     0.00000000
     159      -0.00845525     0.00000002    -0.00027077     0.00000000     0.00000000
     160       0.00154797    -0.00000000     0.00071847     0.00000000     0.00000000
     161      -0.00062387    -0.00000000     0.00052155     0.00000000     0.00000000
     162      -0.00409293     0.00000001     0.00004521     0.00000000     0.00000000
     163       0.00007512    -0.00000000     0.00000067     0.00000000     0.00000000
     164       0.00025667    -0.00000000     0.00000236     0.00000000     0.00000000
     165       0.00143342    -0.00000000    -0.00002427     0.00000000     0.00000000
     166       0.00277173    -0.00000001    -0.00025406     0.00000000     0.00000000
     167       0.00207380    -0.00000000    -0.00066173     0.00000000     0.00000000
     169      -0.00000961     0.00000000     0.00000005     0.00000000     0.00000000
     171       0.99859936     0.00000000     0.00013467     0.00000000     0.00000000
     172      -0.00000000     1.00000000    -0.00000000     0.00000000     0.00000000
     173      -0.00199894     0.00000000     1.00060564     0.00000000     0.00000000
     174       0.00000000     0.00000000     0.00000000     1.00000000     0.00000000
     175       0.00000000     0.00000000     0.00000000     0.00000000     1.00000000

               Column 176     Column 177     Column 178     Column 179     Column 180
     176       1.00000000     0.00000000     0.00000000     0.00000000     0.00000000
     177       0.00000000     1.00000000     0.00000000     0.00000000     0.00000000
     178       0.00000000     0.00000000     1.00000000     0.00000000     0.00000000
     179       0.00000000     0.00000000     0.00000000     1.00000000     0.00000000
     180       0.00000000     0.00000000     0.00000000     0.00000000     1.00000000

               Column 181     Column 182     Column 183     Column 184     Column 185
     181       1.00000000     0.00000000     0.00000000     0.00000000     0.00000000
     182       0.00000000     1.00000000     0.00000000     0.00000000     0.00000000
     183       0.00000000     0.00000000     1.00000000     0.00000000     0.00000000
     184       0.00000000     0.00000000     0.00000000     1.00000000     0.00000000
     185       0.00000000     0.00000000     0.00000000     0.00000000     1.00000000

               Column 186     Column 187     Column 188     Column 189     Column 190
     186       1.00000000     0.00000000     0.00000000     0.00000000     0.00000000
     187       0.00000000     1.00000000     0.00000000     0.00000000     0.00000000
     188       0.00000000     0.00000000     1.00000000     0.00000000     0.00000000
     189       0.00000000     0.00000000     0.00000000     1.00000000     0.00000000
     190       0.00000000     0.00000000     0.00000000     0.00000000     1.00000000

               Column 191     Column 192     Column 193
     191       1.00000000     0.00000000     0.00000000
     192       0.00000000     1.00000000     0.00000000
     193       0.00000000     0.00000000     1.00000000
    ==== End of matrix output ====
 -----------------------------------------------------------------------------
@  1    -491.627974229        2.48132D+00   -4.92D+02    1
      Virial theorem: -V/T =      1.952654
@      MULPOP O      -0.72; C       0.38; S       1.34; 
 -----------------------------------------------------------------------------
@  2    -491.663546862        4.65255D-02   -3.56D-02    2
      Virial theorem: -V/T =      1.945876
@      MULPOP O      -0.72; C       0.38; S       1.34; 
 -----------------------------------------------------------------------------
@  3    -491.663566983        1.07529D-03   -2.01D-05    3
      Virial theorem: -V/T =      1.945984
@      MULPOP O      -0.72; C       0.38; S       1.34; 
 -----------------------------------------------------------------------------
@  4    -491.663566994        1.18601D-05   -1.12D-08    4
      Virial theorem: -V/T =      1.945982
@      MULPOP O      -0.72; C       0.38; S       1.34; 
 -----------------------------------------------------------------------------
@  5    -491.663566994        2.42222D-07   -2.50D-12    5

@ *** DIIS converged in   5 iterations !
@     Converged SCF energy, gradient:   -491.663566994202    2.42D-07
    - total time used in SIRFCK :              0.00 seconds


 *** SCF orbital energy analysis ***

 Orbital energy analysis for an open-shell system.
 Orbital energies are not well-defined for open-shell systems
   here is used block diagonalization of the FD=FC+FV Fock matrix.
 NOTE that Koopmans' theorem is not fulfilled for this case.

 Only the five lowest virtual orbital energies printed in each symmetry.

 Number of electrons :   28
 Orbital occupations :    8    3    3    0

 Sym       Kohn-Sham orbital energies

  1    -89.20692047   -10.67404969    -8.28327112    -6.24504074    -1.62625093
        -1.11352570    -0.99218702    -0.76921486   -21.24357800    -0.24180712
        -0.18330631    -0.11956656    -0.07951348    -0.07940078

  2     -6.24092000    -0.91467739    -0.60837833    -0.35031273    -0.11447355
        -0.06568577     0.01038540     0.06371578

  3     -6.24092000    -0.91467739    -0.60837833    -0.35031273    -0.11447355
        -0.06568577     0.01038540     0.06371578

  4     -0.07940083     0.06250634     0.27500384     0.39263154     0.50385083


    E(LUMO) :    -0.35031273 au (symmetry 2)
  - E(HOMO) :    -0.60837833 au (symmetry 2)
  ------------------------------------------
    gap     :     0.25806561 au

and E(SOMO) :   -21.24357800 au (symmetry 1)

 NOTE: MOLECULAR ORBITALS ARE NOT CANONICAL HARTREE-FOCK ORBITALS

 Largest off-diagonal Fock matrix element is  3.00D-01

 >>> Writing SIRIFC interface file <<<

 >>>> CPU and wall time for SCF :      50.314      51.641


                       .-----------------------------------.
                       | >>> Final results from SIRIUS <<< |
                       `-----------------------------------'


@    Spin multiplicity:           2
@    Spatial symmetry:            1
@    Total charge of molecule:    1

@    Final DFT energy:           -491.663566994202                 
@    Nuclear repulsion:            80.281643676153
@    Electronic energy:          -571.945210670355

@    Final gradient norm:           0.000000242222

 
     Date and time (Linux)  : Sun Sep  8 21:01:29 2013
     Host name              : lpqlx131.ups-tlse.fr                    

 (Only coefficients >0.0100 are printed.)

 Molecular orbitals for symmetry species  1
 ------------------------------------------

    Orbital         5        6        7        8        9       10       11
   1 O   :1s     0.0703   0.0143  -0.0119  -0.0078  -1.0617   0.0110   0.0008
   2 O   :1s    -0.7361  -0.1482   0.4932   0.0107  -0.0425   0.3149  -0.0916
   3 O   :1s    -0.1089  -0.0266   0.0417   0.0128   0.0286   0.0256  -0.0144
   4 O   :1s     0.1028  -0.0196   0.1632  -0.0302   0.0115   0.1257  -0.3075
   5 O   :1s    -0.0030   0.0001   0.0107  -0.0024   0.0516   0.0077  -0.0007
   6 O   :1s     0.0109   0.0024  -0.0049  -0.0007  -0.0044  -0.0013   0.0008
   7 O   :1s    -0.0025  -0.0185   0.0400  -0.0194  -0.0007   0.0786  -0.8767
   8 O   :2pz   -0.3642   0.1119  -1.0172   0.2093   0.0011   0.3340   0.0384
   9 O   :2pz    0.0655  -0.0108   0.1841  -0.0427  -0.0014  -0.0331  -0.0131
  10 O   :2pz    0.1049  -0.0327   0.2898  -0.0531   0.0021  -0.0009  -0.1389
  13 O   :2pz    0.0051  -0.0053   0.0044  -0.0079   0.0001   0.0169  -0.2278
  16 O   :3d0   -0.0099   0.0016  -0.0133   0.0022  -0.0004   0.0014  -0.0006
  18 O   :3d0   -0.0187   0.0014  -0.0094   0.0011  -0.0006   0.0045  -0.0060
  20 O   :3d0    0.0012  -0.0018   0.0168  -0.0021   0.0013   0.0035  -0.0354
  26 C   :1s     0.0403  -0.0142  -0.0058   0.0022   0.0007  -0.0207  -0.0217
  27 C   :1s    -0.3065   0.5150  -0.3521  -0.4411   0.0000  -0.5641  -0.4189
  28 C   :1s    -0.0221   0.0070  -0.0011  -0.0023  -0.0009   0.0154  -0.0125
  29 C   :1s     0.0859  -0.0734   0.0468  -0.0020   0.0008  -0.4967   0.5966
  30 C   :1s     0.0086   0.0010  -0.0040  -0.0031   0.0001  -0.0106  -0.0073
  32 C   :1s    -0.0087   0.0425  -0.0123   0.0048  -0.0007  -0.6129   1.8635
  33 C   :2pz    0.3357   0.3335   0.3839  -0.3962   0.0048  -0.1278  -0.2943
  34 C   :2pz   -0.0469  -0.0226   0.0230   0.0185  -0.0041   0.0611   0.0048
  35 C   :2pz   -0.1320  -0.0835  -0.1386   0.0557  -0.0058   0.0474  -0.0922
  38 C   :2pz   -0.0038   0.0078  -0.0027   0.0075  -0.0003   0.0353   0.2270
  41 C   :3d0   -0.0281   0.0094  -0.0203   0.0054   0.0003   0.0443  -0.0120
  43 C   :3d0   -0.0231   0.0103  -0.0115   0.0084   0.0014   0.0781   0.0429
  45 C   :3d0    0.0103   0.0045  -0.0167  -0.0079  -0.0001   0.0495   0.0994
  47 C   :4f0    0.0149   0.0088   0.0188  -0.0112  -0.0005  -0.0007   0.0025
  49 C   :4f0    0.0050   0.0075  -0.0134  -0.0064  -0.0012  -0.0135   0.0055
  52 S   :1s    -0.0080  -0.0268  -0.0029   0.0141   0.0007   0.0387  -0.0552
  53 S   :1s    -0.0337   0.7197   0.2336   0.6911   0.0015   0.4862  -0.2136
  54 S   :1s     0.0069   0.0173   0.0101  -0.0022  -0.0003   0.0032   0.0391
  55 S   :1s     0.0242  -0.1346  -0.0154   0.1087   0.0009   0.1189  -0.1205
  57 S   :1s    -0.0041   0.0006   0.0027   0.0145   0.0002   0.0190  -0.0346
  58 S   :1s     0.0218  -0.0514  -0.0055   0.0059   0.0009   0.0673  -0.3889
  59 S   :2pz    0.0025   0.0392   0.0117  -0.0467  -0.0001  -0.0021   0.0246
  60 S   :2pz    0.0202  -0.1709   0.0083   0.5568  -0.0018  -0.6847  -0.1334
  61 S   :2pz   -0.0001  -0.0273  -0.0108   0.0392  -0.0001  -0.0100  -0.0290
  62 S   :2pz   -0.0281   0.0729   0.0089  -0.1490   0.0001  -0.1690  -0.1543
  65 S   :2pz   -0.0039   0.0093   0.0035  -0.0033  -0.0001  -0.1360  -0.0517
  68 S   :3d0    0.0000   0.0058   0.0011  -0.0076  -0.0000  -0.0138  -0.0222
  70 S   :3d0   -0.0046   0.0333   0.0014  -0.0415   0.0003  -0.0803  -0.1365
  72 S   :3d0   -0.0016   0.0122  -0.0130  -0.0196   0.0001  -0.1133  -0.1847
  74 S   :3d0    0.0065  -0.0071  -0.0069   0.0037  -0.0002  -0.0723  -0.1441
  78 S   :4f0    0.0016  -0.0100   0.0016   0.0091  -0.0002   0.0060   0.0185

 Molecular orbitals for symmetry species  2
 ------------------------------------------

    Orbital         1        2        3        4        5
   1 O   :2px   -0.0002   1.1227   0.4120  -0.4873   0.1262
   2 O   :2px    0.0004  -0.1536  -0.0495   0.0555  -0.0142
   3 O   :2px    0.0019  -0.1921  -0.0565   0.0338  -0.0388
   6 O   :2px    0.0002   0.0144   0.0130  -0.0349   0.0088
   8 O   :3d1+  -0.0001   0.0132  -0.0010   0.0065   0.0034
   9 O   :3d1+   0.0007   0.0244  -0.0002   0.0188   0.0030
  10 O   :3d1+   0.0013   0.0041  -0.0060   0.0211   0.0111
  15 C   :2px   -0.0004   0.4159  -0.4782   0.8734   0.1915
  16 C   :2px    0.0000  -0.0317   0.0079  -0.0239   0.0133
  17 C   :2px   -0.0003  -0.0701   0.0782   0.0344  -0.0520
  20 C   :2px   -0.0001   0.0012  -0.0082   0.0529  -0.7761
  22 C   :3d1+   0.0000  -0.0234  -0.0177   0.0026   0.0009
  23 C   :3d1+   0.0034  -0.0188  -0.0435   0.0198   0.0134
  24 C   :3d1+   0.0001   0.0485  -0.0017   0.0354   0.0782
  25 C   :4f1+  -0.0005   0.0141  -0.0083   0.0017   0.0073
  27 C   :4f1+   0.0012   0.0174   0.0128  -0.0141   0.0143
  29 S   :2px    1.0083  -0.0089   0.0192   0.0038   0.0085
  30 S   :2px   -0.0101   0.0470  -0.8198  -0.6388   0.2991
  31 S   :2px    0.0125   0.0086  -0.0135  -0.0092   0.0017
  32 S   :2px    0.0047  -0.0659   0.0830  -0.1162  -0.0654
  35 S   :2px   -0.0008  -0.0050   0.0084  -0.0453  -0.3077
  37 S   :3d1+  -0.0005  -0.0017   0.0058  -0.0125  -0.0027
  38 S   :3d1+  -0.0003  -0.0095   0.0349  -0.0755  -0.0152
  39 S   :3d1+   0.0023   0.0053   0.0395  -0.0883  -0.0121
  40 S   :3d1+  -0.0005   0.0212   0.0113  -0.0142   0.0202
  43 S   :4f1+  -0.0002  -0.0004  -0.0118   0.0139   0.0038

 Molecular orbitals for symmetry species  3
 ------------------------------------------

    Orbital         1        2        3        4        5
   1 O   :2py   -0.0002   1.1227   0.4120  -0.4873   0.1262
   2 O   :2py    0.0004  -0.1536  -0.0495   0.0555  -0.0142
   3 O   :2py    0.0019  -0.1921  -0.0565   0.0338  -0.0388
   6 O   :2py    0.0002   0.0144   0.0130  -0.0349   0.0088
   8 O   :3d1-  -0.0001   0.0132  -0.0010   0.0065   0.0034
   9 O   :3d1-   0.0007   0.0244  -0.0002   0.0188   0.0030
  10 O   :3d1-   0.0013   0.0041  -0.0060   0.0211   0.0111
  15 C   :2py   -0.0004   0.4159  -0.4782   0.8734   0.1915
  16 C   :2py    0.0000  -0.0317   0.0079  -0.0239   0.0133
  17 C   :2py   -0.0003  -0.0701   0.0782   0.0344  -0.0520
  20 C   :2py   -0.0001   0.0012  -0.0082   0.0529  -0.7761
  22 C   :3d1-   0.0000  -0.0234  -0.0177   0.0026   0.0009
  23 C   :3d1-   0.0034  -0.0188  -0.0435   0.0198   0.0134
  24 C   :3d1-   0.0001   0.0485  -0.0017   0.0354   0.0782
  26 C   :4f1-  -0.0005   0.0141  -0.0083   0.0017   0.0073
  28 C   :4f1-   0.0012   0.0174   0.0128  -0.0141   0.0143
  29 S   :2py    1.0083  -0.0089   0.0192   0.0038   0.0085
  30 S   :2py   -0.0101   0.0470  -0.8198  -0.6388   0.2991
  31 S   :2py    0.0125   0.0086  -0.0135  -0.0092   0.0017
  32 S   :2py    0.0047  -0.0659   0.0830  -0.1162  -0.0654
  35 S   :2py   -0.0008  -0.0050   0.0084  -0.0453  -0.3077
  37 S   :3d1-  -0.0005  -0.0017   0.0058  -0.0125  -0.0027
  38 S   :3d1-  -0.0003  -0.0095   0.0349  -0.0755  -0.0152
  39 S   :3d1-   0.0023   0.0053   0.0395  -0.0883  -0.0121
  40 S   :3d1-  -0.0005   0.0212   0.0113  -0.0142   0.0202
  44 S   :4f1-  -0.0002  -0.0004  -0.0118   0.0139   0.0038

 Molecular orbitals for symmetry species  4
 ------------------------------------------

    Orbital         1        2
   3 O   :3d2-   0.0173   0.0400
   4 O   :3d2-   0.0047   0.0820
   6 O   :4f2-   0.0055   0.0188
   8 C   :3d2-   0.0213   0.0268
   9 C   :3d2-   0.0495  -0.0053
  10 C   :3d2-   0.3507   1.1850
  12 C   :4f2-   0.0100   0.0459
  14 S   :3d2-   0.0258  -0.0181
  15 S   :3d2-   0.1600  -0.1121
  16 S   :3d2-   0.1649  -0.1194
  17 S   :3d2-   0.5328  -0.9244
  19 S   :4f2-  -0.0089  -0.0244
  20 S   :4f2-   0.0044   0.0572



 >>>> Total CPU  time used in SIRIUS :     50.34 seconds
 >>>> Total wall time used in SIRIUS :     51.67 seconds

 
     Date and time (Linux)  : Sun Sep  8 21:01:29 2013
     Host name              : lpqlx131.ups-tlse.fr                    


                     .---------------------------------------.
                     | End of Wave Function Section (SIRIUS) |
                     `---------------------------------------'

 >>>> Total CPU  time used in DALTON:  1 minute   4 seconds
 >>>> Total wall time used in DALTON:  1 minute   6 seconds

 
     Date and time (Linux)  : Sun Sep  8 21:01:29 2013
     Host name              : lpqlx131.ups-tlse.fr                    
