

     ************************************************************************
     *************** Dalton - An Electronic Structure Program ***************
     ************************************************************************

    This is output from DALTON (Release Dalton2013 patch 0)
   ----------------------------------------------------------------------------
    NOTE:
     
    Dalton is an experimental code for the evaluation of molecular
    properties using (MC)SCF, DFT, CI, and CC wave functions.
    The authors accept no responsibility for the performance of
    the code or for the correctness of the results.
     
    The code (in whole or part) is provided under a licence and
    is not to be reproduced for further distribution without
    the written permission of the authors or their representatives.
     
    See the home page "http://daltonprogram.org" for further information.
     
    If results obtained with this code are published,
    the appropriate citations would be both of:
     
       K. Aidas, C. Angeli, K. L. Bak, V. Bakken, R. Bast,
       L. Boman, O. Christiansen, R. Cimiraglia, S. Coriani,
       P. Dahle, E. K. Dalskov, U. Ekstroem, T. Enevoldsen,
       J. J. Eriksen, P. Ettenhuber, B. Fernandez, L. Ferrighi,
       H. Fliegl, L. Frediani, K. Hald, A. Halkier, C. Haettig,
       H. Heiberg, T. Helgaker, A. C. Hennum, H. Hettema,
       E. Hjertenaes, S. Hoest, I.-M. Hoeyvik, M. F. Iozzi,
       B. Jansik, H. J. Aa. Jensen, D. Jonsson, P. Joergensen,
       J. Kauczor, S. Kirpekar, T. Kjaergaard, W. Klopper,
       S. Knecht, R. Kobayashi, H. Koch, J. Kongsted, A. Krapp,
       K. Kristensen, A. Ligabue, O. B. Lutnaes, J. I. Melo,
       K. V. Mikkelsen, R. H. Myhre, C. Neiss, C. B. Nielsen,
       P. Norman, J. Olsen, J. M. H. Olsen, A. Osted,
       M. J. Packer, F. Pawlowski, T. B. Pedersen, P. F. Provasi,
       S. Reine, Z. Rinkevicius, T. A. Ruden, K. Ruud, V. Rybkin,
       P. Salek, C. C. M. Samson, A. Sanchez de Meras, T. Saue,
       S. P. A. Sauer, B. Schimmelpfennig, K. Sneskov,
       A. H. Steindal, K. O. Sylvester-Hvid, P. R. Taylor,
       A. M. Teale, E. I. Tellgren, D. P. Tew, A. J. Thorvaldsen,
       L. Thoegersen, O. Vahtras, M. A. Watson, D. J. D. Wilson,
       M. Ziolkowski and H. Agren.
       The Dalton quantum chemistry program system.
       WIREs Comput. Mol. Sci. 2013. doi: 10.1002/wcms.1172
    
    and
    
       Dalton, a Molecular Electronic Structure Program,
       Release DALTON2013.0 (2013), see http://daltonprogram.org
   ----------------------------------------------------------------------------

    Authors in alphabetical order (major contribution(s) in parenthesis):

  Kestutis Aidas,           Vilnius University,           Lithuania   (QM/MM)
  Celestino Angeli,         University of Ferrara,        Italy       (NEVPT2)
  Keld L. Bak,              UNI-C,                        Denmark     (AOSOPPA, non-adiabatic coupling, magnetic properties)
  Vebjoern Bakken,          University of Oslo,           Norway      (DALTON; geometry optimizer, symmetry detection)
  Radovan Bast,             KTH Stockholm                 Sweden      (DALTON installation and execution frameworks)
  Linus Boman,              NTNU,                         Norway      (Cholesky decomposition and subsystems)
  Ove Christiansen,         Aarhus University,            Denmark     (CC module)
  Renzo Cimiraglia,         University of Ferrara,        Italy       (NEVPT2)
  Sonia Coriani,            University of Trieste,        Italy       (CC module, MCD in RESPONS)
  Paal Dahle,               University of Oslo,           Norway      (Parallelization)
  Erik K. Dalskov,          UNI-C,                        Denmark     (SOPPA)
  Thomas Enevoldsen,        Univ. of Southern Denmark,    Denmark     (SOPPA)
  Janus J. Eriksen,         Aarhus University,            Denmark     (PE-MP2/SOPPA, TDA)
  Berta Fernandez,          U. of Santiago de Compostela, Spain       (doublet spin, ESR in RESPONS)
  Lara Ferrighi,            Aarhus University,            Denmark     (PCM Cubic response)
  Heike Fliegl,             University of Oslo,           Norway      (CCSD(R12))
  Luca Frediani,            UiT The Arctic U. of Norway,  Norway      (PCM)
  Bin Gao,                  UiT The Arctic U. of Norway,  Norway      (Gen1Int library)
  Christof Haettig,         Ruhr-University Bochum,       Germany     (CC module)
  Kasper Hald,              Aarhus University,            Denmark     (CC module)
  Asger Halkier,            Aarhus University,            Denmark     (CC module)
  Hanne Heiberg,            University of Oslo,           Norway      (geometry analysis, selected one-electron integrals)
  Trygve Helgaker,          University of Oslo,           Norway      (DALTON; ABACUS, ERI, DFT modules, London, and much more)
  Alf Christian Hennum,     University of Oslo,           Norway      (Parity violation)
  Hinne Hettema,            University of Auckland,       New Zealand (quadratic response in RESPONS; SIRIUS supersymmetry)
  Eirik Hjertenaes,         NTNU,                         Norway      (Cholesky decomposition)
  Maria Francesca Iozzi,    University of Oslo,           Norway      (RPA)
  Brano Jansik              Technical Univ. of Ostrava    Czech Rep.  (DFT cubic response)
  Hans Joergen Aa. Jensen,  Univ. of Southern Denmark,    Denmark     (DALTON; SIRIUS, RESPONS, ABACUS modules, London, and much more)
  Dan Jonsson,              UiT The Arctic U. of Norway,  Norway      (cubic response in RESPONS module)
  Poul Joergensen,          Aarhus University,            Denmark     (RESPONS, ABACUS, and CC modules)
  Joanna Kauczor,           Linkoeping University,        Sweden      (Complex polarization propagator (CPP) module)
  Sheela Kirpekar,          Univ. of Southern Denmark,    Denmark     (Mass-velocity & Darwin integrals)
  Wim Klopper,              KIT Karlsruhe,                Germany     (R12 code in CC, SIRIUS, and ABACUS modules)
  Stefan Knecht,            ETH Zurich,                   Switzerland (Parallel CI and MCSCF)
  Rika Kobayashi,           Australian National Univ.,    Australia   (DIIS in CC, London in MCSCF)
  Henrik Koch,              NTNU,                         Norway      (CC module, Cholesky decomposition)
  Jacob Kongsted,           Univ. of Southern Denmark,    Denmark     (Polarizable embedding, QM/MM)
  Andrea Ligabue,           University of Modena,         Italy       (CTOCD, AOSOPPA)
  Ola B. Lutnaes,           University of Oslo,           Norway      (DFT Hessian)
  Juan I. Melo,             University of Buenos Aires,   Argentina   (LRESC, Relativistic Effects on NMR Shieldings)
  Kurt V. Mikkelsen,        University of Copenhagen,     Denmark     (MC-SCRF and QM/MM)
  Rolf H. Myhre,            NTNU,                         Norway      (Cholesky, subsystems and ECC2)
  Christian Neiss,          Univ. Erlangen-Nuernberg,     Germany     (CCSD(R12))
  Christian B. Nielsen,     University of Copenhagen,     Denmark     (QM/MM)
  Patrick Norman,           Linkoeping University,        Sweden      (Cubic response and complex response in RESPONS)
  Jeppe Olsen,              Aarhus University,            Denmark     (SIRIUS CI/density modules)
  Jogvan Magnus H. Olsen,   Univ. of Southern Denmark,    Denmark     (Polarizable embedding, PE library, QM/MM)
  Anders Osted,             Copenhagen University,        Denmark     (QM/MM)
  Martin J. Packer,         University of Sheffield,      UK          (SOPPA)
  Filip Pawlowski,          Kazimierz Wielki University   Poland      (CC3)
  Thomas B. Pedersen,       University of Oslo,           Norway      (Cholesky decomposition)
  Patricio F. Provasi,      University of Northeastern,   Argentina   (Analysis of coupling constants in localized orbitals)
  Zilvinas Rinkevicius,     KTH Stockholm,                Sweden      (open-shell DFT, ESR)
  Elias Rudberg,            KTH Stockholm,                Sweden      (DFT grid and basis info)
  Torgeir A. Ruden,         University of Oslo,           Norway      (Numerical derivatives in ABACUS)
  Kenneth Ruud,             UiT The Arctic U. of Norway,  Norway      (DALTON; ABACUS magnetic properties and  much more)
  Pawel Salek,              KTH Stockholm,                Sweden      (DALTON; DFT code)
  Claire C. M. Samson       University of Karlsruhe       Germany     (Boys localization, r12 integrals in ERI)
  Alfredo Sanchez de Meras, University of Valencia,       Spain       (CC module, Cholesky decomposition)
  Trond Saue,               Paul Sabatier University,     France      (direct Fock matrix construction)
  Stephan P. A. Sauer,      University of Copenhagen,     Denmark     (SOPPA(CCSD), SOPPA prop., AOSOPPA, vibrational g-factors)
  Bernd Schimmelpfennig,    Forschungszentrum Karlsruhe,  Germany     (AMFI module)
  Kristian Sneskov,         Aarhus University,            Denmark     (QM/MM, PE-CC)
  Arnfinn H. Steindal,      UiT The Arctic U. of Norway,  Norway      (parallel QM/MM)
  K. O. Sylvester-Hvid,     University of Copenhagen,     Denmark     (MC-SCRF)
  Peter R. Taylor,          VLSCI/Univ. of Melbourne,     Australia   (Symmetry handling ABACUS, integral transformation)
  Andrew M. Teale,          University of Nottingham,     England     (DFT-AC, DFT-D)
  David P. Tew,             University of Bristol,        England     (CCSD(R12))
  Olav Vahtras,             KTH Stockholm,                Sweden      (triplet response, spin-orbit, ESR, TDDFT, open-shell DFT)
  David J. Wilson,          La Trobe University,          Australia   (DFT Hessian and DFT magnetizabilities)
  Hans Agren,               KTH Stockholm,                Sweden      (SIRIUS module, RESPONS, MC-SCRF solvation model)
 --------------------------------------------------------------------------------

     Date and time (Linux)  : Sun Sep  8 20:53:40 2013
     Host name              : lpqlx131.ups-tlse.fr                    

 * Work memory size             :    64000000 =  488.28 megabytes.

 * Directories for basis set searches:
   1) /home/bast/DALTON-2013.0-Source/build/test_dft_optimize_sym
   2) /home/bast/DALTON-2013.0-Source/build/basis


Compilation information
-----------------------

 Who compiled             | bast
 Host                     | lpqlx131.ups-tlse.fr
 System                   | Linux-3.8.5-201.fc18.x86_64
 CMake generator          | Unix Makefiles
 Processor                | x86_64
 64-bit integers          | OFF
 MPI                      | OFF
 Fortran compiler         | /usr/bin/gfortran
 Fortran compiler version | GNU Fortran (GCC) 4.7.2 20121109 (Red Hat 4.7.2-8)
 C compiler               | /usr/bin/gcc
 C compiler version       | gcc (GCC) 4.7.2 20121109 (Red Hat 4.7.2-8)
 C++ compiler             | /usr/bin/g++
 C++ compiler version     | g++ (GCC) 4.7.2 20121109 (Red Hat 4.7.2-8)
 Static linking           | OFF
 Last Git revision        | f34203295a86316e27f9e7b44f9b6769c4a046c0
 Configuration time       | 2013-09-08 20:31:27.952056


   Content of the .dal input file
 ----------------------------------

**DALTON INPUT                                    
.OPTIMIZE                                         
**WAVE FUNCTIONS                                  
.DFT                                              
 B3LYPGauss                                       
**END OF INPUT                                    
                                                  


   Content of the .mol file
 ----------------------------

BASIS                                                                          
6-31G*                                                                         
H2O                                                                            
Symmetry                                                                       
    2                                                                          
        8.    1                                                                
O     0.0  0.0000000000 0.0                                                    
        1.    2                                                                
H     1.430    0.0  0.8                                                        
H    -1.430    0.0  0.8                                                        
                                                                               


       *******************************************************************
       *********** Output from DALTON general input processing ***********
       *******************************************************************

 --------------------------------------------------------------------------------
   Overall default print level:    0
   Print level for DALTON.STAT:    1

    "Old" integral transformation used (limited to max 255 basis functions)
 --------------------------------------------------------------------------------


 Chosen parameters for *OPTIMI :
 -------------------------------

 Default 1st order method will be used:   BFGS update.
 Optimization will be performed in redundant internal coordinates.
 Model Hessian will be used as initial Hessian.
 The model Hessian parameters of Roland Lindh will be used.


 Trust region method will be used to control step (default).



              >>>>>>>>>>>>>>>>>>>>>>>>>>>>>>>>>>>>>>>>>>>>>>>>>>>>>
              >>>>>>>>>> 1st Order Geometry Optimization >>>>>>>>>>
              >>>>>>>>>>>>>>>>>>>>>>>>>>>>>>>>>>>>>>>>>>>>>>>>>>>>>

 Reading .mol file to determine number of atoms for parallel runs.


                      SYMADD: Requested addition of symmetry
                      --------------------------------------

 Symmetry test threshold:  5.00E-06

 - molecule centered at center of mass and rotated so
   principal axes of inertia are along coordinate axes.

 Symmetry class found: C(2v)          

 The following elements were found:   X  Y     


   ****************************************************************************
   *************** Output of molecule and basis set information ***************
   ****************************************************************************


    The two title cards from your ".mol" input:
    ------------------------------------------------------------------------
 1: H2O                                                                     
 2: Symmetry                                                                
    ------------------------------------------------------------------------

  Atomic type no.    1
  --------------------
  Nuclear charge:   8.00000
  Number of symmetry independent centers:    1
  Number of basis sets to read;    2
  Basis set file used for this atomic type with Z =   8 :
     "/home/bast/DALTON-2013.0-Source/build/basis/6-31G*"

  Info about the basis set file: your basis has no documentation.
  Basis set: 6-31G*                                                                          

  Atomic type no.    2
  --------------------
  Nuclear charge:   1.00000
  Number of symmetry independent centers:    2
  Number of basis sets to read;    2
  Basis set file used for this atomic type with Z =   1 :
     "/home/bast/DALTON-2013.0-Source/build/basis/6-31G*"

  Info about the basis set file: your basis has no documentation.
  Basis set: 6-31G*                                                                          


                      SYMADD: Requested addition of symmetry
                      --------------------------------------

 Symmetry test threshold:  5.00E-06

 - molecule centered at center of mass and rotated so
   principal axes of inertia are along coordinate axes.

 Symmetry class found: C(2v)          

 Symmetry Independent Centres             
 ----------------------------
       8 :      0.00000000     0.00000000    -0.08953189  Isotope  1
       1 :      0.00000000     1.43000000     0.71046811  Isotope  1

 The following elements were found:   X  Y     


                         SYMGRP: Point group information
                         -------------------------------

Full point group is: C(2v)          
Represented as:      C2v

   * The point group was generated by:

      Reflection in the yz-plane
      Reflection in the xz-plane

   * Group multiplication table

        |  E   C2z  Oxz  Oyz
   -----+--------------------
     E  |  E   C2z  Oxz  Oyz
    C2z | C2z   E   Oyz  Oxz
    Oxz | Oxz  Oyz   E   C2z
    Oyz | Oyz  Oxz  C2z   E 

   * Character table

        |  E   C2z  Oxz  Oyz
   -----+--------------------
    A1  |   1    1    1    1
    B1  |   1   -1    1   -1
    B2  |   1   -1   -1    1
    A2  |   1    1   -1   -1

   * Direct product table

        | A1   B1   B2   A2 
   -----+--------------------
    A1  | A1   B1   B2   A2 
    B1  | B1   A1   A2   B2 
    B2  | B2   A2   A1   B1 
    A2  | A2   B2   B1   A1 


                                 Isotopic Masses
                                 ---------------

                           O          15.994915
                           H   _1      1.007825
                           H   _2      1.007825

                       Total mass:    18.010565 amu
                       Natural abundance:  99.730 %

 Center-of-mass coordinates (a.u.):    0.000000    0.000000    0.000000


  Atoms and basis sets
  --------------------

  Number of atom types :    2
  Total number of atoms:    3

  Basis set used is "6-31G*" from the basis set library.

  label    atoms   charge   prim   cont     basis
  ----------------------------------------------------------------------
  O           1    8.0000    27    14      [10s4p1d|3s2p1d]                                   
  H           2    1.0000     4     2      [4s|2s]                                            
  ----------------------------------------------------------------------
  total:      3   10.0000    35    18
  ----------------------------------------------------------------------
  Spherical harmonic basis used.

  Threshold for neglecting AO integrals:  1.00D-12


  Cartesian Coordinates (a.u.)
  ----------------------------

  Total number of coordinates:    9
  O       :     1  x   0.0000000000    2  y   0.0000000000    3  z  -0.0895318942
  H   / 1 :     4  x   0.0000000000    5  y   1.4300000000    6  z   0.7104681058
  H   / 2 :     7  x   0.0000000000    8  y  -1.4300000000    9  z   0.7104681058


  Symmetry Coordinates
  --------------------

  Number of coordinates in each symmetry:     3    2    3    1

  Symmetry  A1  ( 1)

    1   O     z    3
    2   H     y    [  5  -    8 ]/2
    3   H     z    [  6  +    9 ]/2

  Symmetry  B1  ( 2)

    4   O     x    1
    5   H     x    [  4  +    7 ]/2

  Symmetry  B2  ( 3)

    6   O     y    2
    7   H     y    [  5  +    8 ]/2
    8   H     z    [  6  -    9 ]/2

  Symmetry  A2  ( 4)

    9   H     x    [  4  -    7 ]/2


   Interatomic separations (in Angstrom):
   --------------------------------------

            O           H   _1      H   _2
            ------      ------      ------
 O     :    0.000000
 H   _1:    0.867092    0.000000
 H   _2:    0.867092    1.513447    0.000000


  Max    interatomic separation is    1.5134 Angstrom (    2.8600 Bohr)
  between atoms    3 and    2, "H   _2" and "H   _1".

  Min HX interatomic separation is    0.8671 Angstrom (    1.6386 Bohr)


  Bond distances (Angstrom):
  --------------------------

                  atom 1     atom 2       distance
                  ------     ------       --------
  bond distance:  H   _1     O            0.867092
  bond distance:  H   _2     O            0.867092


  Bond angles (degrees):
  ----------------------

                  atom 1     atom 2     atom 3         angle
                  ------     ------     ------         -----
  bond angle:     H   _1     O          H   _2       121.551




 Principal moments of inertia (u*A**2) and principal axes
 --------------------------------------------------------

   IA       0.320813          0.000000    1.000000    0.000000
   IB       1.154222          0.000000    0.000000    1.000000
   IC       1.475035          1.000000    0.000000    0.000000


 Rotational constants
 --------------------

 The molecule is planar.

               A                   B                   C

        1575307.1162         437852.3988         342621.6326 MHz
           52.546589           14.605184           11.428627 cm-1


@  Nuclear repulsion energy :   10.114283351242 Hartree


  Symmetry Orbitals
  -----------------

  Number of orbitals in each symmetry:           9    3    5    1


  Symmetry  A1 ( 1)

    1     O        1s         1
    2     O        1s         2
    3     O        1s         3
    4     O        2pz        6
    5     O        2pz        9
    6     O        3d0       12
    7     O        3d2+      14
    8     H        1s        15 +   16
    9     H        1s        17 +   18


  Symmetry  B1 ( 2)

   10     O        2px        4
   11     O        2px        7
   12     O        3d1+      13


  Symmetry  B2 ( 3)

   13     O        2py        5
   14     O        2py        8
   15     O        3d1-      11
   16     H        1s        15 -   16
   17     H        1s        17 -   18


  Symmetry  A2 ( 4)

   18     O        3d2-      10

  Symmetries of electric field:  B1 (2)  B2 (3)  A1 (1)

  Symmetries of magnetic field:  B2 (3)  B1 (2)  A2 (4)


                     .---------------------------------------.
                     | Starting in Integral Section (HERMIT) |
                     `---------------------------------------'



    *************************************************************************
    ****************** Output from HERMIT input processing ******************
    *************************************************************************



     ************************************************************************
     ************************** Output from HERINT **************************
     ************************************************************************


 Threshold for neglecting two-electron integrals:  1.00D-12
 Number of two-electron integrals written:        3461 ( 23.5% )
 Megabytes written:                              0.041

 >>>> Total CPU  time used in HERMIT:   0.01 seconds
 >>>> Total wall time used in HERMIT:   0.01 seconds


                        .----------------------------------.
                        | End of Integral Section (HERMIT) |
                        `----------------------------------'



                   .--------------------------------------------.
                   | Starting in Wave Function Section (SIRIUS) |
                   `--------------------------------------------'


 *** Output from Huckel module :

     Using EWMO model:          F
     Using EHT  model:          T
     Number of Huckel orbitals each symmetry:    4    1    2    0

 Huckel EHT eigenvalues for symmetry :  1
          -20.716237      -1.544122      -0.648795      -0.265766

 Huckel EHT eigenvalues for symmetry :  2
           -0.616200

 Huckel EHT eigenvalues for symmetry :  3
           -0.755793      -0.232987

 **********************************************************************
 *SIRIUS* a direct, restricted step, second order MCSCF program       *
 **********************************************************************

 
     Date and time (Linux)  : Sun Sep  8 20:53:40 2013
     Host name              : lpqlx131.ups-tlse.fr                    

 Title lines from ".mol" input file:
     H2O                                                                     
     Symmetry                                                                

 Print level on unit LUPRI =   2 is   0
 Print level on unit LUW4  =   2 is   5

@    Restricted, closed shell Kohn-Sham DFT calculation.

 Initial molecular orbitals are obtained according to
 ".MOSTART EHT   " input option

     Wave function specification
     ============================
@    For the wave function of type :      >>> KS-DFT <<<
@    Number of closed shell electrons          10
@    Number of electrons in active shells       0
@    Total charge of the molecule               0

@    Spin multiplicity and 2 M_S                1         0
     Total number of symmetries                 4
@    Reference state symmetry                   1
 
     This is a DFT calculation of type: B3LYPGauss
 Weighted mixed functional:
               HF exchange:    0.20000
                     VWN3I:    0.19000
                       LYP:    0.81000
                     Becke:    0.72000
                    Slater:    0.80000

     Orbital specifications
     ======================
     Abelian symmetry species          All |    1    2    3    4
                                       --- |  ---  ---  ---  ---
     Total number of orbitals           18 |    9    3    5    1
     Number of basis functions          18 |    9    3    5    1

      ** Automatic occupation of RKS orbitals **

      -- Initial occupation of symmetries is determined from extended Huckel guess.           
      -- Initial occupation of symmetries is :
@    Occupied SCF orbitals               5 |    3    1    1    0

     Maximum number of Fock   iterations      0
     Maximum number of DIIS   iterations     60
     Maximum number of QC-SCF iterations     60
     Threshold for SCF convergence     1.00D-05
 
     This is a DFT calculation of type: B3LYPGauss
 Weighted mixed functional:
               HF exchange:    0.20000
                     VWN3I:    0.19000
                       LYP:    0.81000
                     Becke:    0.72000
                    Slater:    0.80000


 >>>>> DIIS optimization of Hartree-Fock <<<<<

 C1-DIIS algorithm; max error vectors =   10

 Automatic occupation of symmetries with  10 electrons.

 Iter     Total energy    Error norm  Delta(E)    SCF occupation
 -----------------------------------------------------------------------------
      K-S energy, electrons, error :     -7.517669025541  10.0000003074    3.07D-07
@  1  -76.1501244600       2.45D+00  -7.62D+01     3   1   1   0
      Virial theorem: -V/T =      2.002442
@      MULPOP O      -0.45; H   _1  0.23; H   _2  0.23; 
 -----------------------------------------------------------------------------
      K-S energy, electrons, error :     -7.747583472518  10.0000002397    2.40D-07
@  2  -76.3552733954       7.25D-01  -2.05D-01     3   1   1   0
      Virial theorem: -V/T =      1.987855
@      MULPOP O      -0.91; H   _1  0.45; H   _2  0.45; 
 -----------------------------------------------------------------------------
      K-S energy, electrons, error :     -7.558007739504  10.0000002628    2.63D-07
@  3  -76.3669792264       5.36D-01  -1.17D-02     3   1   1   0
      Virial theorem: -V/T =      2.009493
@      MULPOP O      -0.73; H   _1  0.36; H   _2  0.36; 
 -----------------------------------------------------------------------------
      K-S energy, electrons, error :     -7.656280593771  10.0000002498    2.50D-07
@  4  -76.3789686176       8.27D-02  -1.20D-02     3   1   1   0
      Virial theorem: -V/T =      1.998215
@      MULPOP O      -0.83; H   _1  0.42; H   _2  0.42; 
 -----------------------------------------------------------------------------
      K-S energy, electrons, error :     -7.644410908986  10.0000002509    2.51D-07
@  5  -76.3792712990       3.68D-03  -3.03D-04     3   1   1   0
      Virial theorem: -V/T =      1.999560
@      MULPOP O      -0.82; H   _1  0.41; H   _2  0.41; 
 -----------------------------------------------------------------------------
      K-S energy, electrons, error :     -7.644927724493  10.0000002508    2.51D-07
@  6  -76.3792719395       1.71D-04  -6.41D-07     3   1   1   0
      Virial theorem: -V/T =      1.999495
@      MULPOP O      -0.82; H   _1  0.41; H   _2  0.41; 
 -----------------------------------------------------------------------------
      K-S energy, electrons, error :     -7.644951495811  10.0000002508    2.51D-07
@  7  -76.3792719412       5.76D-06  -1.68D-09     3   1   1   0

@ *** DIIS converged in   7 iterations !
@     Converged SCF energy, gradient:    -76.379271941211    5.76D-06
    - total time used in SIRFCK :              0.00 seconds


 *** SCF orbital energy analysis ***

 Only the five lowest virtual orbital energies printed in each symmetry.

 Number of electrons :   10
 Orbital occupations :    3    1    1    0

 Sym       Kohn-Sham orbital energies

  1    -19.10270977    -1.02916849    -0.34496513     0.09534450     0.87243388
         0.91013008     1.39523348     1.76260920

  2     -0.29442577     0.89377791     1.78528471

  3     -0.59044233     0.18190988     0.92600555     1.11420714     2.69476007


  4      1.70533615

    E(LUMO) :     0.09534450 au (symmetry 1)
  - E(HOMO) :    -0.29442577 au (symmetry 2)
  ------------------------------------------
    gap     :     0.38977027 au

 >>> Writing SIRIFC interface file <<<

 >>>> CPU and wall time for SCF :       1.443       1.459


                       .-----------------------------------.
                       | >>> Final results from SIRIUS <<< |
                       `-----------------------------------'


@    Spin multiplicity:           1
@    Spatial symmetry:            1
@    Total charge of molecule:    0

@    Final DFT energy:            -76.379271941211                 
@    Nuclear repulsion:            10.114283351242
@    Electronic energy:           -86.493555292453

@    Final gradient norm:           0.000005759261

 
     Date and time (Linux)  : Sun Sep  8 20:53:41 2013
     Host name              : lpqlx131.ups-tlse.fr                    

 (Only coefficients >0.0100 are printed.)

 Molecular orbitals for symmetry species  1
 ------------------------------------------

    Orbital         1        2        3        4        5
   1 O   :1s     0.9950  -0.2132   0.0708   0.0980  -0.0691
   2 O   :1s     0.0284   0.4664  -0.1572  -0.1626   0.2062
   3 O   :1s    -0.0137   0.4372  -0.3082  -1.3192   0.3981
   4 O   :2pz    0.0016   0.1222   0.5857  -0.1996  -0.1836
   5 O   :2pz   -0.0019   0.0475   0.4230  -0.3659   0.7613
   6 O   :3d0   -0.0000   0.0004   0.0367  -0.0088   0.0956
   7 O   :3d2+  -0.0001  -0.0206   0.0037   0.0102   0.2087
   8 H   :1s    -0.0004   0.1570   0.1181   0.0848  -0.8410
   9 H   :1s     0.0035  -0.0024   0.0649   1.0426   0.2292

 Molecular orbitals for symmetry species  2
 ------------------------------------------

    Orbital         1        2        3
   1 O   :2px    0.6413  -0.9616  -0.0112
   2 O   :2px    0.5096   1.0371  -0.0291
   3 O   :3d1+   0.0343   0.0112   0.9993

 Molecular orbitals for symmetry species  3
 ------------------------------------------

    Orbital         1        2        3
   1 O   :2py    0.5282  -0.3660   0.1111
   2 O   :2py    0.2290  -0.8424   1.0324
   3 O   :3d1-   0.0343  -0.0250  -0.2485
   4 H   :1s     0.2563   0.0524  -0.8630
   5 H   :1s     0.1069   1.4806   0.1223

 Molecular orbitals for symmetry species  4
 ------------------------------------------

    Orbital         1
   1 O   :3d2-   1.0000



 >>>> Total CPU  time used in SIRIUS :      1.45 seconds
 >>>> Total wall time used in SIRIUS :      1.46 seconds

 
     Date and time (Linux)  : Sun Sep  8 20:53:41 2013
     Host name              : lpqlx131.ups-tlse.fr                    


                     .---------------------------------------.
                     | End of Wave Function Section (SIRIUS) |
                     `---------------------------------------'


     Order of analytical energy-derivatives available:   1
     This will be the default.

 Center of mass dipole origin  :    0.000000    0.000000    0.000000

 Center of mass gauge origin   :    0.000000    0.000000    0.000000


                 .------------------------------------------------.
                 | Starting in Static Property Section (ABACUS) - |
                 `------------------------------------------------'


 
     Date and time (Linux)  : Sun Sep  8 20:53:41 2013
     Host name              : lpqlx131.ups-tlse.fr                    


            +---------------------------------------------------------+
            ! Gradient elements calculated directly and from symmetry !
            +---------------------------------------------------------+



        Coordinate    Direct calc.     Tra.-rot. sym.   Difference
        ----------------------------------------------------------

        O   z         0.1639597407     0.1639630193    -0.0000032786



 >>> WARNING from TRAROT:

 Largest deviation from tra-rot symmetry is in gradient element  1:  3.28E-06


   ***************************************************************************
   ************************ FINAL RESULTS from ABACUS ************************
   ***************************************************************************


 
     Date and time (Linux)  : Sun Sep  8 20:53:42 2013
     Host name              : lpqlx131.ups-tlse.fr                    

 WARNING: warnings have been issued, please check the output above !


                             Molecular geometry (au)
                             -----------------------

 O          0.0000000000            0.0000000000           -0.0895318942
 H   _1     0.0000000000            1.4300000000            0.7104681058
 H   _2     0.0000000000           -1.4300000000            0.7104681058





                        Molecular wave function and energy
                        ----------------------------------

     Spin multiplicity  1     State number       1     Total charge       0

     Total energy        -76.3792719412 au (Hartrees)
                         -2078.38571447 eV
                           -200533.7476 kJ/mol


                             Relativistic corrections
                             ------------------------

     Darwin correction:                          0.1944820782 au
     Mass-velocity correction:                  -0.2457218718 au

     Total relativistic correction:             -0.0512397935 au (0.0671%)
     Non-relativistic + relativistic energy:   -76.4305117347 au




                             Molecular gradient (au)
                             -----------------------

                         O   z      0.1639597407
                         H   y     -0.2084171757
                         H   z     -0.1639630193



 O          0.0000000000            0.0000000000            0.1639597407
 H   _1     0.0000000000           -0.1042085879           -0.0819815096
 H   _2     0.0000000000            0.1042085879           -0.0819815096





                                  Dipole moment
                                  -------------

                 au               Debye          C m (/(10**-30)
              0.677545           1.722148           5.744469


                             Dipole moment components
                             ------------------------

                 au               Debye          C m (/(10**-30)

      z      0.67754534         1.72214836         5.74446858


   Units:   1 a.u. =   2.54175 Debye 
            1 a.u. =   8.47835 (10**-30) C m (SI)




   Interatomic separations (in Angstrom):
   --------------------------------------

            O           H   _1      H   _2
            ------      ------      ------
 O     :    0.000000
 H   _1:    0.867092    0.000000
 H   _2:    0.867092    1.513447    0.000000


  Max    interatomic separation is    1.5134 Angstrom (    2.8600 Bohr)
  between atoms    3 and    2, "H   _2" and "H   _1".

  Min HX interatomic separation is    0.8671 Angstrom (    1.6386 Bohr)


  Bond distances (Angstrom):
  --------------------------

                  atom 1     atom 2       distance
                  ------     ------       --------
  bond distance:  H   _1     O            0.867092
  bond distance:  H   _2     O            0.867092


  Bond angles (degrees):
  ----------------------

                  atom 1     atom 2     atom 3         angle
                  ------     ------     ------         -----
  bond angle:     H   _1     O          H   _2       121.551




 CPU time statistics for ABACUS
 ------------------------------




 >>>> Total CPU  time used in ABACUS:   0.39 seconds
 >>>> Total wall time used in ABACUS:   0.39 seconds


                   .-------------------------------------------.
                   | End of Static Property Section (ABACUS) - |
                   `-------------------------------------------'



           :::::::::::::::::::::::::::::::::::::::::::::::::::::::::::
           ::::::::::::::: Optimization Control Center :::::::::::::::
           :::::::::::::::::::::::::::::::::::::::::::::::::::::::::::



                                Next geometry (au)
                                ------------------

 O          0.0000000000            0.0000000000           -0.1650714254
 H   _1     0.0000000000            1.5351690044            0.7482378714
 H   _2     0.0000000000           -1.5351690044            0.7482378714





                             Optimization information
                             ------------------------

 Iteration number               :       0
 End of optimization            :       F 
 Energy at this geometry is     :     -76.379272
 Norm of gradient               :       0.249086
 Norm of step                   :       0.301476
 Updated trust radius           :       0.500000
 Total Hessian index            :       0




 **************************************************************************************
 ****************** Output of molecule and basis set info suppressed ******************
 **************************************************************************************



                     .---------------------------------------.
                     | Starting in Integral Section (HERMIT) |
                     `---------------------------------------'



    *************************************************************************
    ****************** Output from HERMIT input processing ******************
    *************************************************************************


 Threshold for neglecting two-electron integrals:  1.00D-12
 Number of two-electron integrals written:        3461 ( 23.5% )
 Megabytes written:                              0.041

 >>>> Total CPU  time used in HERMIT:   0.01 seconds
 >>>> Total wall time used in HERMIT:   0.01 seconds


                        .----------------------------------.
                        | End of Integral Section (HERMIT) |
                        `----------------------------------'



                   .--------------------------------------------.
                   | Starting in Wave Function Section (SIRIUS) |
                   `--------------------------------------------'


 **********************************************************************
 *SIRIUS* a direct, restricted step, second order MCSCF program       *
 **********************************************************************

 (Wave function specification suppressed here, see output above for initial geometry.)


 >>>>> DIIS optimization of Hartree-Fock <<<<<

 C1-DIIS algorithm; max error vectors =   10

 Iter      Total energy        Error norm    Delta(E)  DIIS dim.
 -----------------------------------------------------------------------------
      K-S energy, electrons, error :     -7.612112993164  10.0000008281    8.28D-07
@  1    -76.3967102895        2.54798D-01   -1.74D-02    1
      Virial theorem: -V/T =      2.001267
@      MULPOP O      -0.82; H   _1  0.41; H   _2  0.41; 
 -----------------------------------------------------------------------------
      K-S energy, electrons, error :     -7.541318607136  10.0000008269    8.27D-07
@  2    -76.3989435608        2.36080D-01   -2.23D-03    2
      Virial theorem: -V/T =      2.008771
@      MULPOP O      -0.78; H   _1  0.39; H   _2  0.39; 
 -----------------------------------------------------------------------------
      K-S energy, electrons, error :     -7.588925042197  10.0000008299    8.30D-07
@  3    -76.4012432339        5.62200D-02   -2.30D-03    3
      Virial theorem: -V/T =      2.003327
@      MULPOP O      -0.83; H   _1  0.42; H   _2  0.42; 
 -----------------------------------------------------------------------------
      K-S energy, electrons, error :     -7.579746836808  10.0000008297    8.30D-07
@  4    -76.4013884622        4.44643D-03   -1.45D-04    4
      Virial theorem: -V/T =      2.004351
@      MULPOP O      -0.82; H   _1  0.41; H   _2  0.41; 
 -----------------------------------------------------------------------------
      K-S energy, electrons, error :     -7.580010555152  10.0000008297    8.30D-07
@  5    -76.4013894039        3.33399D-04   -9.42D-07    5
      Virial theorem: -V/T =      2.004318
@      MULPOP O      -0.82; H   _1  0.41; H   _2  0.41; 
 -----------------------------------------------------------------------------
      K-S energy, electrons, error :     -7.580039817093  10.0000008297    8.30D-07
@  6    -76.4013894111        2.57732D-05   -7.18D-09    6
      Virial theorem: -V/T =      2.004314
@      MULPOP O      -0.82; H   _1  0.41; H   _2  0.41; 
 -----------------------------------------------------------------------------
      K-S energy, electrons, error :     -7.580043269188  10.0000008297    8.30D-07
@  7    -76.4013894111        1.52938D-06   -5.25D-11    7

@ *** DIIS converged in   7 iterations !
@     Converged SCF energy, gradient:    -76.401389411145    1.53D-06
    - total time used in SIRFCK :              0.00 seconds


 *** SCF orbital energy analysis ***

 Only the five lowest virtual orbital energies printed in each symmetry.

 Number of electrons :   10
 Orbital occupations :    3    1    1    0

 Sym       Kohn-Sham orbital energies

  1    -19.11694666    -0.99447320    -0.34302582     0.07205708     0.81721108
         0.91173794     1.37164081     1.76944448

  2     -0.28703587     0.89510377     1.79438198

  3     -0.54888830     0.16008929     0.85391720     1.08875277     2.58443295


  4      1.73007682

    E(LUMO) :     0.07205708 au (symmetry 1)
  - E(HOMO) :    -0.28703587 au (symmetry 2)
  ------------------------------------------
    gap     :     0.35909295 au

 >>> Writing SIRIFC interface file <<<

 >>>> CPU and wall time for SCF :       1.442       1.456


                       .-----------------------------------.
                       | >>> Final results from SIRIUS <<< |
                       `-----------------------------------'


@    Spin multiplicity:           1
@    Spatial symmetry:            1
@    Total charge of molecule:    0

@    Final DFT energy:            -76.401389411145                 
@    Nuclear repulsion:             9.282745012283
@    Electronic energy:           -85.684134423429

@    Final gradient norm:           0.000001529377

 
     Date and time (Linux)  : Sun Sep  8 20:53:43 2013
     Host name              : lpqlx131.ups-tlse.fr                    



 >>>> Total CPU  time used in SIRIUS :      1.44 seconds
 >>>> Total wall time used in SIRIUS :      1.46 seconds

 
     Date and time (Linux)  : Sun Sep  8 20:53:43 2013
     Host name              : lpqlx131.ups-tlse.fr                    


                     .---------------------------------------.
                     | End of Wave Function Section (SIRIUS) |
                     `---------------------------------------'

 Trust radius increased due to good ratio.
 Updated trust radius   0.50000

     Order of analytical energy-derivatives available:   1
     This will be the default.

 Center of mass dipole origin  :    0.000000    0.000000   -0.062859

 Center of mass gauge origin   :    0.000000    0.000000   -0.062859


                 .------------------------------------------------.
                 | Starting in Static Property Section (ABACUS) - |
                 `------------------------------------------------'


 
     Date and time (Linux)  : Sun Sep  8 20:53:43 2013
     Host name              : lpqlx131.ups-tlse.fr                    


            +---------------------------------------------------------+
            ! Gradient elements calculated directly and from symmetry !
            +---------------------------------------------------------+



        Coordinate    Direct calc.     Tra.-rot. sym.   Difference
        ----------------------------------------------------------

        O    z        0.0520046172     0.0520116848    -0.0000070676



 >>> WARNING from TRAROT:

 Largest deviation from tra-rot symmetry is in gradient element  1:  7.07E-06


   ***************************************************************************
   ************************ FINAL RESULTS from ABACUS ************************
   ***************************************************************************


 
     Date and time (Linux)  : Sun Sep  8 20:53:44 2013
     Host name              : lpqlx131.ups-tlse.fr                    

 WARNING: warnings have been issued, please check the output above !


 CPU time statistics for ABACUS
 ------------------------------

 REST       00:00:01     293 %



 >>>> Total CPU  time used in ABACUS:   0.40 seconds
 >>>> Total wall time used in ABACUS:   0.71 seconds


                   .-------------------------------------------.
                   | End of Static Property Section (ABACUS) - |
                   `-------------------------------------------'



           :::::::::::::::::::::::::::::::::::::::::::::::::::::::::::
           ::::::::::::::: Optimization Control Center :::::::::::::::
           :::::::::::::::::::::::::::::::::::::::::::::::::::::::::::



                                Next geometry (au)
                                ------------------

 O          0.0000000000            0.0000000000           -0.2178759979
 H   _1     0.0000000000            1.5273933635            0.7746401577
 H   _2     0.0000000000           -1.5273933635            0.7746401577





                             Optimization information
                             ------------------------

 Iteration number               :       1
 End of optimization            :       F 
 Energy at this geometry is     :     -76.401389
 Energy change from last geom.  :      -0.022117
 Norm of gradient               :       0.063914
 Norm of step                   :       0.095056
 Updated trust radius           :       0.500000
 Total Hessian index            :       0




 **************************************************************************************
 ****************** Output of molecule and basis set info suppressed ******************
 **************************************************************************************



                     .---------------------------------------.
                     | Starting in Integral Section (HERMIT) |
                     `---------------------------------------'



    *************************************************************************
    ****************** Output from HERMIT input processing ******************
    *************************************************************************


 Threshold for neglecting two-electron integrals:  1.00D-12
 Number of two-electron integrals written:        3461 ( 23.5% )
 Megabytes written:                              0.041

 >>>> Total CPU  time used in HERMIT:   0.01 seconds
 >>>> Total wall time used in HERMIT:   0.02 seconds


                        .----------------------------------.
                        | End of Integral Section (HERMIT) |
                        `----------------------------------'



                   .--------------------------------------------.
                   | Starting in Wave Function Section (SIRIUS) |
                   `--------------------------------------------'


 **********************************************************************
 *SIRIUS* a direct, restricted step, second order MCSCF program       *
 **********************************************************************

 (Wave function specification suppressed here, see output above for initial geometry.)


 >>>>> DIIS optimization of Hartree-Fock <<<<<

 C1-DIIS algorithm; max error vectors =   10

 Iter      Total energy        Error norm    Delta(E)  DIIS dim.
 -----------------------------------------------------------------------------
      K-S energy, electrons, error :     -7.572424323668  10.0000010541    1.05D-06
@  1    -76.4039506066        7.58101D-02   -2.56D-03    1
      Virial theorem: -V/T =      2.004729
@      MULPOP O      -0.82; H   _1  0.41; H   _2  0.41; 
 -----------------------------------------------------------------------------
      K-S energy, electrons, error :     -7.556915129134  10.0000010553    1.06D-06
@  2    -76.4043500993        5.60370D-02   -3.99D-04    2
      Virial theorem: -V/T =      2.006221
@      MULPOP O      -0.80; H   _1  0.40; H   _2  0.40; 
 -----------------------------------------------------------------------------
      K-S energy, electrons, error :     -7.570134194310  10.0000010556    1.06D-06
@  3    -76.4044590635        2.54205D-02   -1.09D-04    3
      Virial theorem: -V/T =      2.004707
@      MULPOP O      -0.82; H   _1  0.41; H   _2  0.41; 
 -----------------------------------------------------------------------------
      K-S energy, electrons, error :     -7.565942311530  10.0000010556    1.06D-06
@  4    -76.4044889479        3.16378D-04   -2.99D-05    4
      Virial theorem: -V/T =      2.005174
@      MULPOP O      -0.81; H   _1  0.41; H   _2  0.41; 
 -----------------------------------------------------------------------------
      K-S energy, electrons, error :     -7.565975858590  10.0000010556    1.06D-06
@  5    -76.4044889564        3.39351D-05   -8.55D-09    5
      Virial theorem: -V/T =      2.005169
@      MULPOP O      -0.81; H   _1  0.41; H   _2  0.41; 
 -----------------------------------------------------------------------------
      K-S energy, electrons, error :     -7.565979732873  10.0000010556    1.06D-06
@  6    -76.4044889565        5.33353D-06   -8.32D-11    6

@ *** DIIS converged in   6 iterations !
@     Converged SCF energy, gradient:    -76.404488956492    5.33D-06
    - total time used in SIRFCK :              0.00 seconds


 *** SCF orbital energy analysis ***

 Only the five lowest virtual orbital energies printed in each symmetry.

 Number of electrons :   10
 Orbital occupations :    3    1    1    0

 Sym       Kohn-Sham orbital energies

  1    -19.12288591    -0.99019441    -0.35045184     0.06681044     0.82381307
         0.91683331     1.37064090     1.76037122

  2     -0.28703820     0.89425003     1.79198666

  3     -0.53455912     0.15314189     0.81929810     1.07940179     2.57604499


  4      1.73824220

    E(LUMO) :     0.06681044 au (symmetry 1)
  - E(HOMO) :    -0.28703820 au (symmetry 2)
  ------------------------------------------
    gap     :     0.35384863 au

 >>> Writing SIRIFC interface file <<<

 >>>> CPU and wall time for SCF :       1.238       1.316


                       .-----------------------------------.
                       | >>> Final results from SIRIUS <<< |
                       `-----------------------------------'


@    Spin multiplicity:           1
@    Spatial symmetry:            1
@    Total charge of molecule:    0

@    Final DFT energy:            -76.404488956492                 
@    Nuclear repulsion:             9.111117119230
@    Electronic energy:           -85.515606075722

@    Final gradient norm:           0.000005333534

 
     Date and time (Linux)  : Sun Sep  8 20:53:45 2013
     Host name              : lpqlx131.ups-tlse.fr                    



 >>>> Total CPU  time used in SIRIUS :      1.24 seconds
 >>>> Total wall time used in SIRIUS :      1.32 seconds

 
     Date and time (Linux)  : Sun Sep  8 20:53:45 2013
     Host name              : lpqlx131.ups-tlse.fr                    


                     .---------------------------------------.
                     | End of Wave Function Section (SIRIUS) |
                     `---------------------------------------'

 Trust radius increased due to good ratio.
 Updated trust radius   0.50000

     Order of analytical energy-derivatives available:   1
     This will be the default.

 Center of mass dipole origin  :    0.000000    0.000000   -0.106799

 Center of mass gauge origin   :    0.000000    0.000000   -0.106799


                 .------------------------------------------------.
                 | Starting in Static Property Section (ABACUS) - |
                 `------------------------------------------------'


 
     Date and time (Linux)  : Sun Sep  8 20:53:45 2013
     Host name              : lpqlx131.ups-tlse.fr                    


            +---------------------------------------------------------+
            ! Gradient elements calculated directly and from symmetry !
            +---------------------------------------------------------+



        Coordinate    Direct calc.     Tra.-rot. sym.   Difference
        ----------------------------------------------------------

        O    z        0.0249058098     0.0249177048    -0.0000118950



 >>> WARNING from TRAROT:

 Largest deviation from tra-rot symmetry is in gradient element  1:  1.19E-05


   ***************************************************************************
   ************************ FINAL RESULTS from ABACUS ************************
   ***************************************************************************


 
     Date and time (Linux)  : Sun Sep  8 20:53:46 2013
     Host name              : lpqlx131.ups-tlse.fr                    

 WARNING: warnings have been issued, please check the output above !


 CPU time statistics for ABACUS
 ------------------------------




 >>>> Total CPU  time used in ABACUS:   0.40 seconds
 >>>> Total wall time used in ABACUS:   0.40 seconds


                   .-------------------------------------------.
                   | End of Static Property Section (ABACUS) - |
                   `-------------------------------------------'



           :::::::::::::::::::::::::::::::::::::::::::::::::::::::::::
           ::::::::::::::: Optimization Control Center :::::::::::::::
           :::::::::::::::::::::::::::::::::::::::::::::::::::::::::::



                                Next geometry (au)
                                ------------------

 O          0.0000000000            0.0000000000           -0.2948646154
 H   _1     0.0000000000            1.4871650902            0.8131344664
 H   _2     0.0000000000           -1.4871650902            0.8131344664





                             Optimization information
                             ------------------------

 Iteration number               :       2
 End of optimization            :       F 
 Energy at this geometry is     :     -76.404489
 Energy change from last geom.  :      -0.003100
 Norm of gradient               :       0.033002
 Norm of step                   :       0.158678
 Updated trust radius           :       0.500000
 Total Hessian index            :       0




 **************************************************************************************
 ****************** Output of molecule and basis set info suppressed ******************
 **************************************************************************************



                     .---------------------------------------.
                     | Starting in Integral Section (HERMIT) |
                     `---------------------------------------'



    *************************************************************************
    ****************** Output from HERMIT input processing ******************
    *************************************************************************


 Threshold for neglecting two-electron integrals:  1.00D-12
 Number of two-electron integrals written:        3461 ( 23.5% )
 Megabytes written:                              0.041

 >>>> Total CPU  time used in HERMIT:   0.01 seconds
 >>>> Total wall time used in HERMIT:   0.01 seconds


                        .----------------------------------.
                        | End of Integral Section (HERMIT) |
                        `----------------------------------'



                   .--------------------------------------------.
                   | Starting in Wave Function Section (SIRIUS) |
                   `--------------------------------------------'


 **********************************************************************
 *SIRIUS* a direct, restricted step, second order MCSCF program       *
 **********************************************************************

 (Wave function specification suppressed here, see output above for initial geometry.)


 >>>>> DIIS optimization of Hartree-Fock <<<<<

 C1-DIIS algorithm; max error vectors =   10

 Iter      Total energy        Error norm    Delta(E)  DIIS dim.
 -----------------------------------------------------------------------------
      K-S energy, electrons, error :     -7.559028641435  10.0000003335    3.34D-07
@  1    -76.4056003779        9.66574D-02   -1.11D-03    1
      Virial theorem: -V/T =      2.005528
@      MULPOP O      -0.81; H   _1  0.40; H   _2  0.40; 
 -----------------------------------------------------------------------------
      K-S energy, electrons, error :     -7.543675291057  10.0000003355    3.35D-07
@  2    -76.4063092004        5.93695D-02   -7.09D-04    2
      Virial theorem: -V/T =      2.006924
@      MULPOP O      -0.78; H   _1  0.39; H   _2  0.39; 
 -----------------------------------------------------------------------------
      K-S energy, electrons, error :     -7.559417765890  10.0000003342    3.34D-07
@  3    -76.4063980180        3.90117D-02   -8.88D-05    3
      Virial theorem: -V/T =      2.005128
@      MULPOP O      -0.80; H   _1  0.40; H   _2  0.40; 
 -----------------------------------------------------------------------------
      K-S energy, electrons, error :     -7.552952813414  10.0000003347    3.35D-07
@  4    -76.4064677770        9.96688D-04   -6.98D-05    4
      Virial theorem: -V/T =      2.005852
@      MULPOP O      -0.80; H   _1  0.40; H   _2  0.40; 
 -----------------------------------------------------------------------------
      K-S energy, electrons, error :     -7.553042334277  10.0000003347    3.35D-07
@  5    -76.4064678291        1.34497D-04   -5.21D-08    5
      Virial theorem: -V/T =      2.005840
@      MULPOP O      -0.80; H   _1  0.40; H   _2  0.40; 
 -----------------------------------------------------------------------------
      K-S energy, electrons, error :     -7.553043081311  10.0000003347    3.35D-07
@  6    -76.4064678303        1.31373D-05   -1.19D-09    6
      Virial theorem: -V/T =      2.005840
@      MULPOP O      -0.80; H   _1  0.40; H   _2  0.40; 
 -----------------------------------------------------------------------------
      K-S energy, electrons, error :     -7.553044994977  10.0000003347    3.35D-07
@  7    -76.4064678303        4.12644D-07   -1.16D-11    7

@ *** DIIS converged in   7 iterations !
@     Converged SCF energy, gradient:    -76.406467830329    4.13D-07
    - total time used in SIRFCK :              0.00 seconds


 *** SCF orbital energy analysis ***

 Only the five lowest virtual orbital energies printed in each symmetry.

 Number of electrons :   10
 Orbital occupations :    3    1    1    0

 Sym       Kohn-Sham orbital energies

  1    -19.13033339    -0.98899882    -0.36400068     0.06183455     0.83902113
         0.92902219     1.37693974     1.74216203

  2     -0.28832385     0.89254397     1.78606787

  3     -0.51653420     0.14509312     0.77864337     1.06714702     2.55872206


  4      1.74769559

    E(LUMO) :     0.06183455 au (symmetry 1)
  - E(HOMO) :    -0.28832385 au (symmetry 2)
  ------------------------------------------
    gap     :     0.35015840 au

 >>> Writing SIRIFC interface file <<<

 >>>> CPU and wall time for SCF :       1.438       1.450


                       .-----------------------------------.
                       | >>> Final results from SIRIUS <<< |
                       `-----------------------------------'


@    Spin multiplicity:           1
@    Spatial symmetry:            1
@    Total charge of molecule:    0

@    Final DFT energy:            -76.406467830329                 
@    Nuclear repulsion:             8.963682293456
@    Electronic energy:           -85.370150123785

@    Final gradient norm:           0.000000412644

 
     Date and time (Linux)  : Sun Sep  8 20:53:47 2013
     Host name              : lpqlx131.ups-tlse.fr                    



 >>>> Total CPU  time used in SIRIUS :      1.44 seconds
 >>>> Total wall time used in SIRIUS :      1.45 seconds

 
     Date and time (Linux)  : Sun Sep  8 20:53:47 2013
     Host name              : lpqlx131.ups-tlse.fr                    


                     .---------------------------------------.
                     | End of Wave Function Section (SIRIUS) |
                     `---------------------------------------'

 Trust radius increased due to good ratio.
 Updated trust radius   0.50000

     Order of analytical energy-derivatives available:   1
     This will be the default.

 Center of mass dipole origin  :    0.000000    0.000000   -0.170863

 Center of mass gauge origin   :    0.000000    0.000000   -0.170863


                 .------------------------------------------------.
                 | Starting in Static Property Section (ABACUS) - |
                 `------------------------------------------------'


 
     Date and time (Linux)  : Sun Sep  8 20:53:47 2013
     Host name              : lpqlx131.ups-tlse.fr                    


            +---------------------------------------------------------+
            ! Gradient elements calculated directly and from symmetry !
            +---------------------------------------------------------+



        Coordinate    Direct calc.     Tra.-rot. sym.   Difference
        ----------------------------------------------------------

        O    z       -0.0071677968    -0.0071563846    -0.0000114122



 >>> WARNING from TRAROT:

 Largest deviation from tra-rot symmetry is in gradient element  1:  1.14E-05


   ***************************************************************************
   ************************ FINAL RESULTS from ABACUS ************************
   ***************************************************************************


 
     Date and time (Linux)  : Sun Sep  8 20:53:48 2013
     Host name              : lpqlx131.ups-tlse.fr                    

 WARNING: warnings have been issued, please check the output above !


 CPU time statistics for ABACUS
 ------------------------------

 REST       00:00:02     402 %



 >>>> Total CPU  time used in ABACUS:   0.40 seconds
 >>>> Total wall time used in ABACUS:   0.40 seconds


                   .-------------------------------------------.
                   | End of Static Property Section (ABACUS) - |
                   `-------------------------------------------'



           :::::::::::::::::::::::::::::::::::::::::::::::::::::::::::
           ::::::::::::::: Optimization Control Center :::::::::::::::
           :::::::::::::::::::::::::::::::::::::::::::::::::::::::::::



                                Next geometry (au)
                                ------------------

 O          0.0000000000            0.0000000000           -0.3055496042
 H   _1     0.0000000000            1.4653477874            0.8184769608
 H   _2     0.0000000000           -1.4653477874            0.8184769608





                             Optimization information
                             ------------------------

 Iteration number               :       3
 End of optimization            :       F 
 Energy at this geometry is     :     -76.406468
 Energy change from last geom.  :      -0.001979
 Norm of gradient               :       0.021173
 Norm of step                   :       0.052998
 Updated trust radius           :       0.500000
 Total Hessian index            :       0




 **************************************************************************************
 ****************** Output of molecule and basis set info suppressed ******************
 **************************************************************************************



                     .---------------------------------------.
                     | Starting in Integral Section (HERMIT) |
                     `---------------------------------------'



    *************************************************************************
    ****************** Output from HERMIT input processing ******************
    *************************************************************************


 Threshold for neglecting two-electron integrals:  1.00D-12
 Number of two-electron integrals written:        3461 ( 23.5% )
 Megabytes written:                              0.041

 >>>> Total CPU  time used in HERMIT:   0.01 seconds
 >>>> Total wall time used in HERMIT:   0.01 seconds


                        .----------------------------------.
                        | End of Integral Section (HERMIT) |
                        `----------------------------------'



                   .--------------------------------------------.
                   | Starting in Wave Function Section (SIRIUS) |
                   `--------------------------------------------'


 **********************************************************************
 *SIRIUS* a direct, restricted step, second order MCSCF program       *
 **********************************************************************

 (Wave function specification suppressed here, see output above for initial geometry.)


 >>>>> DIIS optimization of Hartree-Fock <<<<<

 C1-DIIS algorithm; max error vectors =   10

 Iter      Total energy        Error norm    Delta(E)  DIIS dim.
 -----------------------------------------------------------------------------
      K-S energy, electrons, error :     -7.554540709187  10.0000005072    5.07D-07
@  1    -76.4068087005        2.19786D-02   -3.41D-04    1
      Virial theorem: -V/T =      2.005796
@      MULPOP O      -0.79; H   _1  0.40; H   _2  0.40; 
 -----------------------------------------------------------------------------
      K-S energy, electrons, error :     -7.557410481609  10.0000005068    5.07D-07
@  2    -76.4068333229        8.96488D-03   -2.46D-05    2
      Virial theorem: -V/T =      2.005461
@      MULPOP O      -0.80; H   _1  0.40; H   _2  0.40; 
 -----------------------------------------------------------------------------
      K-S energy, electrons, error :     -7.554854632249  10.0000005070    5.07D-07
@  3    -76.4068348082        7.00106D-03   -1.49D-06    3
      Virial theorem: -V/T =      2.005751
@      MULPOP O      -0.79; H   _1  0.40; H   _2  0.40; 
 -----------------------------------------------------------------------------
      K-S energy, electrons, error :     -7.556071124849  10.0000005069    5.07D-07
@  4    -76.4068369823        7.29632D-04   -2.17D-06    4
      Virial theorem: -V/T =      2.005613
@      MULPOP O      -0.79; H   _1  0.40; H   _2  0.40; 
 -----------------------------------------------------------------------------
      K-S energy, electrons, error :     -7.555993567078  10.0000005069    5.07D-07
@  5    -76.4068370072        7.34397D-06   -2.48D-08    5

@ *** DIIS converged in   5 iterations !
@     Converged SCF energy, gradient:    -76.406837007168    7.34D-06
    - total time used in SIRFCK :              0.00 seconds


 *** SCF orbital energy analysis ***

 Only the five lowest virtual orbital energies printed in each symmetry.

 Number of electrons :   10
 Orbital occupations :    3    1    1    0

 Sym       Kohn-Sham orbital energies

  1    -19.13054126    -0.99206529    -0.36755135     0.06293390     0.84878544
         0.93202294     1.38037264     1.73647664

  2     -0.28917686     0.89210380     1.78356592

  3     -0.51547475     0.14608860     0.77432479     1.06619664     2.56485161


  4      1.74794531

    E(LUMO) :     0.06293390 au (symmetry 1)
  - E(HOMO) :    -0.28917686 au (symmetry 2)
  ------------------------------------------
    gap     :     0.35211076 au

 >>> Writing SIRIFC interface file <<<

 >>>> CPU and wall time for SCF :       1.030       1.040


                       .-----------------------------------.
                       | >>> Final results from SIRIUS <<< |
                       `-----------------------------------'


@    Spin multiplicity:           1
@    Spatial symmetry:            1
@    Total charge of molecule:    0

@    Final DFT energy:            -76.406837007168                 
@    Nuclear repulsion:             9.004838105163
@    Electronic energy:           -85.411675112331

@    Final gradient norm:           0.000007343968

 
     Date and time (Linux)  : Sun Sep  8 20:53:49 2013
     Host name              : lpqlx131.ups-tlse.fr                    



 >>>> Total CPU  time used in SIRIUS :      1.03 seconds
 >>>> Total wall time used in SIRIUS :      1.04 seconds

 
     Date and time (Linux)  : Sun Sep  8 20:53:49 2013
     Host name              : lpqlx131.ups-tlse.fr                    


                     .---------------------------------------.
                     | End of Wave Function Section (SIRIUS) |
                     `---------------------------------------'

 Trust radius increased due to good ratio.
 Updated trust radius   0.50000

     Order of analytical energy-derivatives available:   1
     This will be the default.

 Center of mass dipole origin  :    0.000000    0.000000   -0.179754

 Center of mass gauge origin   :    0.000000    0.000000   -0.179754


                 .------------------------------------------------.
                 | Starting in Static Property Section (ABACUS) - |
                 `------------------------------------------------'


 
     Date and time (Linux)  : Sun Sep  8 20:53:49 2013
     Host name              : lpqlx131.ups-tlse.fr                    


            +---------------------------------------------------------+
            ! Gradient elements calculated directly and from symmetry !
            +---------------------------------------------------------+



        Coordinate    Direct calc.     Tra.-rot. sym.   Difference
        ----------------------------------------------------------

        O    z       -0.0065957083    -0.0065817386    -0.0000139697



 >>> WARNING from TRAROT:

 Largest deviation from tra-rot symmetry is in gradient element  1:  1.40E-05


   ***************************************************************************
   ************************ FINAL RESULTS from ABACUS ************************
   ***************************************************************************


 
     Date and time (Linux)  : Sun Sep  8 20:53:49 2013
     Host name              : lpqlx131.ups-tlse.fr                    

 WARNING: warnings have been issued, please check the output above !


 CPU time statistics for ABACUS
 ------------------------------




 >>>> Total CPU  time used in ABACUS:   0.40 seconds
 >>>> Total wall time used in ABACUS:   0.40 seconds


                   .-------------------------------------------.
                   | End of Static Property Section (ABACUS) - |
                   `-------------------------------------------'



           :::::::::::::::::::::::::::::::::::::::::::::::::::::::::::
           ::::::::::::::: Optimization Control Center :::::::::::::::
           :::::::::::::::::::::::::::::::::::::::::::::::::::::::::::



                                Next geometry (au)
                                ------------------

 O          0.0000000000            0.0000000000           -0.3090876654
 H   _1     0.0000000000            1.4402872490            0.8202459914
 H   _2     0.0000000000           -1.4402872490            0.8202459914





                             Optimization information
                             ------------------------

 Iteration number               :       4
 End of optimization            :       F 
 Energy at this geometry is     :     -76.406837
 Energy change from last geom.  :      -0.000369
 Norm of gradient               :       0.014275
 Norm of step                   :       0.059255
 Updated trust radius           :       0.500000
 Total Hessian index            :       0




 **************************************************************************************
 ****************** Output of molecule and basis set info suppressed ******************
 **************************************************************************************



                     .---------------------------------------.
                     | Starting in Integral Section (HERMIT) |
                     `---------------------------------------'



    *************************************************************************
    ****************** Output from HERMIT input processing ******************
    *************************************************************************


 Threshold for neglecting two-electron integrals:  1.00D-12
 Number of two-electron integrals written:        3461 ( 23.5% )
 Megabytes written:                              0.041

 >>>> Total CPU  time used in HERMIT:   0.01 seconds
 >>>> Total wall time used in HERMIT:   0.01 seconds


                        .----------------------------------.
                        | End of Integral Section (HERMIT) |
                        `----------------------------------'



                   .--------------------------------------------.
                   | Starting in Wave Function Section (SIRIUS) |
                   `--------------------------------------------'


 **********************************************************************
 *SIRIUS* a direct, restricted step, second order MCSCF program       *
 **********************************************************************

 (Wave function specification suppressed here, see output above for initial geometry.)


 >>>>> DIIS optimization of Hartree-Fock <<<<<

 C1-DIIS algorithm; max error vectors =   10

 Iter      Total energy        Error norm    Delta(E)  DIIS dim.
 -----------------------------------------------------------------------------
      K-S energy, electrons, error :     -7.559335081843  10.0000008656    8.66D-07
@  1    -76.4069750148        2.93510D-02   -1.38D-04    1
      Virial theorem: -V/T =      2.005491
@      MULPOP O      -0.79; H   _1  0.40; H   _2  0.40; 
 -----------------------------------------------------------------------------
      K-S energy, electrons, error :     -7.565980457879  10.0000008652    8.65D-07
@  2    -76.4070042968        2.15568D-02   -2.93D-05    2
      Virial theorem: -V/T =      2.004781
@      MULPOP O      -0.80; H   _1  0.40; H   _2  0.40; 
 -----------------------------------------------------------------------------
      K-S energy, electrons, error :     -7.560982222051  10.0000008653    8.65D-07
@  3    -76.4070210881        9.26696D-03   -1.68D-05    3
      Virial theorem: -V/T =      2.005350
@      MULPOP O      -0.79; H   _1  0.40; H   _2  0.40; 
 -----------------------------------------------------------------------------
      K-S energy, electrons, error :     -7.562516788014  10.0000008653    8.65D-07
@  4    -76.4070249566        8.25546D-04   -3.87D-06    4
      Virial theorem: -V/T =      2.005178
@      MULPOP O      -0.79; H   _1  0.40; H   _2  0.40; 
 -----------------------------------------------------------------------------
      K-S energy, electrons, error :     -7.562444041354  10.0000008653    8.65D-07
@  5    -76.4070249883        1.17229D-05   -3.17D-08    5
      Virial theorem: -V/T =      2.005186
@      MULPOP O      -0.79; H   _1  0.40; H   _2  0.40; 
 -----------------------------------------------------------------------------
      K-S energy, electrons, error :     -7.562443563212  10.0000008653    8.65D-07
@  6    -76.4070249883        1.47914D-06   -1.65D-11    6

@ *** DIIS converged in   6 iterations !
@     Converged SCF energy, gradient:    -76.407024988332    1.48D-06
    - total time used in SIRFCK :              0.00 seconds


 *** SCF orbital energy analysis ***

 Only the five lowest virtual orbital energies printed in each symmetry.

 Number of electrons :   10
 Orbital occupations :    3    1    1    0

 Sym       Kohn-Sham orbital energies

  1    -19.12966491    -0.99685816    -0.37063902     0.06529143     0.86145205
         0.93469649     1.38388587     1.73086949

  2     -0.29022713     0.89173758     1.78076691

  3     -0.51671795     0.14889926     0.77360195     1.06691645     2.57838481


  4      1.74690771

    E(LUMO) :     0.06529143 au (symmetry 1)
  - E(HOMO) :    -0.29022713 au (symmetry 2)
  ------------------------------------------
    gap     :     0.35551856 au

 >>> Writing SIRIFC interface file <<<

 >>>> CPU and wall time for SCF :       1.232       1.680


                       .-----------------------------------.
                       | >>> Final results from SIRIUS <<< |
                       `-----------------------------------'


@    Spin multiplicity:           1
@    Spatial symmetry:            1
@    Total charge of molecule:    0

@    Final DFT energy:            -76.407024988332                 
@    Nuclear repulsion:             9.089119232556
@    Electronic energy:           -85.496144220887

@    Final gradient norm:           0.000001479143

 
     Date and time (Linux)  : Sun Sep  8 20:53:51 2013
     Host name              : lpqlx131.ups-tlse.fr                    



 >>>> Total CPU  time used in SIRIUS :      1.23 seconds
 >>>> Total wall time used in SIRIUS :      1.68 seconds

 
     Date and time (Linux)  : Sun Sep  8 20:53:51 2013
     Host name              : lpqlx131.ups-tlse.fr                    


                     .---------------------------------------.
                     | End of Wave Function Section (SIRIUS) |
                     `---------------------------------------'

 Trust radius squarely increased due to very good ratio.
 Updated trust radius   0.50000

     Order of analytical energy-derivatives available:   1
     This will be the default.

 Center of mass dipole origin  :    0.000000    0.000000   -0.182698

 Center of mass gauge origin   :    0.000000    0.000000   -0.182698


                 .------------------------------------------------.
                 | Starting in Static Property Section (ABACUS) - |
                 `------------------------------------------------'


 
     Date and time (Linux)  : Sun Sep  8 20:53:51 2013
     Host name              : lpqlx131.ups-tlse.fr                    


            +---------------------------------------------------------+
            ! Gradient elements calculated directly and from symmetry !
            +---------------------------------------------------------+



        Coordinate    Direct calc.     Tra.-rot. sym.   Difference
        ----------------------------------------------------------

        O    z       -0.0000025395     0.0000143063    -0.0000168457



 >>> WARNING from TRAROT:

 Largest deviation from tra-rot symmetry is in gradient element  1:  1.68E-05


   ***************************************************************************
   ************************ FINAL RESULTS from ABACUS ************************
   ***************************************************************************


 
     Date and time (Linux)  : Sun Sep  8 20:53:51 2013
     Host name              : lpqlx131.ups-tlse.fr                    

 WARNING: warnings have been issued, please check the output above !


 CPU time statistics for ABACUS
 ------------------------------

 REST       00:00:02     401 %



 >>>> Total CPU  time used in ABACUS:   0.40 seconds
 >>>> Total wall time used in ABACUS:   0.40 seconds


                   .-------------------------------------------.
                   | End of Static Property Section (ABACUS) - |
                   `-------------------------------------------'



           :::::::::::::::::::::::::::::::::::::::::::::::::::::::::::
           ::::::::::::::: Optimization Control Center :::::::::::::::
           :::::::::::::::::::::::::::::::::::::::::::::::::::::::::::



                                Next geometry (au)
                                ------------------

 O          0.0000000000            0.0000000000           -0.3086432021
 H   _1     0.0000000000            1.4411450325            0.8200237597
 H   _2     0.0000000000           -1.4411450325            0.8200237597





                             Optimization information
                             ------------------------

 Iteration number               :       5
 End of optimization            :       F 
 Energy at this geometry is     :     -76.407025
 Energy change from last geom.  :      -0.000188
 Norm of gradient               :       0.000286
 Norm of step                   :       0.002100
 Updated trust radius           :       0.500000
 Total Hessian index            :       0




 **************************************************************************************
 ****************** Output of molecule and basis set info suppressed ******************
 **************************************************************************************



                     .---------------------------------------.
                     | Starting in Integral Section (HERMIT) |
                     `---------------------------------------'



    *************************************************************************
    ****************** Output from HERMIT input processing ******************
    *************************************************************************


 Threshold for neglecting two-electron integrals:  1.00D-12
 Number of two-electron integrals written:        3461 ( 23.5% )
 Megabytes written:                              0.041

 >>>> Total CPU  time used in HERMIT:   0.01 seconds
 >>>> Total wall time used in HERMIT:   0.01 seconds


                        .----------------------------------.
                        | End of Integral Section (HERMIT) |
                        `----------------------------------'



                   .--------------------------------------------.
                   | Starting in Wave Function Section (SIRIUS) |
                   `--------------------------------------------'


 **********************************************************************
 *SIRIUS* a direct, restricted step, second order MCSCF program       *
 **********************************************************************

 (Wave function specification suppressed here, see output above for initial geometry.)


 >>>>> DIIS optimization of Hartree-Fock <<<<<

 C1-DIIS algorithm; max error vectors =   10

 Iter      Total energy        Error norm    Delta(E)  DIIS dim.
 -----------------------------------------------------------------------------
      K-S energy, electrons, error :     -7.562388953302  10.0000008604    8.60D-07
@  1    -76.4070251005        8.79564D-04   -1.12D-07    1
      Virial theorem: -V/T =      2.005188
@      MULPOP O      -0.79; H   _1  0.40; H   _2  0.40; 
 -----------------------------------------------------------------------------
      K-S energy, electrons, error :     -7.562296832932  10.0000008604    8.60D-07
@  2    -76.4070251432        2.88766D-04   -4.27D-08    2
      Virial theorem: -V/T =      2.005199
@      MULPOP O      -0.79; H   _1  0.40; H   _2  0.40; 
 -----------------------------------------------------------------------------
      K-S energy, electrons, error :     -7.562380227784  10.0000008604    8.60D-07
@  3    -76.4070251445        2.40790D-04   -1.29D-09    3
      Virial theorem: -V/T =      2.005190
@      MULPOP O      -0.79; H   _1  0.40; H   _2  0.40; 
 -----------------------------------------------------------------------------
      K-S energy, electrons, error :     -7.562336992575  10.0000008604    8.60D-07
@  4    -76.4070251470        3.25763D-05   -2.54D-09    4
      Virial theorem: -V/T =      2.005195
@      MULPOP O      -0.79; H   _1  0.40; H   _2  0.40; 
 -----------------------------------------------------------------------------
      K-S energy, electrons, error :     -7.562340851314  10.0000008604    8.60D-07
@  5    -76.4070251471        3.02520D-07   -4.91D-11    5

@ *** DIIS converged in   5 iterations !
@     Converged SCF energy, gradient:    -76.407025147065    3.03D-07
    - total time used in SIRFCK :              0.00 seconds


 *** SCF orbital energy analysis ***

 Only the five lowest virtual orbital energies printed in each symmetry.

 Number of electrons :   10
 Orbital occupations :    3    1    1    0

 Sym       Kohn-Sham orbital energies

  1    -19.12965381    -0.99673956    -0.37049456     0.06526184     0.86112136
         0.93452177     1.38375083     1.73109849

  2     -0.29019477     0.89175452     1.78086717

  3     -0.51677793     0.14886626     0.77378747     1.06694521     2.57824763


  4      1.74688813

    E(LUMO) :     0.06526184 au (symmetry 1)
  - E(HOMO) :    -0.29019477 au (symmetry 2)
  ------------------------------------------
    gap     :     0.35545662 au

 >>> Writing SIRIFC interface file <<<

 >>>> CPU and wall time for SCF :       1.025       1.034


                       .-----------------------------------.
                       | >>> Final results from SIRIUS <<< |
                       `-----------------------------------'


@    Spin multiplicity:           1
@    Spatial symmetry:            1
@    Total charge of molecule:    0

@    Final DFT energy:            -76.407025147065                 
@    Nuclear repulsion:             9.087652077790
@    Electronic energy:           -85.494677224855

@    Final gradient norm:           0.000000302520

 
     Date and time (Linux)  : Sun Sep  8 20:53:52 2013
     Host name              : lpqlx131.ups-tlse.fr                    



 >>>> Total CPU  time used in SIRIUS :      1.03 seconds
 >>>> Total wall time used in SIRIUS :      1.03 seconds

 
     Date and time (Linux)  : Sun Sep  8 20:53:52 2013
     Host name              : lpqlx131.ups-tlse.fr                    


                     .---------------------------------------.
                     | End of Wave Function Section (SIRIUS) |
                     `---------------------------------------'

 Trust radius increased due to good ratio.
 Updated trust radius   0.50000

     Order of analytical energy-derivatives available:   1
     This will be the default.

 Center of mass dipole origin  :    0.000000    0.000000   -0.182329

 Center of mass gauge origin   :    0.000000    0.000000   -0.182329


                 .------------------------------------------------.
                 | Starting in Static Property Section (ABACUS) - |
                 `------------------------------------------------'


 
     Date and time (Linux)  : Sun Sep  8 20:53:52 2013
     Host name              : lpqlx131.ups-tlse.fr                    


            +---------------------------------------------------------+
            ! Gradient elements calculated directly and from symmetry !
            +---------------------------------------------------------+



        Coordinate    Direct calc.     Tra.-rot. sym.   Difference
        ----------------------------------------------------------

        O    z       -0.0000219286    -0.0000051046    -0.0000168240



 >>> WARNING from TRAROT:

 Largest deviation from tra-rot symmetry is in gradient element  1:  1.68E-05


   ***************************************************************************
   ************************ FINAL RESULTS from ABACUS ************************
   ***************************************************************************


 
     Date and time (Linux)  : Sun Sep  8 20:53:53 2013
     Host name              : lpqlx131.ups-tlse.fr                    

 WARNING: warnings have been issued, please check the output above !


 CPU time statistics for ABACUS
 ------------------------------




 >>>> Total CPU  time used in ABACUS:   0.40 seconds
 >>>> Total wall time used in ABACUS:   0.40 seconds


                   .-------------------------------------------.
                   | End of Static Property Section (ABACUS) - |
                   `-------------------------------------------'



           :::::::::::::::::::::::::::::::::::::::::::::::::::::::::::
           ::::::::::::::: Optimization Control Center :::::::::::::::
           :::::::::::::::::::::::::::::::::::::::::::::::::::::::::::



                               Final geometry (au)
                               -------------------

 O          0.0000000000            0.0000000000           -0.3086432021
 H   _1     0.0000000000            1.4411450325            0.8200237597
 H   _2     0.0000000000           -1.4411450325            0.8200237597





                             Optimization information
                             ------------------------

 Iteration number               :       6
 End of optimization            :       T 
 Energy at this geometry is     :     -76.407025
 Energy change from last geom.  :      -0.000000
 Norm of gradient               :       0.000024
 Norm of step                   :       0.000047
 Updated trust radius           :       0.500000
 Total Hessian index            :       0



 Center of mass dipole origin  :    0.000000    0.000000   -0.182329

 Center of mass gauge origin   :    0.000000    0.000000   -0.182329


                 .------------------------------------------------.
                 | Starting in Static Property Section (ABACUS) - |
                 `------------------------------------------------'


 
     Date and time (Linux)  : Sun Sep  8 20:53:53 2013
     Host name              : lpqlx131.ups-tlse.fr                    


   ***************************************************************************
   ************************ FINAL RESULTS from ABACUS ************************
   ***************************************************************************


 
     Date and time (Linux)  : Sun Sep  8 20:53:53 2013
     Host name              : lpqlx131.ups-tlse.fr                    


                             Molecular geometry (au)
                             -----------------------

 O          0.0000000000            0.0000000000           -0.3086432021
 H   _1     0.0000000000            1.4411450325            0.8200237597
 H   _2     0.0000000000           -1.4411450325            0.8200237597





                        Molecular wave function and energy
                        ----------------------------------

     Spin multiplicity  1     State number       1     Total charge       0

     Total energy        -76.4070251471 au (Hartrees)
                         -2079.14091762 eV
                           -200606.6136 kJ/mol


                             Relativistic corrections
                             ------------------------

     Darwin correction:                          0.1947313907 au
     Mass-velocity correction:                  -0.2460030048 au

     Total relativistic correction:             -0.0512716141 au (0.0671%)
     Non-relativistic + relativistic energy:   -76.4582967611 au




                                  Dipole moment
                                  -------------

                 au               Debye          C m (/(10**-30)
              0.821134           2.087113           6.961860


                             Dipole moment components
                             ------------------------

                 au               Debye          C m (/(10**-30)

      z      0.82113356         2.08711321         6.96186028


   Units:   1 a.u. =   2.54175 Debye 
            1 a.u. =   8.47835 (10**-30) C m (SI)




   Interatomic separations (in Angstrom):
   --------------------------------------

            O           H   _1      H   _2
            ------      ------      ------
 O     :    0.000000
 H   _1:    0.968667    0.000000
 H   _2:    0.968667    1.525242    0.000000


  Max    interatomic separation is    1.5252 Angstrom (    2.8823 Bohr)
  between atoms    3 and    2, "H   _2" and "H   _1".

  Min HX interatomic separation is    0.9687 Angstrom (    1.8305 Bohr)


  Bond distances (Angstrom):
  --------------------------

                  atom 1     atom 2       distance
                  ------     ------       --------
  bond distance:  H   _1     O            0.968667
  bond distance:  H   _2     O            0.968667


  Bond angles (degrees):
  ----------------------

                  atom 1     atom 2     atom 3         angle
                  ------     ------     ------         -----
  bond angle:     H   _1     O          H   _2       103.866




 CPU time statistics for ABACUS
 ------------------------------

 REST       00:00:01     *** %



 >>>> Total CPU  time used in ABACUS:   0.00 seconds
 >>>> Total wall time used in ABACUS:   0.00 seconds


                   .-------------------------------------------.
                   | End of Static Property Section (ABACUS) - |
                   `-------------------------------------------'



          <<<<<<<<<<<<<<<<<<<<<<<<<<<<<<<<<<<<<<<<<<<<<<<<<<<<<<<<<<<<<<
          <<<<<<<<<<<<<<<<<<<<  End of Optimization <<<<<<<<<<<<<<<<<<<<
          <<<<<<<<<<<<<<<<<<<<<<<<<<<<<<<<<<<<<<<<<<<<<<<<<<<<<<<<<<<<<<



                                  Final geometry
                                  --------------

 O          0.0000000000            0.0000000000           -0.3086432021
 H   _1     0.0000000000            1.4411450325            0.8200237597
 H   _2     0.0000000000           -1.4411450325            0.8200237597



@ Iter      Energy        Change       GradNorm  Index   StepLen    TrustRad #Rej
@ -------------------------------------------------------------------------------
@   0      -76.379272     0.000000     0.249086    0    0.301476*   0.500000   0 
@   1      -76.401389    -0.022117     0.063914    0    0.095056*   0.500000   0 
@   2      -76.404489    -0.003100     0.033002    0    0.158678*   0.500000   0 
@   3      -76.406468    -0.001979     0.021173    0    0.052998*   0.500000   0 
@   4      -76.406837    -0.000369     0.014275    0    0.059255*   0.500000   0 
@   5      -76.407025    -0.000188     0.000286    0    0.002100*   0.500000   0 
@   6      -76.407025    -0.000000     0.000024    0    0.000047*   0.500000   0 

@  *) Newton step taken.


   Interatomic separations (in Angstrom):
   --------------------------------------

            O           H   _1      H   _2
            ------      ------      ------
 O     :    0.000000
 H   _1:    0.968667    0.000000
 H   _2:    0.968667    1.525242    0.000000


  Max    interatomic separation is    1.5252 Angstrom (    2.8823 Bohr)
  between atoms    3 and    2, "H   _2" and "H   _1".

  Min HX interatomic separation is    0.9687 Angstrom (    1.8305 Bohr)


  Bond distances (Angstrom):
  --------------------------

                  atom 1     atom 2       distance
                  ------     ------       --------
  bond distance:  H   _1     O            0.968667
  bond distance:  H   _2     O            0.968667


  Bond angles (degrees):
  ----------------------

                  atom 1     atom 2     atom 3         angle
                  ------     ------     ------         -----
  bond angle:     H   _1     O          H   _2       103.866



@ Geometry converged in  7 iterations!

@ Energy at final geometry is       :     -76.407025 a.u.
@ Energy change during optimization :      -0.027753 a.u.
@                                            -72.866 kJ/mol

 >>>> Total CPU  time used in DALTON:  11.74 seconds
 >>>> Total wall time used in DALTON:  12.67 seconds

 
     Date and time (Linux)  : Sun Sep  8 20:53:53 2013
     Host name              : lpqlx131.ups-tlse.fr                    
