

     ************************************************************************
     *************** Dalton - An Electronic Structure Program ***************
     ************************************************************************

    This is output from DALTON (Release Dalton2013 patch 0)
   ----------------------------------------------------------------------------
    NOTE:
     
    Dalton is an experimental code for the evaluation of molecular
    properties using (MC)SCF, DFT, CI, and CC wave functions.
    The authors accept no responsibility for the performance of
    the code or for the correctness of the results.
     
    The code (in whole or part) is provided under a licence and
    is not to be reproduced for further distribution without
    the written permission of the authors or their representatives.
     
    See the home page "http://daltonprogram.org" for further information.
     
    If results obtained with this code are published,
    the appropriate citations would be both of:
     
       K. Aidas, C. Angeli, K. L. Bak, V. Bakken, R. Bast,
       L. Boman, O. Christiansen, R. Cimiraglia, S. Coriani,
       P. Dahle, E. K. Dalskov, U. Ekstroem, T. Enevoldsen,
       J. J. Eriksen, P. Ettenhuber, B. Fernandez, L. Ferrighi,
       H. Fliegl, L. Frediani, K. Hald, A. Halkier, C. Haettig,
       H. Heiberg, T. Helgaker, A. C. Hennum, H. Hettema,
       E. Hjertenaes, S. Hoest, I.-M. Hoeyvik, M. F. Iozzi,
       B. Jansik, H. J. Aa. Jensen, D. Jonsson, P. Joergensen,
       J. Kauczor, S. Kirpekar, T. Kjaergaard, W. Klopper,
       S. Knecht, R. Kobayashi, H. Koch, J. Kongsted, A. Krapp,
       K. Kristensen, A. Ligabue, O. B. Lutnaes, J. I. Melo,
       K. V. Mikkelsen, R. H. Myhre, C. Neiss, C. B. Nielsen,
       P. Norman, J. Olsen, J. M. H. Olsen, A. Osted,
       M. J. Packer, F. Pawlowski, T. B. Pedersen, P. F. Provasi,
       S. Reine, Z. Rinkevicius, T. A. Ruden, K. Ruud, V. Rybkin,
       P. Salek, C. C. M. Samson, A. Sanchez de Meras, T. Saue,
       S. P. A. Sauer, B. Schimmelpfennig, K. Sneskov,
       A. H. Steindal, K. O. Sylvester-Hvid, P. R. Taylor,
       A. M. Teale, E. I. Tellgren, D. P. Tew, A. J. Thorvaldsen,
       L. Thoegersen, O. Vahtras, M. A. Watson, D. J. D. Wilson,
       M. Ziolkowski and H. Aagren.
       The Dalton quantum chemistry program system.
       WIREs Comput. Mol. Sci. 2013. doi: 10.1002/wcms.1172
    
    and
    
       Dalton, a Molecular Electronic Structure Program,
       Release DALTON2013.0 (2013), see http://daltonprogram.org
   ----------------------------------------------------------------------------

    Authors in alphabetical order (major contribution(s) in parenthesis):

  Kestutis Aidas,           Vilnius University,           Lithuania   (QM/MM)
  Celestino Angeli,         University of Ferrara,        Italy       (NEVPT2)
  Keld L. Bak,              UNI-C,                        Denmark     (AOSOPPA, non-adiabatic coupling, magnetic properties)
  Vebjoern Bakken,          University of Oslo,           Norway      (DALTON; geometry optimizer, symmetry detection)
  Radovan Bast,             KTH Stockholm                 Sweden      (DALTON installation and execution frameworks)
  Linus Boman,              NTNU,                         Norway      (Cholesky decomposition and subsystems)
  Ove Christiansen,         Aarhus University,            Denmark     (CC module)
  Renzo Cimiraglia,         University of Ferrara,        Italy       (NEVPT2)
  Sonia Coriani,            University of Trieste,        Italy       (CC module, MCD in RESPONS)
  Paal Dahle,               University of Oslo,           Norway      (Parallelization)
  Erik K. Dalskov,          UNI-C,                        Denmark     (SOPPA)
  Thomas Enevoldsen,        Univ. of Southern Denmark,    Denmark     (SOPPA)
  Janus J. Eriksen,         Aarhus University,            Denmark     (PE-MP2/SOPPA, TDA)
  Berta Fernandez,          U. of Santiago de Compostela, Spain       (doublet spin, ESR in RESPONS)
  Lara Ferrighi,            Aarhus University,            Denmark     (PCM Cubic response)
  Heike Fliegl,             University of Oslo,           Norway      (CCSD(R12))
  Luca Frediani,            UiT The Arctic U. of Norway,  Norway      (PCM)
  Bin Gao,                  UiT The Arctic U. of Norway,  Norway      (Gen1Int library)
  Christof Haettig,         Ruhr-University Bochum,       Germany     (CC module)
  Kasper Hald,              Aarhus University,            Denmark     (CC module)
  Asger Halkier,            Aarhus University,            Denmark     (CC module)
  Hanne Heiberg,            University of Oslo,           Norway      (geometry analysis, selected one-electron integrals)
  Trygve Helgaker,          University of Oslo,           Norway      (DALTON; ABACUS, ERI, DFT modules, London, and much more)
  Alf Christian Hennum,     University of Oslo,           Norway      (Parity violation)
  Hinne Hettema,            University of Auckland,       New Zealand (quadratic response in RESPONS; SIRIUS supersymmetry)
  Eirik Hjertenaes,         NTNU,                         Norway      (Cholesky decomposition)
  Maria Francesca Iozzi,    University of Oslo,           Norway      (RPA)
  Brano Jansik              Technical Univ. of Ostrava    Czech Rep.  (DFT cubic response)
  Hans Joergen Aa. Jensen,  Univ. of Southern Denmark,    Denmark     (DALTON; SIRIUS, RESPONS, ABACUS modules, London, and much more)
  Dan Jonsson,              UiT The Arctic U. of Norway,  Norway      (cubic response in RESPONS module)
  Poul Joergensen,          Aarhus University,            Denmark     (RESPONS, ABACUS, and CC modules)
  Joanna Kauczor,           Linkoeping University,        Sweden      (Complex polarization propagator (CPP) module)
  Sheela Kirpekar,          Univ. of Southern Denmark,    Denmark     (Mass-velocity & Darwin integrals)
  Wim Klopper,              KIT Karlsruhe,                Germany     (R12 code in CC, SIRIUS, and ABACUS modules)
  Stefan Knecht,            ETH Zurich,                   Switzerland (Parallel CI and MCSCF)
  Rika Kobayashi,           Australian National Univ.,    Australia   (DIIS in CC, London in MCSCF)
  Henrik Koch,              NTNU,                         Norway      (CC module, Cholesky decomposition)
  Jacob Kongsted,           Univ. of Southern Denmark,    Denmark     (Polarizable embedding, QM/MM)
  Andrea Ligabue,           University of Modena,         Italy       (CTOCD, AOSOPPA)
  Ola B. Lutnaes,           University of Oslo,           Norway      (DFT Hessian)
  Juan I. Melo,             University of Buenos Aires,   Argentina   (LRESC, Relativistic Effects on NMR Shieldings)
  Kurt V. Mikkelsen,        University of Copenhagen,     Denmark     (MC-SCRF and QM/MM)
  Rolf H. Myhre,            NTNU,                         Norway      (Cholesky, subsystems and ECC2)
  Christian Neiss,          Univ. Erlangen-Nuernberg,     Germany     (CCSD(R12))
  Christian B. Nielsen,     University of Copenhagen,     Denmark     (QM/MM)
  Patrick Norman,           Linkoeping University,        Sweden      (Cubic response and complex response in RESPONS)
  Jeppe Olsen,              Aarhus University,            Denmark     (SIRIUS CI/density modules)
  Jogvan Magnus H. Olsen,   Univ. of Southern Denmark,    Denmark     (Polarizable embedding, PE library, QM/MM)
  Anders Osted,             Copenhagen University,        Denmark     (QM/MM)
  Martin J. Packer,         University of Sheffield,      UK          (SOPPA)
  Filip Pawlowski,          Kazimierz Wielki University   Poland      (CC3)
  Thomas B. Pedersen,       University of Oslo,           Norway      (Cholesky decomposition)
  Patricio F. Provasi,      University of Northeastern,   Argentina   (Analysis of coupling constants in localized orbitals)
  Zilvinas Rinkevicius,     KTH Stockholm,                Sweden      (open-shell DFT, ESR)
  Elias Rudberg,            KTH Stockholm,                Sweden      (DFT grid and basis info)
  Torgeir A. Ruden,         University of Oslo,           Norway      (Numerical derivatives in ABACUS)
  Kenneth Ruud,             UiT The Arctic U. of Norway,  Norway      (DALTON; ABACUS magnetic properties and  much more)
  Pawel Salek,              KTH Stockholm,                Sweden      (DALTON; DFT code)
  Claire C. M. Samson       University of Karlsruhe       Germany     (Boys localization, r12 integrals in ERI)
  Alfredo Sanchez de Meras, University of Valencia,       Spain       (CC module, Cholesky decomposition)
  Trond Saue,               Paul Sabatier University,     France      (direct Fock matrix construction)
  Stephan P. A. Sauer,      University of Copenhagen,     Denmark     (SOPPA(CCSD), SOPPA prop., AOSOPPA, vibrational g-factors)
  Bernd Schimmelpfennig,    Forschungszentrum Karlsruhe,  Germany     (AMFI module)
  Kristian Sneskov,         Aarhus University,            Denmark     (QM/MM, PE-CC)
  Arnfinn H. Steindal,      UiT The Arctic U. of Norway,  Norway      (parallel QM/MM)
  K. O. Sylvester-Hvid,     University of Copenhagen,     Denmark     (MC-SCRF)
  Peter R. Taylor,          VLSCI/Univ. of Melbourne,     Australia   (Symmetry handling ABACUS, integral transformation)
  Andrew M. Teale,          University of Nottingham,     England     (DFT-AC, DFT-D)
  David P. Tew,             University of Bristol,        England     (CCSD(R12))
  Olav Vahtras,             KTH Stockholm,                Sweden      (triplet response, spin-orbit, ESR, TDDFT, open-shell DFT)
  David J. Wilson,          La Trobe University,          Australia   (DFT Hessian and DFT magnetizabilities)
  Hans Agren,               KTH Stockholm,                Sweden      (SIRIUS module, RESPONS, MC-SCRF solvation model)
 --------------------------------------------------------------------------------

     Date and time (Linux)  : Sun Sep  8 21:17:03 2013
     Host name              : lpqlx131.ups-tlse.fr                    

 * Work memory size             :    64000000 =  488.28 megabytes.

 * Directories for basis set searches:
   1) /home/bast/DALTON-2013.0-Source/build/test_dft_disp_d2
   2) /home/bast/DALTON-2013.0-Source/build/basis


Compilation information
-----------------------

 Who compiled             | bast
 Host                     | lpqlx131.ups-tlse.fr
 System                   | Linux-3.8.5-201.fc18.x86_64
 CMake generator          | Unix Makefiles
 Processor                | x86_64
 64-bit integers          | OFF
 MPI                      | OFF
 Fortran compiler         | /usr/bin/gfortran
 Fortran compiler version | GNU Fortran (GCC) 4.7.2 20121109 (Red Hat 4.7.2-8)
 C compiler               | /usr/bin/gcc
 C compiler version       | gcc (GCC) 4.7.2 20121109 (Red Hat 4.7.2-8)
 C++ compiler             | /usr/bin/g++
 C++ compiler version     | g++ (GCC) 4.7.2 20121109 (Red Hat 4.7.2-8)
 Static linking           | OFF
 Last Git revision        | f34203295a86316e27f9e7b44f9b6769c4a046c0
 Configuration time       | 2013-09-08 20:31:27.952056


   Content of the .dal input file
 ----------------------------------

**DALTON INPUT                                    
.RUN WAVEFUNCTION                                 
.DIRECT                                           
.OPTIMIZE                                         
**WAVE FUNCTIONS                                  
.DFT                                              
 BLYP                                             
*DFT INPUT                                        
.DFTD2                                            
.GRID TYPE                                        
BECKE                                             
*SCF INPUT                                        
.THRESH                                           
 1.0D-06                                          
**END OF INPUT                                    


   Content of the .mol file
 ----------------------------

BASIS                                                                          
STO-3G                                                                         
CH4 Dimer                                                                      
----------                                                                     
Atomtypes=2 Angstrom                                                           
Atoms=2  Charge=6.0                                                            
C   0.000000  -0.000140   1.859161                                             
C   0.000000   0.000140  -1.859161                                             
Atoms=8  Charge=1.0                                                            
H  -0.888551   0.513060   1.494685                                             
H   0.888551   0.513060   1.494685                                             
H   0.000000  -1.026339   1.494868                                             
H   0.000000   0.000089   2.948284                                             
H   0.000000  -0.000089  -2.948284                                             
H  -0.888551  -0.513060  -1.494685                                             
H   0.888551  -0.513060  -1.494685                                             
H   0.000000   1.026339  -1.494868                                             


       *******************************************************************
       *********** Output from DALTON general input processing ***********
       *******************************************************************

 --------------------------------------------------------------------------------
   Overall default print level:    0
   Print level for DALTON.STAT:    1

    AO-direct calculation (in sections where implemented)
    HERMIT 1- and 2-electron integral sections will be executed
    "Old" integral transformation used (limited to max 255 basis functions)
    Wave function sections will be executed (SIRIUS module)
 --------------------------------------------------------------------------------


 Chosen parameters for *OPTIMI :
 -------------------------------

 Default 1st order method will be used:   BFGS update.
 Optimization will be performed in redundant internal coordinates.
 Model Hessian will be used as initial Hessian.
 The model Hessian parameters of Roland Lindh will be used.


 Trust region method will be used to control step (default).



              >>>>>>>>>>>>>>>>>>>>>>>>>>>>>>>>>>>>>>>>>>>>>>>>>>>>>
              >>>>>>>>>> 1st Order Geometry Optimization >>>>>>>>>>
              >>>>>>>>>>>>>>>>>>>>>>>>>>>>>>>>>>>>>>>>>>>>>>>>>>>>>

 Reading .mol file to determine number of atoms for parallel runs.


                      SYMADD: Requested addition of symmetry
                      --------------------------------------

 Symmetry test threshold:  5.00E-06

 - molecule centered at center of mass and rotated so
   principal axes of inertia are along coordinate axes.

 Symmetry class found: C(2h)          

 The following elements were found:   Z  XY    


   ****************************************************************************
   *************** Output of molecule and basis set information ***************
   ****************************************************************************


    The two title cards from your ".mol" input:
    ------------------------------------------------------------------------
 1: CH4 Dimer                                                               
 2: ----------                                                              
    ------------------------------------------------------------------------

  Coordinates are entered in Angstrom and converted to atomic units.
          - Conversion factor : 1 bohr = 0.52917721 A

  Atomic type no.    1
  --------------------
  Nuclear charge:   6.00000
  Number of symmetry independent centers:    2
  Number of basis sets to read;    2
  Basis set file used for this atomic type with Z =   6 :
     "/home/bast/DALTON-2013.0-Source/build/basis/STO-3G"

  Atomic type no.    2
  --------------------
  Nuclear charge:   1.00000
  Number of symmetry independent centers:    8
  Number of basis sets to read;    2
  Basis set file used for this atomic type with Z =   1 :
     "/home/bast/DALTON-2013.0-Source/build/basis/STO-3G"


                      SYMADD: Requested addition of symmetry
                      --------------------------------------

 Symmetry test threshold:  5.00E-06

 - molecule centered at center of mass and rotated so
   principal axes of inertia are along coordinate axes.

 Symmetry class found: C(2h)          

 Symmetry Independent Centres             
 ----------------------------
       6 :      3.51330512     0.00000000     0.00000000  Isotope  1
       1 :      2.82447228    -0.96975558     1.67911804  Isotope  1
       1 :      2.82503715     1.93928689     0.00000000  Isotope  1
       1 :      5.57144927    -0.00058773     0.00000000  Isotope  1

 The following elements were found:   Z  XY    


                         SYMGRP: Point group information
                         -------------------------------

Full point group is: C(2h)          
Represented as:      C2h

   * The point group was generated by:

      Reflection in the xy-plane
      Rotation about the z-axis

   * Group multiplication table

        |  E   C2z   i   Oxy
   -----+--------------------
     E  |  E   C2z   i   Oxy
    C2z | C2z   E   Oxy   i 
     i  |  i   Oxy   E   C2z
    Oxy | Oxy   i   C2z   E 

   * Character table

        |  E   C2z   i   Oxy
   -----+--------------------
    Ag  |   1    1    1    1
    Au  |   1    1   -1   -1
    Bu  |   1   -1   -1    1
    Bg  |   1   -1    1   -1

   * Direct product table

        | Ag   Au   Bu   Bg 
   -----+--------------------
    Ag  | Ag   Au   Bu   Bg 
    Au  | Au   Ag   Bg   Bu 
    Bu  | Bu   Bg   Ag   Au 
    Bg  | Bg   Bu   Au   Ag 


                                 Isotopic Masses
                                 ---------------

                           C   _1     12.000000
                           C   _2     12.000000
                           H   _1      1.007825
                           H   _2      1.007825
                           H   _3      1.007825
                           H   _4      1.007825
                           H   _1      1.007825
                           H   _2      1.007825
                           H   _1      1.007825
                           H   _2      1.007825

                       Total mass:    32.062600 amu
                       Natural abundance:  97.695 %

 Center-of-mass coordinates (a.u.):    0.000000    0.000000    0.000000


  Atoms and basis sets
  --------------------

  Number of atom types :    2
  Total number of atoms:   10

  Basis set used is "STO-3G" from the basis set library.

  label    atoms   charge   prim   cont     basis
  ----------------------------------------------------------------------
  C           2    6.0000    15     5      [6s3p|2s1p]                                        
  H           8    1.0000     3     1      [3s|1s]                                            
  ----------------------------------------------------------------------
  total:     10   20.0000    54    18
  ----------------------------------------------------------------------

  Threshold for neglecting AO integrals:  1.00D-12


  Cartesian Coordinates (a.u.)
  ----------------------------

  Total number of coordinates:   30
  C   / 1 :     1  x   3.5133051222    2  y   0.0000000000    3  z   0.0000000000
  C   / 2 :     4  x  -3.5133051222    5  y  -0.0000000000    6  z   0.0000000000
  H   / 1 :     7  x   2.8244722758    8  y  -0.9697555791    9  z   1.6791180381
  H   / 2 :    10  x   2.8244722758   11  y  -0.9697555791   12  z  -1.6791180381
  H   / 3 :    13  x  -2.8244722758   14  y   0.9697555791   15  z   1.6791180381
  H   / 4 :    16  x  -2.8244722758   17  y   0.9697555791   18  z  -1.6791180381
  H   / 1 :    19  x   2.8250371547   20  y   1.9392868937   21  z   0.0000000000
  H   / 2 :    22  x  -2.8250371547   23  y  -1.9392868937   24  z   0.0000000000
  H   / 1 :    25  x   5.5714492702   26  y  -0.0005877313   27  z   0.0000000000
  H   / 2 :    28  x  -5.5714492702   29  y   0.0005877313   30  z   0.0000000000


  Symmetry Coordinates
  --------------------

  Number of coordinates in each symmetry:     9    6    9    6

  Symmetry  Ag  ( 1)

    1   C     x    [  1  -    4 ]/2
    2   C     y    [  2  -    5 ]/2
    3   H     x    [  7  +   10  -   13  -   16 ]/4
    4   H     y    [  8  +   11  -   14  -   17 ]/4
    5   H     z    [  9  -   12  +   15  -   18 ]/4
    6   H     x    [ 19  -   22 ]/2
    7   H     y    [ 20  -   23 ]/2
    8   H     x    [ 25  -   28 ]/2
    9   H     y    [ 26  -   29 ]/2

  Symmetry  Au  ( 2)

   10   C     z    [  3  +    6 ]/2
   11   H     x    [  7  -   10  -   13  +   16 ]/4
   12   H     y    [  8  -   11  -   14  +   17 ]/4
   13   H     z    [  9  +   12  +   15  +   18 ]/4
   14   H     z    [ 21  +   24 ]/2
   15   H     z    [ 27  +   30 ]/2

  Symmetry  Bu  ( 3)

   16   C     x    [  1  +    4 ]/2
   17   C     y    [  2  +    5 ]/2
   18   H     x    [  7  +   10  +   13  +   16 ]/4
   19   H     y    [  8  +   11  +   14  +   17 ]/4
   20   H     z    [  9  -   12  -   15  +   18 ]/4
   21   H     x    [ 19  +   22 ]/2
   22   H     y    [ 20  +   23 ]/2
   23   H     x    [ 25  +   28 ]/2
   24   H     y    [ 26  +   29 ]/2

  Symmetry  Bg  ( 4)

   25   C     z    [  3  -    6 ]/2
   26   H     x    [  7  -   10  +   13  -   16 ]/4
   27   H     y    [  8  -   11  +   14  -   17 ]/4
   28   H     z    [  9  +   12  -   15  -   18 ]/4
   29   H     z    [ 21  -   24 ]/2
   30   H     z    [ 27  -   30 ]/2


   Interatomic separations (in Angstrom):
   --------------------------------------

            C   _1      C   _2      H   _1      H   _2      H   _3      H   _4
            ------      ------      ------      ------      ------      ------
 C   _1:    0.000000
 C   _2:    3.718322    0.000000
 H   _1:    1.088917    3.507263    0.000000
 H   _2:    1.088917    3.507263    1.777102    0.000000
 H   _3:    3.507263    1.088917    3.160578    3.625927    0.000000
 H   _4:    3.507263    1.088917    3.625927    3.160578    1.777102    0.000000
 H   _1:    1.088942    3.507587    1.777434    1.777434    3.160760    3.160760
 H   _2:    3.507587    1.088942    3.160760    3.160760    1.777434    1.777434
 H   _1:    1.089123    4.807445    1.779217    1.779217    4.559914    4.559914
 H   _2:    4.807445    1.089123    4.559914    4.559914    1.779217    1.779217

            H   _1      H   _2      H   _1      H   _2
            ------      ------      ------      ------
 H   _1:    0.000000
 H   _2:    3.626570    0.000000
 H   _1:    1.779318    4.560130    0.000000
 H   _2:    4.560130    1.779318    5.896568    0.000000


  Max    interatomic separation is    5.8966 Angstrom (   11.1429 Bohr)
  between atoms   10 and    9, "H   _2" and "H   _1".

  Min HX interatomic separation is    1.0889 Angstrom (    2.0578 Bohr)

  Min YX interatomic separation is    3.7183 Angstrom (    7.0266 Bohr)


  Bond distances (Angstrom):
  --------------------------

                  atom 1     atom 2       distance
                  ------     ------       --------
  bond distance:  H   _1     C   _1       1.088917
  bond distance:  H   _2     C   _1       1.088917
  bond distance:  H   _3     C   _2       1.088917
  bond distance:  H   _4     C   _2       1.088917
  bond distance:  H   _1     C   _1       1.088942
  bond distance:  H   _2     C   _2       1.088942
  bond distance:  H   _1     C   _1       1.089123
  bond distance:  H   _2     C   _2       1.089123


  Bond angles (degrees):
  ----------------------

                  atom 1     atom 2     atom 3         angle
                  ------     ------     ------         -----
  bond angle:     H   _1     C   _1     H   _2       109.372
  bond angle:     H   _1     C   _1     H   _1       109.400
  bond angle:     H   _1     C   _1     H   _1       109.549
  bond angle:     H   _2     C   _1     H   _1       109.400
  bond angle:     H   _2     C   _1     H   _1       109.549
  bond angle:     H   _1     C   _1     H   _1       109.557
  bond angle:     H   _3     C   _2     H   _4       109.372
  bond angle:     H   _3     C   _2     H   _2       109.400
  bond angle:     H   _3     C   _2     H   _2       109.549
  bond angle:     H   _4     C   _2     H   _2       109.400
  bond angle:     H   _4     C   _2     H   _2       109.549
  bond angle:     H   _2     C   _2     H   _2       109.557




 Principal moments of inertia (u*A**2) and principal axes
 --------------------------------------------------------

   IA       6.367194          1.000000   -0.000014    0.000000
   IB     117.169600          0.000014    1.000000    0.000000
   IC     117.171187          0.000000    0.000000    1.000000


 Rotational constants
 --------------------

               A                   B                   C

          79372.3300           4313.2263           4313.1679 MHz
            2.647576            0.143874            0.143872 cm-1


@  Nuclear repulsion energy :   41.000263966492 Hartree


  Symmetry Orbitals
  -----------------

  Number of orbitals in each symmetry:           7    2    7    2


  Symmetry  Ag ( 1)

    1     C        1s         1 +    2
    2     C        1s         3 +    4
    3     C        2px        5 -    6
    4     C        2py        7 -    8
    5     H        1s        11 +   12 +   13 +   14
    6     H        1s        15 +   16
    7     H        1s        17 +   18


  Symmetry  Au ( 2)

    8     C        2pz        9 +   10
    9     H        1s        11 -   12 +   13 -   14


  Symmetry  Bu ( 3)

   10     C        1s         1 -    2
   11     C        1s         3 -    4
   12     C        2px        5 +    6
   13     C        2py        7 +    8
   14     H        1s        11 +   12 -   13 -   14
   15     H        1s        15 -   16
   16     H        1s        17 -   18


  Symmetry  Bg ( 4)

   17     C        2pz        9 -   10
   18     H        1s        11 -   12 -   13 +   14

  Symmetries of electric field:  Bu (3)  Bu (3)  Au (2)

  Symmetries of magnetic field:  Bg (4)  Bg (4)  Ag (1)


                     .---------------------------------------.
                     | Starting in Integral Section (HERMIT) |
                     `---------------------------------------'



    *************************************************************************
    ****************** Output from HERMIT input processing ******************
    *************************************************************************



     ************************************************************************
     ************************** Output from HERINT **************************
     ************************************************************************

 >>>> Total CPU  time used in HERMIT:   0.01 seconds
 >>>> Total wall time used in HERMIT:   0.01 seconds


                        .----------------------------------.
                        | End of Integral Section (HERMIT) |
                        `----------------------------------'



                   .--------------------------------------------.
                   | Starting in Wave Function Section (SIRIUS) |
                   `--------------------------------------------'



 Settings for DFT calculation:
 -----------------------------

     Default thresholds:                                       1.00D-09    1.00D-10    2.00D-12
     Default threshold for number of electrons:                1.00D-03
     DFT radial quadrature accuracy and ang. expansion order:              1.00D-13  35

 *** Output from Huckel module :

     Using EWMO model:          F
     Using EHT  model:          T
     Number of Huckel orbitals each symmetry:    7    2    7    2

 Huckel EHT eigenvalues for symmetry :  1
          -11.382326      -1.263513      -0.636550      -0.594308      -0.228049
           -0.204960      -0.204409

 Huckel EHT eigenvalues for symmetry :  2
           -0.624217      -0.203374

 Huckel EHT eigenvalues for symmetry :  3
          -11.380254      -1.192708      -0.624288      -0.579063      -0.221188
           -0.203352      -0.201174

 Huckel EHT eigenvalues for symmetry :  4
           -0.594237      -0.204430

 **********************************************************************
 *SIRIUS* a direct, restricted step, second order MCSCF program       *
 **********************************************************************

 
     Date and time (Linux)  : Sun Sep  8 21:17:03 2013
     Host name              : lpqlx131.ups-tlse.fr                    

 Title lines from ".mol" input file:
     CH4 Dimer                                                               
     ----------                                                              

 Print level on unit LUPRI =   2 is   0
 Print level on unit LUW4  =   2 is   5

@    Restricted, closed shell Kohn-Sham DFT calculation.
 Fock matrices are calculated directly without use of integrals on disk.

 Initial molecular orbitals are obtained according to
 ".MOSTART EHT   " input option

     Wave function specification
     ============================
@    For the wave function of type :      >>> KS-DFT <<<
@    Number of closed shell electrons          20
@    Number of electrons in active shells       0
@    Total charge of the molecule               0

@    Spin multiplicity and 2 M_S                1         0
     Total number of symmetries                 4
@    Reference state symmetry                   1
 
     This is a DFT calculation of type: BLYP
 Weighted mixed functional:
                       LYP:    1.00000
                     Becke:    1.00000
                    Slater:    1.00000

     Orbital specifications
     ======================
     Abelian symmetry species          All |    1    2    3    4
                                       --- |  ---  ---  ---  ---
     Total number of orbitals           18 |    7    2    7    2
     Number of basis functions          18 |    7    2    7    2

      ** Automatic occupation of RKS orbitals **

      -- Initial occupation of symmetries is determined from extended Huckel guess.           
      -- Initial occupation of symmetries is :
@    Occupied SCF orbitals              10 |    4    1    4    1

     Maximum number of Fock   iterations      0
     Maximum number of DIIS   iterations     60
     Maximum number of QC-SCF iterations     60
     Threshold for SCF convergence     1.00D-06
 
     This is a DFT calculation of type: BLYP
 Weighted mixed functional:
                       LYP:    1.00000
                     Becke:    1.00000
                    Slater:    1.00000


 >>>>> DIIS optimization of Hartree-Fock <<<<<

 C1-DIIS algorithm; max error vectors =   10


                      DFT-D Empirical Dispersion Correction
                      -------------------------------------

         Running DFT-D Ver.   :    2
                         Ref. :S. Grimme, J. Comput. Chem., 27 (2006), 1787-1799


                      DFT-D2 Functional Dependent Parameters
                      --------------------------------------

     s_6 =       1.200000000000    sr_6 =       1.100000000000
     s_8 =       0.000000000000     alp =      20.000000000000


                          +------------------------------+
                          ! Dispersion Energy Correction !
                          +------------------------------+

                       E_disp:         -0.003944033940

 Automatic occupation of symmetries with  20 electrons.

 Iter     Total energy    Error norm  Delta(E)    SCF occupation
 -----------------------------------------------------------------------------
   1  Screening settings (-IFTHRS, DIFDEN)   -6    F
      K-S energy, electrons, error :    -13.692627433244  20.0000258231    2.58D-05
@  1  -79.8453461963       2.03D+00  -7.98D+01     4   1   4   1
      Virial theorem: -V/T =      2.015538
@      MULPOP C   _1  0.37; C   _2  0.37; H   _1 -0.09; H   _2 -0.09; H   _3 -0.09; H   _4 -0.09; H   _1 -0.09; H   _2 -0.09; H   _1 -0.10; H   _2 -0.10; 
@
 -----------------------------------------------------------------------------
   2  Screening settings (-IFTHRS, DIFDEN)   -6    F
      K-S energy, electrons, error :    -13.923837543995  20.0000199532    2.00D-05
@  2  -79.8933677314       1.13D+00  -4.80D-02     4   1   4   1
      Virial theorem: -V/T =      2.000366
@      MULPOP C   _1 -0.97; C   _2 -0.97; H   _1  0.24; H   _2  0.24; H   _3  0.24; H   _4  0.24; H   _1  0.24; H   _2  0.24; H   _1  0.24; H   _2  0.24; 
@
 -----------------------------------------------------------------------------
   3  Screening settings (-IFTHRS, DIFDEN)   -6    F
      K-S energy, electrons, error :    -13.713665151264  20.0000238490    2.38D-05
@  3  -79.9751554668       4.75D-01  -8.18D-02     4   1   4   1
      Virial theorem: -V/T =      2.020113
@      MULPOP C   _1 -0.04; C   _2 -0.04; H   _1  0.01; H   _2  0.01; H   _3  0.01; H   _4  0.01; H   _1  0.01; H   _2  0.01; H   _1  0.01; H   _2  0.01; 
@
 -----------------------------------------------------------------------------
   4  Screening settings (-IFTHRS, DIFDEN)   -7    F
      K-S energy, electrons, error :    -13.767479741417  20.0000227018    2.27D-05
@  4  -79.9923996354       1.29D-03  -1.72D-02     4   1   4   1
      Virial theorem: -V/T =      2.015020
@      MULPOP C   _1 -0.32; C   _2 -0.32; H   _1  0.08; H   _2  0.08; H   _3  0.08; H   _4  0.08; H   _1  0.08; H   _2  0.08; H   _1  0.08; H   _2  0.08; 
@
 -----------------------------------------------------------------------------
   5  Screening settings (-IFTHRS, DIFDEN)   -9    F
      K-S energy, electrons, error :    -13.767633173616  20.0000227001    2.27D-05
@  5  -79.9923996915       1.79D-04  -5.61D-08     4   1   4   1
      Virial theorem: -V/T =      2.015004
@      MULPOP C   _1 -0.32; C   _2 -0.32; H   _1  0.08; H   _2  0.08; H   _3  0.08; H   _4  0.08; H   _1  0.08; H   _2  0.08; H   _1  0.08; H   _2  0.08; 
@
 -----------------------------------------------------------------------------
   6  Screening settings (-IFTHRS, DIFDEN)  -10    F
      K-S energy, electrons, error :    -13.767635764228  20.0000226998    2.27D-05
@  6  -79.9923996952       7.96D-06  -3.78D-09     4   1   4   1
      Virial theorem: -V/T =      2.015004
@      MULPOP C   _1 -0.32; C   _2 -0.32; H   _1  0.08; H   _2  0.08; H   _3  0.08; H   _4  0.08; H   _1  0.08; H   _2  0.08; H   _1  0.08; H   _2  0.08; 
@
 -----------------------------------------------------------------------------
   7  Screening settings (-IFTHRS, DIFDEN)  -11    F
      K-S energy, electrons, error :    -13.767635983058  20.0000226998    2.27D-05
@  7  -79.9923996952       1.59D-07   9.46D-12     4   1   4   1

@ *** DIIS converged in   7 iterations !
@     Converged SCF energy, gradient:    -79.992399695225    1.59D-07
    - total time used in SIRFCK :              0.00 seconds


 *** SCF orbital energy analysis ***

 Only the five lowest virtual orbital energies printed in each symmetry.

 Number of electrons :   20
 Orbital occupations :    4    1    4    1

 Sym       Kohn-Sham orbital energies

  1     -9.73344705    -0.58892054    -0.31223335    -0.30523827     0.41309295
         0.41833688     0.43908106

  2     -0.30951139     0.40962366

  3     -9.73344880    -0.58446414    -0.30957026    -0.30304046     0.40971767
         0.41579997     0.46282655

  4     -0.30517790     0.41824308

    E(LUMO) :     0.40962366 au (symmetry 2)
  - E(HOMO) :    -0.30304046 au (symmetry 3)
  ------------------------------------------
    gap     :     0.71266412 au

 >>> Writing SIRIFC interface file <<<

 >>>> CPU and wall time for SCF :       2.383       2.400


                       .-----------------------------------.
                       | >>> Final results from SIRIUS <<< |
                       `-----------------------------------'


@    Spin multiplicity:           1
@    Spatial symmetry:            1
@    Total charge of molecule:    0

@    Final DFT energy:            -79.992399695225                 
@    Nuclear repulsion:            41.000263966492
@    Electronic energy:          -120.992663661718

@    Final gradient norm:           0.000000159273

 
     Date and time (Linux)  : Sun Sep  8 21:17:05 2013
     Host name              : lpqlx131.ups-tlse.fr                    

 (Only coefficients >0.0100 are printed.)

 Molecular orbitals for symmetry species  1
 ------------------------------------------

    Orbital         1        2        3        4        5        6
   1 C   :1s     0.7000  -0.1584  -0.0033  -0.0000  -0.0001   0.0005
   2 C   :1s     0.0342   0.4456   0.0121   0.0001   0.0010  -0.0031
   3 C   :2px   -0.0000  -0.0034   0.4076  -0.0002  -0.7765  -0.0023
   4 C   :2py   -0.0000  -0.0000   0.0002   0.4121   0.0023  -0.7752
   5 H   :1s    -0.0069   0.1271  -0.1207  -0.1712  -0.2494  -0.3557
   6 H   :1s    -0.0069   0.1271  -0.1203   0.3427  -0.2523   0.7130
   7 H   :1s    -0.0069   0.1241   0.3618  -0.0002   0.7500   0.0034

 Molecular orbitals for symmetry species  2
 ------------------------------------------

    Orbital         1        2
   1 C   :2pz    0.4064  -0.7777
   2 H   :1s     0.2979   0.6089

 Molecular orbitals for symmetry species  3
 ------------------------------------------

    Orbital         1        2        3        4        5        6
   1 C   :1s     0.7000  -0.1599  -0.0000   0.0033   0.0002   0.0053
   2 C   :1s     0.0343   0.4511   0.0001  -0.0121  -0.0012  -0.0333
   3 C   :2px    0.0000   0.0036   0.0002   0.4100   0.0008  -0.7776
   4 C   :2py   -0.0000  -0.0000   0.4064  -0.0002  -0.7778  -0.0008
   5 H   :1s    -0.0070   0.1255  -0.1720  -0.1222  -0.3507  -0.2370
   6 H   :1s    -0.0070   0.1255   0.3440  -0.1224   0.7039  -0.2357
   7 H   :1s    -0.0069   0.1289   0.0001   0.3668  -0.0004   0.7640

 Molecular orbitals for symmetry species  4
 ------------------------------------------

    Orbital         1        2
   1 C   :2pz    0.4122  -0.7751
   2 H   :1s     0.2967   0.6170



 >>>> Total CPU  time used in SIRIUS :      2.39 seconds
 >>>> Total wall time used in SIRIUS :      2.40 seconds

 
     Date and time (Linux)  : Sun Sep  8 21:17:05 2013
     Host name              : lpqlx131.ups-tlse.fr                    


                     .---------------------------------------.
                     | End of Wave Function Section (SIRIUS) |
                     `---------------------------------------'


     Order of analytical energy-derivatives available:   1
     This will be the default.

 Center of mass dipole origin  :    0.000000    0.000000    0.000000

 Center of mass gauge origin   :    0.000000    0.000000    0.000000


                 .------------------------------------------------.
                 | Starting in Static Property Section (ABACUS) - |
                 `------------------------------------------------'


 
     Date and time (Linux)  : Sun Sep  8 21:17:05 2013
     Host name              : lpqlx131.ups-tlse.fr                    


                      DFT-D Empirical Dispersion Correction
                      -------------------------------------

         Running DFT-D Ver.   :    2
                         Ref. :S. Grimme, J. Comput. Chem., 27 (2006), 1787-1799


                      DFT-D2 Functional Dependent Parameters
                      --------------------------------------

     s_6 =       1.200000000000    sr_6 =       1.100000000000
     s_8 =       0.000000000000     alp =      20.000000000000


                          +------------------------------+
                          ! Dispersion Energy Correction !
                          +------------------------------+

                       E_disp:         -0.003944033940


  Symmetry Coordinates
  --------------------

  Number of coordinates in each symmetry:     9    6    9    6

  Symmetry  Ag  ( 1)

    1   C     x    [  1  -    4 ]/2
    2   C     y    [  2  -    5 ]/2
    3   H     x    [  7  +   10  -   13  -   16 ]/4
    4   H     y    [  8  +   11  -   14  -   17 ]/4
    5   H     z    [  9  -   12  +   15  -   18 ]/4
    6   H     x    [ 19  -   22 ]/2
    7   H     y    [ 20  -   23 ]/2
    8   H     x    [ 25  -   28 ]/2
    9   H     y    [ 26  -   29 ]/2

  Symmetry  Au  ( 2)

   10   C     z    [  3  +    6 ]/2
   11   H     x    [  7  -   10  -   13  +   16 ]/4
   12   H     y    [  8  -   11  -   14  +   17 ]/4
   13   H     z    [  9  +   12  +   15  +   18 ]/4
   14   H     z    [ 21  +   24 ]/2
   15   H     z    [ 27  +   30 ]/2

  Symmetry  Bu  ( 3)

   16   C     x    [  1  +    4 ]/2
   17   C     y    [  2  +    5 ]/2
   18   H     x    [  7  +   10  +   13  +   16 ]/4
   19   H     y    [  8  +   11  +   14  +   17 ]/4
   20   H     z    [  9  -   12  -   15  +   18 ]/4
   21   H     x    [ 19  +   22 ]/2
   22   H     y    [ 20  +   23 ]/2
   23   H     x    [ 25  +   28 ]/2
   24   H     y    [ 26  +   29 ]/2

  Symmetry  Bg  ( 4)

   25   C     z    [  3  -    6 ]/2
   26   H     x    [  7  -   10  +   13  -   16 ]/4
   27   H     y    [  8  -   11  +   14  -   17 ]/4
   28   H     z    [  9  +   12  -   15  -   18 ]/4
   29   H     z    [ 21  -   24 ]/2
   30   H     z    [ 27  -   30 ]/2


   ***************************************************************************
   ************************ FINAL RESULTS from ABACUS ************************
   ***************************************************************************


 
     Date and time (Linux)  : Sun Sep  8 21:17:06 2013
     Host name              : lpqlx131.ups-tlse.fr                    


                             Molecular geometry (au)
                             -----------------------

 C   _1     3.5133051222            0.0000000000            0.0000000000
 C   _2    -3.5133051222           -0.0000000000            0.0000000000
 H   _1     2.8244722758           -0.9697555791            1.6791180381
 H   _2     2.8244722758           -0.9697555791           -1.6791180381
 H   _3    -2.8244722758            0.9697555791            1.6791180381
 H   _4    -2.8244722758            0.9697555791           -1.6791180381
 H   _1     2.8250371547            1.9392868937            0.0000000000
 H   _2    -2.8250371547           -1.9392868937            0.0000000000
 H   _1     5.5714492702           -0.0005877313            0.0000000000
 H   _2    -5.5714492702            0.0005877313            0.0000000000





                        Molecular wave function and energy
                        ----------------------------------

     Spin multiplicity  1     State number       1     Total charge       0

     Total energy        -79.9923996952 au (Hartrees)
                         -2176.70392198 eV
                           -210020.0130 kJ/mol


                             Relativistic corrections
                             ------------------------

     Darwin correction:                          0.0775849077 au
     Mass-velocity correction:                  -0.0978097492 au

     Total relativistic correction:             -0.0202248415 au (0.0253%)
     Non-relativistic + relativistic energy:   -80.0126245368 au




                             Molecular gradient (au)
                             -----------------------

                         C   x      0.0007178937
                         C   y      0.0000616333
                         H   x      0.0176026955
                         H   y      0.0247059827
                         H   z     -0.0430487822
                         H   x      0.0087901941
                         H   y     -0.0247569127
                         H   x     -0.0261988642
                         H   y     -0.0000111924



 C   _1     0.0003589469            0.0000308167            0.0000000000
 C   _2    -0.0003589469           -0.0000308167            0.0000000000
 H   _1     0.0044006739            0.0061764957           -0.0107621955
 H   _2     0.0044006739            0.0061764957            0.0107621955
 H   _3    -0.0044006739           -0.0061764957           -0.0107621955
 H   _4    -0.0044006739           -0.0061764957            0.0107621955
 H   _1     0.0043950971           -0.0123784563            0.0000000000
 H   _2    -0.0043950971            0.0123784563            0.0000000000
 H   _1    -0.0130994321           -0.0000055962            0.0000000000
 H   _2     0.0130994321            0.0000055962            0.0000000000





                                  Dipole moment
                                  -------------

                 au               Debye          C m (/(10**-30)
              0.000000           0.000000           0.000000


                             Dipole moment components
                             ------------------------

                    All dipole components are zero by symmetry


   Units:   1 a.u. =   2.54175 Debye 
            1 a.u. =   8.47835 (10**-30) C m (SI)




   Interatomic separations (in Angstrom):
   --------------------------------------

            C   _1      C   _2      H   _1      H   _2      H   _3      H   _4
            ------      ------      ------      ------      ------      ------
 C   _1:    0.000000
 C   _2:    3.718322    0.000000
 H   _1:    1.088917    3.507263    0.000000
 H   _2:    1.088917    3.507263    1.777102    0.000000
 H   _3:    3.507263    1.088917    3.160578    3.625927    0.000000
 H   _4:    3.507263    1.088917    3.625927    3.160578    1.777102    0.000000
 H   _1:    1.088942    3.507587    1.777434    1.777434    3.160760    3.160760
 H   _2:    3.507587    1.088942    3.160760    3.160760    1.777434    1.777434
 H   _1:    1.089123    4.807445    1.779217    1.779217    4.559914    4.559914
 H   _2:    4.807445    1.089123    4.559914    4.559914    1.779217    1.779217

            H   _1      H   _2      H   _1      H   _2
            ------      ------      ------      ------
 H   _1:    0.000000
 H   _2:    3.626570    0.000000
 H   _1:    1.779318    4.560130    0.000000
 H   _2:    4.560130    1.779318    5.896568    0.000000


  Max    interatomic separation is    5.8966 Angstrom (   11.1429 Bohr)
  between atoms   10 and    9, "H   _2" and "H   _1".

  Min HX interatomic separation is    1.0889 Angstrom (    2.0578 Bohr)

  Min YX interatomic separation is    3.7183 Angstrom (    7.0266 Bohr)


  Bond distances (Angstrom):
  --------------------------

                  atom 1     atom 2       distance
                  ------     ------       --------
  bond distance:  H   _1     C   _1       1.088917
  bond distance:  H   _2     C   _1       1.088917
  bond distance:  H   _3     C   _2       1.088917
  bond distance:  H   _4     C   _2       1.088917
  bond distance:  H   _1     C   _1       1.088942
  bond distance:  H   _2     C   _2       1.088942
  bond distance:  H   _1     C   _1       1.089123
  bond distance:  H   _2     C   _2       1.089123


  Bond angles (degrees):
  ----------------------

                  atom 1     atom 2     atom 3         angle
                  ------     ------     ------         -----
  bond angle:     H   _1     C   _1     H   _2       109.372
  bond angle:     H   _1     C   _1     H   _1       109.400
  bond angle:     H   _1     C   _1     H   _1       109.549
  bond angle:     H   _2     C   _1     H   _1       109.400
  bond angle:     H   _2     C   _1     H   _1       109.549
  bond angle:     H   _1     C   _1     H   _1       109.557
  bond angle:     H   _3     C   _2     H   _4       109.372
  bond angle:     H   _3     C   _2     H   _2       109.400
  bond angle:     H   _3     C   _2     H   _2       109.549
  bond angle:     H   _4     C   _2     H   _2       109.400
  bond angle:     H   _4     C   _2     H   _2       109.549
  bond angle:     H   _2     C   _2     H   _2       109.557




 CPU time statistics for ABACUS
 ------------------------------




 >>>> Total CPU  time used in ABACUS:   0.77 seconds
 >>>> Total wall time used in ABACUS:   0.77 seconds


                   .-------------------------------------------.
                   | End of Static Property Section (ABACUS) - |
                   `-------------------------------------------'



           :::::::::::::::::::::::::::::::::::::::::::::::::::::::::::
           ::::::::::::::: Optimization Control Center :::::::::::::::
           :::::::::::::::::::::::::::::::::::::::::::::::::::::::::::



                                Next geometry (au)
                                ------------------

 C   _1     3.2926019695           -0.0185984065            0.0000000000
 C   _2    -3.2926019695            0.0185984065            0.0000000000
 H   _1     2.6226676845           -1.0205943609            1.7013589179
 H   _2     2.6226676845           -1.0205943609           -1.7013589179
 H   _3    -2.6226676845            1.0205943609            1.7013589179
 H   _4    -2.6226676845            1.0205943609           -1.7013589179
 H   _1     2.5395756428            1.9263283824            0.0000000000
 H   _2    -2.5395756428           -1.9263283824            0.0000000000
 H   _1     5.3776771564            0.0401664738            0.0000000000
 H   _2    -5.3776771564           -0.0401664738            0.0000000000





                             Optimization information
                             ------------------------

 Iteration number               :       0
 End of optimization            :       F 
 Energy at this geometry is     :     -79.992400
 Norm of gradient               :       0.037174
 Norm of step                   :       0.500026
 Updated trust radius           :       0.500000
 Total Hessian index            :       0




 **************************************************************************************
 ****************** Output of molecule and basis set info suppressed ******************
 **************************************************************************************



                     .---------------------------------------.
                     | Starting in Integral Section (HERMIT) |
                     `---------------------------------------'



    *************************************************************************
    ****************** Output from HERMIT input processing ******************
    *************************************************************************

 >>>> Total CPU  time used in HERMIT:   0.00 seconds
 >>>> Total wall time used in HERMIT:   0.01 seconds


                        .----------------------------------.
                        | End of Integral Section (HERMIT) |
                        `----------------------------------'



                   .--------------------------------------------.
                   | Starting in Wave Function Section (SIRIUS) |
                   `--------------------------------------------'


 **********************************************************************
 *SIRIUS* a direct, restricted step, second order MCSCF program       *
 **********************************************************************

 (Wave function specification suppressed here, see output above for initial geometry.)


 >>>>> DIIS optimization of Hartree-Fock <<<<<

 C1-DIIS algorithm; max error vectors =   10


                      DFT-D Empirical Dispersion Correction
                      -------------------------------------

         Running DFT-D Ver.   :    2
                         Ref. :S. Grimme, J. Comput. Chem., 27 (2006), 1787-1799


                      DFT-D2 Functional Dependent Parameters
                      --------------------------------------

     s_6 =       1.200000000000    sr_6 =       1.100000000000
     s_8 =       0.000000000000     alp =      20.000000000000


                          +------------------------------+
                          ! Dispersion Energy Correction !
                          +------------------------------+

                       E_disp:         -0.005038294715

 Iter      Total energy        Error norm    Delta(E)  DIIS dim.
 -----------------------------------------------------------------------------
   1  Screening settings (-IFTHRS, DIFDEN)  -11    F
      K-S energy, electrons, error :    -13.742389518316  19.9999985411   -1.46D-06
@  1    -79.9938428945        5.58958D-02   -1.44D-03    1
      Virial theorem: -V/T =      2.016078
@      MULPOP C   _1 -0.32; C   _2 -0.32; H   _1  0.08; H   _2  0.08; H   _3  0.08; H   _4  0.08; H   _1  0.08; H   _2  0.08; H   _1  0.08; H   _2  0.08; 
@
 -----------------------------------------------------------------------------
   2  Screening settings (-IFTHRS, DIFDEN)   -8    F
      K-S energy, electrons, error :    -13.737688528893  19.9999984781   -1.52D-06
@  2    -79.9941820979        2.84119D-02   -3.39D-04    2
      Virial theorem: -V/T =      2.016362
@      MULPOP C   _1 -0.29; C   _2 -0.29; H   _1  0.07; H   _2  0.07; H   _3  0.07; H   _4  0.07; H   _1  0.07; H   _2  0.07; H   _1  0.07; H   _2  0.07; 
@
 -----------------------------------------------------------------------------
   3  Screening settings (-IFTHRS, DIFDEN)   -8    F
      K-S energy, electrons, error :    -13.742868315898  19.9999984805   -1.52D-06
@  3    -79.9942271335        1.49913D-02   -4.50D-05    3
      Virial theorem: -V/T =      2.015875
@      MULPOP C   _1 -0.31; C   _2 -0.31; H   _1  0.08; H   _2  0.08; H   _3  0.08; H   _4  0.08; H   _1  0.08; H   _2  0.08; H   _1  0.08; H   _2  0.08; 
@
 -----------------------------------------------------------------------------
   4  Screening settings (-IFTHRS, DIFDEN)   -8    F
      K-S energy, electrons, error :    -13.741065108034  19.9999984795   -1.52D-06
@  4    -79.9942443696        3.41118D-05   -1.72D-05    4
      Virial theorem: -V/T =      2.016046
@      MULPOP C   _1 -0.30; C   _2 -0.30; H   _1  0.08; H   _2  0.08; H   _3  0.08; H   _4  0.08; H   _1  0.08; H   _2  0.08; H   _1  0.07; H   _2  0.07; 
@
 -----------------------------------------------------------------------------
   5  Screening settings (-IFTHRS, DIFDEN)  -11    F
      K-S energy, electrons, error :    -13.741063764946  19.9999984795   -1.52D-06
@  5    -79.9942443718        9.88498D-06   -2.16D-09    5
      Virial theorem: -V/T =      2.016046
@      MULPOP C   _1 -0.30; C   _2 -0.30; H   _1  0.08; H   _2  0.08; H   _3  0.08; H   _4  0.08; H   _1  0.08; H   _2  0.08; H   _1  0.07; H   _2  0.07; 
@
 -----------------------------------------------------------------------------
   6  Screening settings (-IFTHRS, DIFDEN)  -11    F
      K-S energy, electrons, error :    -13.741063668195  19.9999984795   -1.52D-06
@  6    -79.9942443718        2.65175D-07   -1.22D-11    6

@ *** DIIS converged in   6 iterations !
@     Converged SCF energy, gradient:    -79.994244371778    2.65D-07
    - total time used in SIRFCK :              0.00 seconds


 *** SCF orbital energy analysis ***

 Only the five lowest virtual orbital energies printed in each symmetry.

 Number of electrons :   20
 Orbital occupations :    4    1    4    1

 Sym       Kohn-Sham orbital energies

  1     -9.73417456    -0.58439128    -0.31027809    -0.29921650     0.40024549
         0.40932111     0.41636566

  2     -0.30643941     0.39786968

  3     -9.73418063    -0.57714053    -0.30681722    -0.29589372     0.39612747
         0.40594308     0.44851146

  4     -0.29958238     0.40761810

    E(LUMO) :     0.39612747 au (symmetry 3)
  - E(HOMO) :    -0.29589372 au (symmetry 3)
  ------------------------------------------
    gap     :     0.69202120 au

 >>> Writing SIRIFC interface file <<<

 >>>> CPU and wall time for SCF :       2.068       2.589


                       .-----------------------------------.
                       | >>> Final results from SIRIUS <<< |
                       `-----------------------------------'


@    Spin multiplicity:           1
@    Spatial symmetry:            1
@    Total charge of molecule:    0

@    Final DFT energy:            -79.994244371778                 
@    Nuclear repulsion:            41.557923502211
@    Electronic energy:          -121.552167873989

@    Final gradient norm:           0.000000265175

 
     Date and time (Linux)  : Sun Sep  8 21:17:09 2013
     Host name              : lpqlx131.ups-tlse.fr                    



 >>>> Total CPU  time used in SIRIUS :      2.07 seconds
 >>>> Total wall time used in SIRIUS :      2.59 seconds

 
     Date and time (Linux)  : Sun Sep  8 21:17:09 2013
     Host name              : lpqlx131.ups-tlse.fr                    


                     .---------------------------------------.
                     | End of Wave Function Section (SIRIUS) |
                     `---------------------------------------'

 Trust radius increased due to good ratio.
 Updated trust radius   0.60003

     Order of analytical energy-derivatives available:   1
     This will be the default.

 Center of mass dipole origin  :    0.000000    0.000000    0.000000

 Center of mass gauge origin   :    0.000000    0.000000    0.000000


                 .------------------------------------------------.
                 | Starting in Static Property Section (ABACUS) - |
                 `------------------------------------------------'


 
     Date and time (Linux)  : Sun Sep  8 21:17:09 2013
     Host name              : lpqlx131.ups-tlse.fr                    


                      DFT-D Empirical Dispersion Correction
                      -------------------------------------

         Running DFT-D Ver.   :    2
                         Ref. :S. Grimme, J. Comput. Chem., 27 (2006), 1787-1799


                      DFT-D2 Functional Dependent Parameters
                      --------------------------------------

     s_6 =       1.200000000000    sr_6 =       1.100000000000
     s_8 =       0.000000000000     alp =      20.000000000000


                          +------------------------------+
                          ! Dispersion Energy Correction !
                          +------------------------------+

                       E_disp:         -0.005038294715


  Symmetry Coordinates
  --------------------

  Number of coordinates in each symmetry:     9    6    9    6

  Symmetry  Ag  ( 1)

    1   C     x    [  1  -    4 ]/2
    2   C     y    [  2  -    5 ]/2
    3   H     x    [  7  +   10  -   13  -   16 ]/4
    4   H     y    [  8  +   11  -   14  -   17 ]/4
    5   H     z    [  9  -   12  +   15  -   18 ]/4
    6   H     x    [ 19  -   22 ]/2
    7   H     y    [ 20  -   23 ]/2
    8   H     x    [ 25  -   28 ]/2
    9   H     y    [ 26  -   29 ]/2

  Symmetry  Au  ( 2)

   10   C     z    [  3  +    6 ]/2
   11   H     x    [  7  -   10  -   13  +   16 ]/4
   12   H     y    [  8  -   11  -   14  +   17 ]/4
   13   H     z    [  9  +   12  +   15  +   18 ]/4
   14   H     z    [ 21  +   24 ]/2
   15   H     z    [ 27  +   30 ]/2

  Symmetry  Bu  ( 3)

   16   C     x    [  1  +    4 ]/2
   17   C     y    [  2  +    5 ]/2
   18   H     x    [  7  +   10  +   13  +   16 ]/4
   19   H     y    [  8  +   11  +   14  +   17 ]/4
   20   H     z    [  9  -   12  -   15  +   18 ]/4
   21   H     x    [ 19  +   22 ]/2
   22   H     y    [ 20  +   23 ]/2
   23   H     x    [ 25  +   28 ]/2
   24   H     y    [ 26  +   29 ]/2

  Symmetry  Bg  ( 4)

   25   C     z    [  3  -    6 ]/2
   26   H     x    [  7  -   10  +   13  -   16 ]/4
   27   H     y    [  8  -   11  +   14  -   17 ]/4
   28   H     z    [  9  +   12  -   15  -   18 ]/4
   29   H     z    [ 21  -   24 ]/2
   30   H     z    [ 27  -   30 ]/2


   ***************************************************************************
   ************************ FINAL RESULTS from ABACUS ************************
   ***************************************************************************


 
     Date and time (Linux)  : Sun Sep  8 21:17:10 2013
     Host name              : lpqlx131.ups-tlse.fr                    


 CPU time statistics for ABACUS
 ------------------------------

 REST       00:00:02     279 %



 >>>> Total CPU  time used in ABACUS:   0.86 seconds
 >>>> Total wall time used in ABACUS:   0.86 seconds


                   .-------------------------------------------.
                   | End of Static Property Section (ABACUS) - |
                   `-------------------------------------------'



           :::::::::::::::::::::::::::::::::::::::::::::::::::::::::::
           ::::::::::::::: Optimization Control Center :::::::::::::::
           :::::::::::::::::::::::::::::::::::::::::::::::::::::::::::



                                Next geometry (au)
                                ------------------

 C   _1     3.0091263906           -0.0698587468            0.0000000000
 C   _2    -3.0091263906            0.0698587468            0.0000000000
 H   _1     2.4120142258           -1.1234853571            1.7057740559
 H   _2     2.4120142258           -1.1234853571           -1.7057740559
 H   _3    -2.4120142258            1.1234853571            1.7057740559
 H   _4    -2.4120142258            1.1234853571           -1.7057740559
 H   _1     2.1070585506            1.8215358124            0.0000000000
 H   _2    -2.1070585506           -1.8215358124            0.0000000000
 H   _1     5.0950564127            0.1452936783            0.0000000000
 H   _2    -5.0950564127           -0.1452936783            0.0000000000





                             Optimization information
                             ------------------------

 Iteration number               :       1
 End of optimization            :       F 
 Energy at this geometry is     :     -79.994244
 Energy change from last geom.  :      -0.001845
 Norm of gradient               :       0.005895
 Norm of step                   :       0.611392
 Updated trust radius           :       0.600032
 Total Hessian index            :       0




 **************************************************************************************
 ****************** Output of molecule and basis set info suppressed ******************
 **************************************************************************************



                     .---------------------------------------.
                     | Starting in Integral Section (HERMIT) |
                     `---------------------------------------'



    *************************************************************************
    ****************** Output from HERMIT input processing ******************
    *************************************************************************

 >>>> Total CPU  time used in HERMIT:   0.00 seconds
 >>>> Total wall time used in HERMIT:   0.00 seconds


                        .----------------------------------.
                        | End of Integral Section (HERMIT) |
                        `----------------------------------'



                   .--------------------------------------------.
                   | Starting in Wave Function Section (SIRIUS) |
                   `--------------------------------------------'


 **********************************************************************
 *SIRIUS* a direct, restricted step, second order MCSCF program       *
 **********************************************************************

 (Wave function specification suppressed here, see output above for initial geometry.)


 >>>>> DIIS optimization of Hartree-Fock <<<<<

 C1-DIIS algorithm; max error vectors =   10


                      DFT-D Empirical Dispersion Correction
                      -------------------------------------

         Running DFT-D Ver.   :    2
                         Ref. :S. Grimme, J. Comput. Chem., 27 (2006), 1787-1799


                      DFT-D2 Functional Dependent Parameters
                      --------------------------------------

     s_6 =       1.200000000000    sr_6 =       1.100000000000
     s_8 =       0.000000000000     alp =      20.000000000000


                          +------------------------------+
                          ! Dispersion Energy Correction !
                          +------------------------------+

                       E_disp:         -0.006808098259

 Iter      Total energy        Error norm    Delta(E)  DIIS dim.
 -----------------------------------------------------------------------------
   1  Screening settings (-IFTHRS, DIFDEN)  -11    F
      K-S energy, electrons, error :    -13.736479137723  20.0000011016    1.10D-06
@  1    -79.9916918005        1.10760D-01    2.55D-03    1
      Virial theorem: -V/T =      2.016123
@      MULPOP C   _1 -0.30; C   _2 -0.30; H   _1  0.08; H   _2  0.08; H   _3  0.08; H   _4  0.08; H   _1  0.08; H   _2  0.08; H   _1  0.07; H   _2  0.07; 
@
 -----------------------------------------------------------------------------
   2  Screening settings (-IFTHRS, DIFDEN)   -7    F
      K-S energy, electrons, error :    -13.734057467566  20.0000009882    9.88D-07
@  2    -79.9938389450        1.19178D-02   -2.15D-03    2
      Virial theorem: -V/T =      2.016339
@      MULPOP C   _1 -0.29; C   _2 -0.29; H   _1  0.07; H   _2  0.07; H   _3  0.07; H   _4  0.07; H   _1  0.07; H   _2  0.07; H   _1  0.07; H   _2  0.07; 
@
 -----------------------------------------------------------------------------
   3  Screening settings (-IFTHRS, DIFDEN)   -8    F
      K-S energy, electrons, error :    -13.737002742185  20.0000009785    9.79D-07
@  3    -79.9938373175        1.28309D-02    1.63D-06    3
      Virial theorem: -V/T =      2.016061
@      MULPOP C   _1 -0.30; C   _2 -0.30; H   _1  0.08; H   _2  0.08; H   _3  0.08; H   _4  0.08; H   _1  0.08; H   _2  0.08; H   _1  0.07; H   _2  0.07; 
@
 -----------------------------------------------------------------------------
   4  Screening settings (-IFTHRS, DIFDEN)   -8    F
      K-S energy, electrons, error :    -13.735468007157  20.0000009830    9.83D-07
@  4    -79.9938499859        1.08286D-04   -1.27D-05    4
      Virial theorem: -V/T =      2.016206
@      MULPOP C   _1 -0.30; C   _2 -0.30; H   _1  0.07; H   _2  0.07; H   _3  0.07; H   _4  0.07; H   _1  0.08; H   _2  0.08; H   _1  0.07; H   _2  0.07; 
@
 -----------------------------------------------------------------------------
   5  Screening settings (-IFTHRS, DIFDEN)  -10    F
      K-S energy, electrons, error :    -13.735469477393  20.0000009831    9.83D-07
@  5    -79.9938499718        5.20801D-06    1.41D-08    5
      Virial theorem: -V/T =      2.016206
@      MULPOP C   _1 -0.30; C   _2 -0.30; H   _1  0.07; H   _2  0.07; H   _3  0.07; H   _4  0.07; H   _1  0.08; H   _2  0.08; H   _1  0.07; H   _2  0.07; 
@
 -----------------------------------------------------------------------------
   6  Screening settings (-IFTHRS, DIFDEN)  -11    F
      K-S energy, electrons, error :    -13.735469290475  20.0000009831    9.83D-07
@  6    -79.9938499718        7.47817D-07   -7.70D-12    6

@ *** DIIS converged in   6 iterations !
@     Converged SCF energy, gradient:    -79.993849971822    7.48D-07
    - total time used in SIRFCK :              0.00 seconds


 *** SCF orbital energy analysis ***

 Only the five lowest virtual orbital energies printed in each symmetry.

 Number of electrons :   20
 Orbital occupations :    4    1    4    1

 Sym       Kohn-Sham orbital energies

  1     -9.73373892    -0.58543491    -0.31345319    -0.29373404     0.39331927
         0.40373240     0.41369585

  2     -0.30700867     0.39633811

  3     -9.73376208    -0.57205301    -0.30917287    -0.28818643     0.38697697
         0.40595292     0.45162557

  4     -0.29599555     0.40348568

    E(LUMO) :     0.38697697 au (symmetry 3)
  - E(HOMO) :    -0.28818643 au (symmetry 3)
  ------------------------------------------
    gap     :     0.67516341 au

 >>> Writing SIRIFC interface file <<<

 >>>> CPU and wall time for SCF :       2.075       2.089


                       .-----------------------------------.
                       | >>> Final results from SIRIUS <<< |
                       `-----------------------------------'


@    Spin multiplicity:           1
@    Spatial symmetry:            1
@    Total charge of molecule:    0

@    Final DFT energy:            -79.993849971822                 
@    Nuclear repulsion:            42.816106206355
@    Electronic energy:          -122.809956178177

@    Final gradient norm:           0.000000747817

 
     Date and time (Linux)  : Sun Sep  8 21:17:12 2013
     Host name              : lpqlx131.ups-tlse.fr                    



 >>>> Total CPU  time used in SIRIUS :      2.08 seconds
 >>>> Total wall time used in SIRIUS :      2.09 seconds

 
     Date and time (Linux)  : Sun Sep  8 21:17:12 2013
     Host name              : lpqlx131.ups-tlse.fr                    


                     .---------------------------------------.
                     | End of Wave Function Section (SIRIUS) |
                     `---------------------------------------'


 Step rejected because ratio between
        actual energy change :    0.00039440
 and predicted energy change :   -0.00013395
                          is :         -2.94
 Minimum for quadratic model :     0.202557
 Norm of new step            :     0.123842


 **************************************************************************************
 ****************** Output of molecule and basis set info suppressed ******************
 **************************************************************************************



                     .---------------------------------------.
                     | Starting in Integral Section (HERMIT) |
                     `---------------------------------------'



    *************************************************************************
    ****************** Output from HERMIT input processing ******************
    *************************************************************************

 >>>> Total CPU  time used in HERMIT:   0.00 seconds
 >>>> Total wall time used in HERMIT:   0.00 seconds


                        .----------------------------------.
                        | End of Integral Section (HERMIT) |
                        `----------------------------------'



                   .--------------------------------------------.
                   | Starting in Wave Function Section (SIRIUS) |
                   `--------------------------------------------'


 **********************************************************************
 *SIRIUS* a direct, restricted step, second order MCSCF program       *
 **********************************************************************

 (Wave function specification suppressed here, see output above for initial geometry.)


 >>>>> DIIS optimization of Hartree-Fock <<<<<

 C1-DIIS algorithm; max error vectors =   10


                      DFT-D Empirical Dispersion Correction
                      -------------------------------------

         Running DFT-D Ver.   :    2
                         Ref. :S. Grimme, J. Comput. Chem., 27 (2006), 1787-1799


                      DFT-D2 Functional Dependent Parameters
                      --------------------------------------

     s_6 =       1.200000000000    sr_6 =       1.100000000000
     s_8 =       0.000000000000     alp =      20.000000000000


                          +------------------------------+
                          ! Dispersion Energy Correction !
                          +------------------------------+

                       E_disp:         -0.005315722985

 Iter      Total energy        Error norm    Delta(E)  DIIS dim.
 -----------------------------------------------------------------------------
   1  Screening settings (-IFTHRS, DIFDEN)  -11    F
      K-S energy, electrons, error :    -13.739719301983  19.9999971204   -2.88D-06
@  1    -79.9928920116        8.86924D-02    9.58D-04    1
      Virial theorem: -V/T =      2.016030
@      MULPOP C   _1 -0.30; C   _2 -0.30; H   _1  0.07; H   _2  0.07; H   _3  0.07; H   _4  0.07; H   _1  0.08; H   _2  0.08; H   _1  0.07; H   _2  0.07; 
@
 -----------------------------------------------------------------------------
   2  Screening settings (-IFTHRS, DIFDEN)   -8    F
      K-S energy, electrons, error :    -13.741393790709  19.9999971553   -2.84D-06
@  2    -79.9942596603        9.34187D-03   -1.37D-03    2
      Virial theorem: -V/T =      2.015967
@      MULPOP C   _1 -0.31; C   _2 -0.31; H   _1  0.08; H   _2  0.08; H   _3  0.08; H   _4  0.08; H   _1  0.08; H   _2  0.08; H   _1  0.08; H   _2  0.08; 
@
 -----------------------------------------------------------------------------
   3  Screening settings (-IFTHRS, DIFDEN)   -9    F
      K-S energy, electrons, error :    -13.739090686645  19.9999971467   -2.85D-06
@  3    -79.9942587825        9.96384D-03    8.78D-07    3
      Virial theorem: -V/T =      2.016183
@      MULPOP C   _1 -0.30; C   _2 -0.30; H   _1  0.07; H   _2  0.07; H   _3  0.07; H   _4  0.07; H   _1  0.07; H   _2  0.07; H   _1  0.07; H   _2  0.07; 
@
 -----------------------------------------------------------------------------
   4  Screening settings (-IFTHRS, DIFDEN)   -9    F
      K-S energy, electrons, error :    -13.740283014243  19.9999971515   -2.85D-06
@  4    -79.9942664150        8.69737D-05   -7.63D-06    4
      Virial theorem: -V/T =      2.016071
@      MULPOP C   _1 -0.30; C   _2 -0.30; H   _1  0.08; H   _2  0.08; H   _3  0.08; H   _4  0.08; H   _1  0.08; H   _2  0.08; H   _1  0.07; H   _2  0.07; 
@
 -----------------------------------------------------------------------------
   5  Screening settings (-IFTHRS, DIFDEN)  -11    F
      K-S energy, electrons, error :    -13.740282029892  19.9999971514   -2.85D-06
@  5    -79.9942664156        5.09085D-06   -6.30D-10    5
      Virial theorem: -V/T =      2.016071
@      MULPOP C   _1 -0.30; C   _2 -0.30; H   _1  0.08; H   _2  0.08; H   _3  0.08; H   _4  0.08; H   _1  0.08; H   _2  0.08; H   _1  0.07; H   _2  0.07; 
@
 -----------------------------------------------------------------------------
   6  Screening settings (-IFTHRS, DIFDEN)  -11    F
      K-S energy, electrons, error :    -13.740282278258  19.9999971514   -2.85D-06
@  6    -79.9942664156        5.35487D-07   -2.77D-12    6

@ *** DIIS converged in   6 iterations !
@     Converged SCF energy, gradient:    -79.994266415630    5.35D-07
    - total time used in SIRFCK :              0.00 seconds


 *** SCF orbital energy analysis ***

 Only the five lowest virtual orbital energies printed in each symmetry.

 Number of electrons :   20
 Orbital occupations :    4    1    4    1

 Sym       Kohn-Sham orbital energies

  1     -9.73410791    -0.58457976    -0.31085674    -0.29836815     0.39929096
         0.40983735     0.41464563

  2     -0.30657161     0.39760943

  3     -9.73411620    -0.57638281    -0.30718262    -0.29473506     0.39474749
         0.40607108     0.44934082

  4     -0.29902183     0.40708294

    E(LUMO) :     0.39474749 au (symmetry 3)
  - E(HOMO) :    -0.29473506 au (symmetry 3)
  ------------------------------------------
    gap     :     0.68948255 au

 >>> Writing SIRIFC interface file <<<

 >>>> CPU and wall time for SCF :       2.065       2.077


                       .-----------------------------------.
                       | >>> Final results from SIRIUS <<< |
                       `-----------------------------------'


@    Spin multiplicity:           1
@    Spatial symmetry:            1
@    Total charge of molecule:    0

@    Final DFT energy:            -79.994266415630                 
@    Nuclear repulsion:            41.802041825159
@    Electronic energy:          -121.796308240790

@    Final gradient norm:           0.000000535487

 
     Date and time (Linux)  : Sun Sep  8 21:17:14 2013
     Host name              : lpqlx131.ups-tlse.fr                    



 >>>> Total CPU  time used in SIRIUS :      2.07 seconds
 >>>> Total wall time used in SIRIUS :      2.08 seconds

 
     Date and time (Linux)  : Sun Sep  8 21:17:14 2013
     Host name              : lpqlx131.ups-tlse.fr                    


                     .---------------------------------------.
                     | End of Wave Function Section (SIRIUS) |
                     `---------------------------------------'


Acceptable step has been found.

     Order of analytical energy-derivatives available:   1
     This will be the default.

 Center of mass dipole origin  :    0.000000    0.000000    0.000000

 Center of mass gauge origin   :    0.000000    0.000000    0.000000


                 .------------------------------------------------.
                 | Starting in Static Property Section (ABACUS) - |
                 `------------------------------------------------'


 
     Date and time (Linux)  : Sun Sep  8 21:17:14 2013
     Host name              : lpqlx131.ups-tlse.fr                    


                      DFT-D Empirical Dispersion Correction
                      -------------------------------------

         Running DFT-D Ver.   :    2
                         Ref. :S. Grimme, J. Comput. Chem., 27 (2006), 1787-1799


                      DFT-D2 Functional Dependent Parameters
                      --------------------------------------

     s_6 =       1.200000000000    sr_6 =       1.100000000000
     s_8 =       0.000000000000     alp =      20.000000000000


                          +------------------------------+
                          ! Dispersion Energy Correction !
                          +------------------------------+

                       E_disp:         -0.005315722985


  Symmetry Coordinates
  --------------------

  Number of coordinates in each symmetry:     9    6    9    6

  Symmetry  Ag  ( 1)

    1   C     x    [  1  -    4 ]/2
    2   C     y    [  2  -    5 ]/2
    3   H     x    [  7  +   10  -   13  -   16 ]/4
    4   H     y    [  8  +   11  -   14  -   17 ]/4
    5   H     z    [  9  -   12  +   15  -   18 ]/4
    6   H     x    [ 19  -   22 ]/2
    7   H     y    [ 20  -   23 ]/2
    8   H     x    [ 25  -   28 ]/2
    9   H     y    [ 26  -   29 ]/2

  Symmetry  Au  ( 2)

   10   C     z    [  3  +    6 ]/2
   11   H     x    [  7  -   10  -   13  +   16 ]/4
   12   H     y    [  8  -   11  -   14  +   17 ]/4
   13   H     z    [  9  +   12  +   15  +   18 ]/4
   14   H     z    [ 21  +   24 ]/2
   15   H     z    [ 27  +   30 ]/2

  Symmetry  Bu  ( 3)

   16   C     x    [  1  +    4 ]/2
   17   C     y    [  2  +    5 ]/2
   18   H     x    [  7  +   10  +   13  +   16 ]/4
   19   H     y    [  8  +   11  +   14  +   17 ]/4
   20   H     z    [  9  -   12  -   15  +   18 ]/4
   21   H     x    [ 19  +   22 ]/2
   22   H     y    [ 20  +   23 ]/2
   23   H     x    [ 25  +   28 ]/2
   24   H     y    [ 26  +   29 ]/2

  Symmetry  Bg  ( 4)

   25   C     z    [  3  -    6 ]/2
   26   H     x    [  7  -   10  +   13  -   16 ]/4
   27   H     y    [  8  -   11  +   14  -   17 ]/4
   28   H     z    [  9  +   12  -   15  -   18 ]/4
   29   H     z    [ 21  -   24 ]/2
   30   H     z    [ 27  -   30 ]/2


   ***************************************************************************
   ************************ FINAL RESULTS from ABACUS ************************
   ***************************************************************************


 
     Date and time (Linux)  : Sun Sep  8 21:17:15 2013
     Host name              : lpqlx131.ups-tlse.fr                    


 CPU time statistics for ABACUS
 ------------------------------

 REST       00:00:02     200 %



[...]
      Virial theorem: -V/T =      2.016223
@      MULPOP C   _1 -0.30; C   _2 -0.30; H   _1  0.07; H   _2  0.07; H   _3  0.07; H   _4  0.07; H   _1  0.08; H   _2  0.08; H   _1  0.07; H   _2  0.07; 
@
 -----------------------------------------------------------------------------
   3  Screening settings (-IFTHRS, DIFDEN)  -10    F
      K-S energy, electrons, error :    -13.736201738872  20.0000008441    8.44D-07
@  3    -79.9943055333        5.39838D-05   -3.16D-09    3
      Virial theorem: -V/T =      2.016226
@      MULPOP C   _1 -0.30; C   _2 -0.30; H   _1  0.07; H   _2  0.07; H   _3  0.07; H   _4  0.07; H   _1  0.08; H   _2  0.08; H   _1  0.07; H   _2  0.07; 
@
 -----------------------------------------------------------------------------
   4  Screening settings (-IFTHRS, DIFDEN)  -11    F
      K-S energy, electrons, error :    -13.736208265168  20.0000008441    8.44D-07
@  4    -79.9943055335        7.49744D-07   -2.37D-10    4

@ *** DIIS converged in   4 iterations !
@     Converged SCF energy, gradient:    -79.994305533532    7.50D-07
    - total time used in SIRFCK :              0.00 seconds


 *** SCF orbital energy analysis ***

 Only the five lowest virtual orbital energies printed in each symmetry.

 Number of electrons :   20
 Orbital occupations :    4    1    4    1

 Sym       Kohn-Sham orbital energies

  1     -9.73430319    -0.58374151    -0.31049384    -0.29736440     0.39770813
         0.40929797     0.41311004

  2     -0.30551715     0.39752218

  3     -9.73430781    -0.57559375    -0.30679957    -0.29406626     0.39088732
         0.40409062     0.44631929

  4     -0.29899830     0.40335190

    E(LUMO) :     0.39088732 au (symmetry 3)
  - E(HOMO) :    -0.29406626 au (symmetry 3)
  ------------------------------------------
    gap     :     0.68495358 au

 >>> Writing SIRIFC interface file <<<

 >>>> CPU and wall time for SCF :       1.408       1.417


                       .-----------------------------------.
                       | >>> Final results from SIRIUS <<< |
                       `-----------------------------------'


@    Spin multiplicity:           1
@    Spatial symmetry:            1
@    Total charge of molecule:    0

@    Final DFT energy:            -79.994305533532                 
@    Nuclear repulsion:            41.704606494636
@    Electronic energy:          -121.698912028168

@    Final gradient norm:           0.000000749744

 
     Date and time (Linux)  : Sun Sep  8 21:17:55 2013
     Host name              : lpqlx131.ups-tlse.fr                    



 >>>> Total CPU  time used in SIRIUS :      1.41 seconds
 >>>> Total wall time used in SIRIUS :      1.42 seconds

 
     Date and time (Linux)  : Sun Sep  8 21:17:55 2013
     Host name              : lpqlx131.ups-tlse.fr                    


                     .---------------------------------------.
                     | End of Wave Function Section (SIRIUS) |
                     `---------------------------------------'

 Trust radius increased due to good ratio.
 Updated trust radius   0.08561

     Order of analytical energy-derivatives available:   1
     This will be the default.

 Center of mass dipole origin  :    0.000000    0.000000    0.000000

 Center of mass gauge origin   :    0.000000    0.000000    0.000000


                 .------------------------------------------------.
                 | Starting in Static Property Section (ABACUS) - |
                 `------------------------------------------------'


 
     Date and time (Linux)  : Sun Sep  8 21:17:55 2013
     Host name              : lpqlx131.ups-tlse.fr                    


                      DFT-D Empirical Dispersion Correction
                      -------------------------------------

         Running DFT-D Ver.   :    2
                         Ref. :S. Grimme, J. Comput. Chem., 27 (2006), 1787-1799


                      DFT-D2 Functional Dependent Parameters
                      --------------------------------------

     s_6 =       1.200000000000    sr_6 =       1.100000000000
     s_8 =       0.000000000000     alp =      20.000000000000


                          +------------------------------+
                          ! Dispersion Energy Correction !
                          +------------------------------+

                       E_disp:         -0.005360363254


  Symmetry Coordinates
  --------------------

  Number of coordinates in each symmetry:     9    6    9    6

  Symmetry  Ag  ( 1)

    1   C     x    [  1  -    4 ]/2
    2   C     y    [  2  -    5 ]/2
    3   H     x    [  7  +   10  -   13  -   16 ]/4
    4   H     y    [  8  +   11  -   14  -   17 ]/4
    5   H     z    [  9  -   12  +   15  -   18 ]/4
    6   H     x    [ 19  -   22 ]/2
    7   H     y    [ 20  -   23 ]/2
    8   H     x    [ 25  -   28 ]/2
    9   H     y    [ 26  -   29 ]/2

  Symmetry  Au  ( 2)

   10   C     z    [  3  +    6 ]/2
   11   H     x    [  7  -   10  -   13  +   16 ]/4
   12   H     y    [  8  -   11  -   14  +   17 ]/4
   13   H     z    [  9  +   12  +   15  +   18 ]/4
   14   H     z    [ 21  +   24 ]/2
   15   H     z    [ 27  +   30 ]/2

  Symmetry  Bu  ( 3)

   16   C     x    [  1  +    4 ]/2
   17   C     y    [  2  +    5 ]/2
   18   H     x    [  7  +   10  +   13  +   16 ]/4
   19   H     y    [  8  +   11  +   14  +   17 ]/4
   20   H     z    [  9  -   12  -   15  +   18 ]/4
   21   H     x    [ 19  +   22 ]/2
   22   H     y    [ 20  +   23 ]/2
   23   H     x    [ 25  +   28 ]/2
   24   H     y    [ 26  +   29 ]/2

  Symmetry  Bg  ( 4)

   25   C     z    [  3  -    6 ]/2
   26   H     x    [  7  -   10  +   13  -   16 ]/4
   27   H     y    [  8  -   11  +   14  -   17 ]/4
   28   H     z    [  9  +   12  -   15  -   18 ]/4
   29   H     z    [ 21  -   24 ]/2
   30   H     z    [ 27  -   30 ]/2


   ***************************************************************************
   ************************ FINAL RESULTS from ABACUS ************************
   ***************************************************************************


 
     Date and time (Linux)  : Sun Sep  8 21:17:56 2013
     Host name              : lpqlx131.ups-tlse.fr                    


 CPU time statistics for ABACUS
 ------------------------------

 REST       00:00:02     200 %



 >>>> Total CPU  time used in ABACUS:   0.86 seconds
 >>>> Total wall time used in ABACUS:   0.95 seconds


                   .-------------------------------------------.
                   | End of Static Property Section (ABACUS) - |
                   `-------------------------------------------'



           :::::::::::::::::::::::::::::::::::::::::::::::::::::::::::
           ::::::::::::::: Optimization Control Center :::::::::::::::
           :::::::::::::::::::::::::::::::::::::::::::::::::::::::::::



                               Final geometry (au)
                               -------------------

 C   _1     3.2456424355           -0.0777001685            0.0000000000
 C   _2    -3.2456424355            0.0777001685            0.0000000000
 H   _1     2.6589164758           -1.1337634611            1.7062341080
 H   _2     2.6589164758           -1.1337634611           -1.7062341080
 H   _3    -2.6589164758            1.1337634611            1.7062341080
 H   _4    -2.6589164758            1.1337634611           -1.7062341080
 H   _1     2.3301093343            1.8014467171            0.0000000000
 H   _2    -2.3301093343           -1.8014467171            0.0000000000
 H   _1     5.3242381697            0.1536944550            0.0000000000
 H   _2    -5.3242381697           -0.1536944550            0.0000000000





                             Optimization information
                             ------------------------

 Iteration number               :      12
 End of optimization            :       T 
 Energy at this geometry is     :     -79.994306
 Energy change from last geom.  :      -0.000000
 Norm of gradient               :       0.000076
 Norm of step                   :       0.001261
 Updated trust radius           :       0.085607
 Total Hessian index            :       0



 Center of mass dipole origin  :    0.000000    0.000000    0.000000

 Center of mass gauge origin   :    0.000000    0.000000    0.000000


                 .------------------------------------------------.
                 | Starting in Static Property Section (ABACUS) - |
                 `------------------------------------------------'


 
     Date and time (Linux)  : Sun Sep  8 21:17:56 2013
     Host name              : lpqlx131.ups-tlse.fr                    


   ***************************************************************************
   ************************ FINAL RESULTS from ABACUS ************************
   ***************************************************************************


 
     Date and time (Linux)  : Sun Sep  8 21:17:56 2013
     Host name              : lpqlx131.ups-tlse.fr                    


                             Molecular geometry (au)
                             -----------------------

 C   _1     3.2456424355           -0.0777001685            0.0000000000
 C   _2    -3.2456424355            0.0777001685            0.0000000000
 H   _1     2.6589164758           -1.1337634611            1.7062341080
 H   _2     2.6589164758           -1.1337634611           -1.7062341080
 H   _3    -2.6589164758            1.1337634611            1.7062341080
 H   _4    -2.6589164758            1.1337634611           -1.7062341080
 H   _1     2.3301093343            1.8014467171            0.0000000000
 H   _2    -2.3301093343           -1.8014467171            0.0000000000
 H   _1     5.3242381697            0.1536944550            0.0000000000
 H   _2    -5.3242381697           -0.1536944550            0.0000000000





                        Molecular wave function and energy
                        ----------------------------------

     Spin multiplicity  1     State number       1     Total charge       0

     Total energy        -79.9943055335 au (Hartrees)
                         -2176.75578248 eV
                           -210025.0168 kJ/mol


                             Relativistic corrections
                             ------------------------

     Darwin correction:                          0.0775868049 au
     Mass-velocity correction:                  -0.0978081724 au

     Total relativistic correction:             -0.0202213675 au (0.0253%)
     Non-relativistic + relativistic energy:   -80.0145269010 au




                                  Dipole moment
                                  -------------

                 au               Debye          C m (/(10**-30)
              0.000000           0.000000           0.000000


                             Dipole moment components
                             ------------------------

                    All dipole components are zero by symmetry


   Units:   1 a.u. =   2.54175 Debye 
            1 a.u. =   8.47835 (10**-30) C m (SI)




   Interatomic separations (in Angstrom):
   --------------------------------------

            C   _1      C   _2      H   _1      H   _2      H   _3      H   _4
            ------      ------      ------      ------      ------      ------
 C   _1:    0.000000
 C   _2:    3.436024    0.000000
 H   _1:    1.106316    3.314977    0.000000
 H   _2:    1.106316    3.314977    1.805800    0.000000
 H   _3:    3.314977    1.106316    3.059222    3.552430    0.000000
 H   _4:    3.314977    1.106316    3.552430    3.059222    1.805800    0.000000
 H   _1:    1.106144    3.088342    1.805015    1.805015    2.812487    2.812487
 H   _2:    3.088342    1.106144    2.812487    2.812487    1.805015    1.805015
 H   _1:    1.106740    4.535164    1.807953    1.807953    4.350935    4.350935
 H   _2:    4.535164    1.106740    4.350935    4.350935    1.807953    1.807953

            H   _1      H   _2      H   _1      H   _2
            ------      ------      ------      ------
 H   _1:    0.000000
 H   _2:    3.117140    0.000000
 H   _1:    1.808509    4.180554    0.000000
 H   _2:    4.180554    1.808509    5.637278    0.000000


  Max    interatomic separation is    5.6373 Angstrom (   10.6529 Bohr)
  between atoms   10 and    9, "H   _2" and "H   _1".

  Min HX interatomic separation is    1.1061 Angstrom (    2.0903 Bohr)

  Min YX interatomic separation is    3.4360 Angstrom (    6.4931 Bohr)


  Bond distances (Angstrom):
  --------------------------

                  atom 1     atom 2       distance
                  ------     ------       --------
  bond distance:  H   _1     C   _1       1.106316
  bond distance:  H   _2     C   _1       1.106316
  bond distance:  H   _3     C   _2       1.106316
  bond distance:  H   _4     C   _2       1.106316
  bond distance:  H   _1     C   _1       1.106144
  bond distance:  H   _2     C   _2       1.106144
  bond distance:  H   _1     C   _1       1.106740
  bond distance:  H   _2     C   _2       1.106740


  Bond angles (degrees):
  ----------------------

                  atom 1     atom 2     atom 3         angle
                  ------     ------     ------         -----
  bond angle:     H   _1     C   _1     H   _2       109.399
  bond angle:     H   _1     C   _1     H   _1       109.341
  bond angle:     H   _1     C   _1     H   _1       109.561
  bond angle:     H   _2     C   _1     H   _1       109.341
  bond angle:     H   _2     C   _1     H   _1       109.561
  bond angle:     H   _1     C   _1     H   _1       109.623
  bond angle:     H   _3     C   _2     H   _4       109.399
  bond angle:     H   _3     C   _2     H   _2       109.341
  bond angle:     H   _3     C   _2     H   _2       109.561
  bond angle:     H   _4     C   _2     H   _2       109.341
  bond angle:     H   _4     C   _2     H   _2       109.561
  bond angle:     H   _2     C   _2     H   _2       109.623




 CPU time statistics for ABACUS
 ------------------------------




 >>>> Total CPU  time used in ABACUS:   0.00 seconds
 >>>> Total wall time used in ABACUS:   0.01 seconds


                   .-------------------------------------------.
                   | End of Static Property Section (ABACUS) - |
                   `-------------------------------------------'



          <<<<<<<<<<<<<<<<<<<<<<<<<<<<<<<<<<<<<<<<<<<<<<<<<<<<<<<<<<<<<<
          <<<<<<<<<<<<<<<<<<<<  End of Optimization <<<<<<<<<<<<<<<<<<<<
          <<<<<<<<<<<<<<<<<<<<<<<<<<<<<<<<<<<<<<<<<<<<<<<<<<<<<<<<<<<<<<



                                  Final geometry
                                  --------------

 C   _1     3.2456424355           -0.0777001685            0.0000000000
 C   _2    -3.2456424355            0.0777001685            0.0000000000
 H   _1     2.6589164758           -1.1337634611            1.7062341080
 H   _2     2.6589164758           -1.1337634611           -1.7062341080
 H   _3    -2.6589164758            1.1337634611            1.7062341080
 H   _4    -2.6589164758            1.1337634611           -1.7062341080
 H   _1     2.3301093343            1.8014467171            0.0000000000
 H   _2    -2.3301093343           -1.8014467171            0.0000000000
 H   _1     5.3242381697            0.1536944550            0.0000000000
 H   _2    -5.3242381697           -0.1536944550            0.0000000000



@ Iter      Energy        Change       GradNorm  Index   StepLen    TrustRad #Rej
@ -------------------------------------------------------------------------------
@   0      -79.992400     0.000000     0.037174    0    0.500026    0.500000   0 
@   1      -79.994244    -0.001845     0.005895    0    0.123842*   0.600032   1 
@   2      -79.994266    -0.000022     0.004594    0    0.054160*   0.123842   1 
@   3      -79.994272    -0.000005     0.004499    0    0.091247    0.054160   1 
@   4      -79.994282    -0.000011     0.003658    1    0.020152*   0.091247   2 
@   5      -79.994294    -0.000012     0.002258    0    0.026052    0.020152   0 
@   6      -79.994296    -0.000001     0.001456    0    0.024647    0.018237   0 
@   7      -79.994298    -0.000002     0.000470    0    0.048114    0.024647   0 
@   8      -79.994300    -0.000001     0.000507    0    0.004274*   0.048114   3 
@   9      -79.994300    -0.000000     0.000304    0    0.071339    0.004274   0 
@  10      -79.994305    -0.000005     0.000573    0    0.006313*   0.085607   0 
@  11      -79.994305    -0.000001     0.000218    0    0.001562*   0.085607   0 
@  12      -79.994306    -0.000000     0.000076    0    0.001261*   0.085607   0 

@  *) Newton step taken.


   Interatomic separations (in Angstrom):
   --------------------------------------

            C   _1      C   _2      H   _1      H   _2      H   _3      H   _4
            ------      ------      ------      ------      ------      ------
 C   _1:    0.000000
 C   _2:    3.436024    0.000000
 H   _1:    1.106316    3.314977    0.000000
 H   _2:    1.106316    3.314977    1.805800    0.000000
 H   _3:    3.314977    1.106316    3.059222    3.552430    0.000000
 H   _4:    3.314977    1.106316    3.552430    3.059222    1.805800    0.000000
 H   _1:    1.106144    3.088342    1.805015    1.805015    2.812487    2.812487
 H   _2:    3.088342    1.106144    2.812487    2.812487    1.805015    1.805015
 H   _1:    1.106740    4.535164    1.807953    1.807953    4.350935    4.350935
 H   _2:    4.535164    1.106740    4.350935    4.350935    1.807953    1.807953

            H   _1      H   _2      H   _1      H   _2
            ------      ------      ------      ------
 H   _1:    0.000000
 H   _2:    3.117140    0.000000
 H   _1:    1.808509    4.180554    0.000000
 H   _2:    4.180554    1.808509    5.637278    0.000000


  Max    interatomic separation is    5.6373 Angstrom (   10.6529 Bohr)
  between atoms   10 and    9, "H   _2" and "H   _1".

  Min HX interatomic separation is    1.1061 Angstrom (    2.0903 Bohr)

  Min YX interatomic separation is    3.4360 Angstrom (    6.4931 Bohr)


  Bond distances (Angstrom):
  --------------------------

                  atom 1     atom 2       distance
                  ------     ------       --------
  bond distance:  H   _1     C   _1       1.106316
  bond distance:  H   _2     C   _1       1.106316
  bond distance:  H   _3     C   _2       1.106316
  bond distance:  H   _4     C   _2       1.106316
  bond distance:  H   _1     C   _1       1.106144
  bond distance:  H   _2     C   _2       1.106144
  bond distance:  H   _1     C   _1       1.106740
  bond distance:  H   _2     C   _2       1.106740


  Bond angles (degrees):
  ----------------------

                  atom 1     atom 2     atom 3         angle
                  ------     ------     ------         -----
  bond angle:     H   _1     C   _1     H   _2       109.399
  bond angle:     H   _1     C   _1     H   _1       109.341
  bond angle:     H   _1     C   _1     H   _1       109.561
  bond angle:     H   _2     C   _1     H   _1       109.341
  bond angle:     H   _2     C   _1     H   _1       109.561
  bond angle:     H   _1     C   _1     H   _1       109.623
  bond angle:     H   _3     C   _2     H   _4       109.399
  bond angle:     H   _3     C   _2     H   _2       109.341
  bond angle:     H   _3     C   _2     H   _2       109.561
  bond angle:     H   _4     C   _2     H   _2       109.341
  bond angle:     H   _4     C   _2     H   _2       109.561
  bond angle:     H   _2     C   _2     H   _2       109.623



@ Geometry converged in 13 iterations!

@ Energy at final geometry is       :     -79.994306 a.u.
@ Energy change during optimization :      -0.001906 a.u.
@                                             -5.004 kJ/mol

 >>>> Total CPU  time used in DALTON:  51.50 seconds
 >>>> Total wall time used in DALTON:  52.95 seconds

 
     Date and time (Linux)  : Sun Sep  8 21:17:56 2013
     Host name              : lpqlx131.ups-tlse.fr                    
