

     ************************************************************************
     *************** Dalton - An Electronic Structure Program ***************
     ************************************************************************

    This is output from DALTON (Release Dalton2013 patch 0)
   ----------------------------------------------------------------------------
    NOTE:
     
    Dalton is an experimental code for the evaluation of molecular
    properties using (MC)SCF, DFT, CI, and CC wave functions.
    The authors accept no responsibility for the performance of
    the code or for the correctness of the results.
     
    The code (in whole or part) is provided under a licence and
    is not to be reproduced for further distribution without
    the written permission of the authors or their representatives.
     
    See the home page "http://daltonprogram.org" for further information.
     
    If results obtained with this code are published,
    the appropriate citations would be both of:
     
       K. Aidas, C. Angeli, K. L. Bak, V. Bakken, R. Bast,
       L. Boman, O. Christiansen, R. Cimiraglia, S. Coriani,
       P. Dahle, E. K. Dalskov, U. Ekstroem, T. Enevoldsen,
       J. J. Eriksen, P. Ettenhuber, B. Fernandez, L. Ferrighi,
       H. Fliegl, L. Frediani, K. Hald, A. Halkier, C. Haettig,
       H. Heiberg, T. Helgaker, A. C. Hennum, H. Hettema,
       E. Hjertenaes, S. Hoest, I.-M. Hoeyvik, M. F. Iozzi,
       B. Jansik, H. J. Aa. Jensen, D. Jonsson, P. Joergensen,
       J. Kauczor, S. Kirpekar, T. Kjaergaard, W. Klopper,
       S. Knecht, R. Kobayashi, H. Koch, J. Kongsted, A. Krapp,
       K. Kristensen, A. Ligabue, O. B. Lutnaes, J. I. Melo,
       K. V. Mikkelsen, R. H. Myhre, C. Neiss, C. B. Nielsen,
       P. Norman, J. Olsen, J. M. H. Olsen, A. Osted,
       M. J. Packer, F. Pawlowski, T. B. Pedersen, P. F. Provasi,
       S. Reine, Z. Rinkevicius, T. A. Ruden, K. Ruud, V. Rybkin,
       P. Salek, C. C. M. Samson, A. Sanchez de Meras, T. Saue,
       S. P. A. Sauer, B. Schimmelpfennig, K. Sneskov,
       A. H. Steindal, K. O. Sylvester-Hvid, P. R. Taylor,
       A. M. Teale, E. I. Tellgren, D. P. Tew, A. J. Thorvaldsen,
       L. Thoegersen, O. Vahtras, M. A. Watson, D. J. D. Wilson,
       M. Ziolkowski and H. Aagren.
       The Dalton quantum chemistry program system.
       WIREs Comput. Mol. Sci. 2013. doi: 10.1002/wcms.1172
    
    and
    
       Dalton, a Molecular Electronic Structure Program,
       Release DALTON2013.0 (2013), see http://daltonprogram.org
   ----------------------------------------------------------------------------

    Authors in alphabetical order (major contribution(s) in parenthesis):

  Kestutis Aidas,           Vilnius University,           Lithuania   (QM/MM)
  Celestino Angeli,         University of Ferrara,        Italy       (NEVPT2)
  Keld L. Bak,              UNI-C,                        Denmark     (AOSOPPA, non-adiabatic coupling, magnetic properties)
  Vebjoern Bakken,          University of Oslo,           Norway      (DALTON; geometry optimizer, symmetry detection)
  Radovan Bast,             KTH Stockholm                 Sweden      (DALTON installation and execution frameworks)
  Linus Boman,              NTNU,                         Norway      (Cholesky decomposition and subsystems)
  Ove Christiansen,         Aarhus University,            Denmark     (CC module)
  Renzo Cimiraglia,         University of Ferrara,        Italy       (NEVPT2)
  Sonia Coriani,            University of Trieste,        Italy       (CC module, MCD in RESPONS)
  Paal Dahle,               University of Oslo,           Norway      (Parallelization)
  Erik K. Dalskov,          UNI-C,                        Denmark     (SOPPA)
  Thomas Enevoldsen,        Univ. of Southern Denmark,    Denmark     (SOPPA)
  Janus J. Eriksen,         Aarhus University,            Denmark     (PE-MP2/SOPPA, TDA)
  Berta Fernandez,          U. of Santiago de Compostela, Spain       (doublet spin, ESR in RESPONS)
  Lara Ferrighi,            Aarhus University,            Denmark     (PCM Cubic response)
  Heike Fliegl,             University of Oslo,           Norway      (CCSD(R12))
  Luca Frediani,            UiT The Arctic U. of Norway,  Norway      (PCM)
  Bin Gao,                  UiT The Arctic U. of Norway,  Norway      (Gen1Int library)
  Christof Haettig,         Ruhr-University Bochum,       Germany     (CC module)
  Kasper Hald,              Aarhus University,            Denmark     (CC module)
  Asger Halkier,            Aarhus University,            Denmark     (CC module)
  Hanne Heiberg,            University of Oslo,           Norway      (geometry analysis, selected one-electron integrals)
  Trygve Helgaker,          University of Oslo,           Norway      (DALTON; ABACUS, ERI, DFT modules, London, and much more)
  Alf Christian Hennum,     University of Oslo,           Norway      (Parity violation)
  Hinne Hettema,            University of Auckland,       New Zealand (quadratic response in RESPONS; SIRIUS supersymmetry)
  Eirik Hjertenaes,         NTNU,                         Norway      (Cholesky decomposition)
  Maria Francesca Iozzi,    University of Oslo,           Norway      (RPA)
  Brano Jansik              Technical Univ. of Ostrava    Czech Rep.  (DFT cubic response)
  Hans Joergen Aa. Jensen,  Univ. of Southern Denmark,    Denmark     (DALTON; SIRIUS, RESPONS, ABACUS modules, London, and much more)
  Dan Jonsson,              UiT The Arctic U. of Norway,  Norway      (cubic response in RESPONS module)
  Poul Joergensen,          Aarhus University,            Denmark     (RESPONS, ABACUS, and CC modules)
  Joanna Kauczor,           Linkoeping University,        Sweden      (Complex polarization propagator (CPP) module)
  Sheela Kirpekar,          Univ. of Southern Denmark,    Denmark     (Mass-velocity & Darwin integrals)
  Wim Klopper,              KIT Karlsruhe,                Germany     (R12 code in CC, SIRIUS, and ABACUS modules)
  Stefan Knecht,            ETH Zurich,                   Switzerland (Parallel CI and MCSCF)
  Rika Kobayashi,           Australian National Univ.,    Australia   (DIIS in CC, London in MCSCF)
  Henrik Koch,              NTNU,                         Norway      (CC module, Cholesky decomposition)
  Jacob Kongsted,           Univ. of Southern Denmark,    Denmark     (Polarizable embedding, QM/MM)
  Andrea Ligabue,           University of Modena,         Italy       (CTOCD, AOSOPPA)
  Ola B. Lutnaes,           University of Oslo,           Norway      (DFT Hessian)
  Juan I. Melo,             University of Buenos Aires,   Argentina   (LRESC, Relativistic Effects on NMR Shieldings)
  Kurt V. Mikkelsen,        University of Copenhagen,     Denmark     (MC-SCRF and QM/MM)
  Rolf H. Myhre,            NTNU,                         Norway      (Cholesky, subsystems and ECC2)
  Christian Neiss,          Univ. Erlangen-Nuernberg,     Germany     (CCSD(R12))
  Christian B. Nielsen,     University of Copenhagen,     Denmark     (QM/MM)
  Patrick Norman,           Linkoeping University,        Sweden      (Cubic response and complex response in RESPONS)
  Jeppe Olsen,              Aarhus University,            Denmark     (SIRIUS CI/density modules)
  Jogvan Magnus H. Olsen,   Univ. of Southern Denmark,    Denmark     (Polarizable embedding, PE library, QM/MM)
  Anders Osted,             Copenhagen University,        Denmark     (QM/MM)
  Martin J. Packer,         University of Sheffield,      UK          (SOPPA)
  Filip Pawlowski,          Kazimierz Wielki University   Poland      (CC3)
  Thomas B. Pedersen,       University of Oslo,           Norway      (Cholesky decomposition)
  Patricio F. Provasi,      University of Northeastern,   Argentina   (Analysis of coupling constants in localized orbitals)
  Zilvinas Rinkevicius,     KTH Stockholm,                Sweden      (open-shell DFT, ESR)
  Elias Rudberg,            KTH Stockholm,                Sweden      (DFT grid and basis info)
  Torgeir A. Ruden,         University of Oslo,           Norway      (Numerical derivatives in ABACUS)
  Kenneth Ruud,             UiT The Arctic U. of Norway,  Norway      (DALTON; ABACUS magnetic properties and  much more)
  Pawel Salek,              KTH Stockholm,                Sweden      (DALTON; DFT code)
  Claire C. M. Samson       University of Karlsruhe       Germany     (Boys localization, r12 integrals in ERI)
  Alfredo Sanchez de Meras, University of Valencia,       Spain       (CC module, Cholesky decomposition)
  Trond Saue,               Paul Sabatier University,     France      (direct Fock matrix construction)
  Stephan P. A. Sauer,      University of Copenhagen,     Denmark     (SOPPA(CCSD), SOPPA prop., AOSOPPA, vibrational g-factors)
  Bernd Schimmelpfennig,    Forschungszentrum Karlsruhe,  Germany     (AMFI module)
  Kristian Sneskov,         Aarhus University,            Denmark     (QM/MM, PE-CC)
  Arnfinn H. Steindal,      UiT The Arctic U. of Norway,  Norway      (parallel QM/MM)
  K. O. Sylvester-Hvid,     University of Copenhagen,     Denmark     (MC-SCRF)
  Peter R. Taylor,          VLSCI/Univ. of Melbourne,     Australia   (Symmetry handling ABACUS, integral transformation)
  Andrew M. Teale,          University of Nottingham,     England     (DFT-AC, DFT-D)
  David P. Tew,             University of Bristol,        England     (CCSD(R12))
  Olav Vahtras,             KTH Stockholm,                Sweden      (triplet response, spin-orbit, ESR, TDDFT, open-shell DFT)
  David J. Wilson,          La Trobe University,          Australia   (DFT Hessian and DFT magnetizabilities)
  Hans Agren,               KTH Stockholm,                Sweden      (SIRIUS module, RESPONS, MC-SCRF solvation model)
 --------------------------------------------------------------------------------

     Date and time (Linux)  : Sun Sep  8 21:17:57 2013
     Host name              : lpqlx131.ups-tlse.fr                    

 * Work memory size             :    64000000 =  488.28 megabytes.

 * Directories for basis set searches:
   1) /home/bast/DALTON-2013.0-Source/build/test_dft_disp_d3
   2) /home/bast/DALTON-2013.0-Source/build/basis


Compilation information
-----------------------

 Who compiled             | bast
 Host                     | lpqlx131.ups-tlse.fr
 System                   | Linux-3.8.5-201.fc18.x86_64
 CMake generator          | Unix Makefiles
 Processor                | x86_64
 64-bit integers          | OFF
 MPI                      | OFF
 Fortran compiler         | /usr/bin/gfortran
 Fortran compiler version | GNU Fortran (GCC) 4.7.2 20121109 (Red Hat 4.7.2-8)
 C compiler               | /usr/bin/gcc
 C compiler version       | gcc (GCC) 4.7.2 20121109 (Red Hat 4.7.2-8)
 C++ compiler             | /usr/bin/g++
 C++ compiler version     | g++ (GCC) 4.7.2 20121109 (Red Hat 4.7.2-8)
 Static linking           | OFF
 Last Git revision        | f34203295a86316e27f9e7b44f9b6769c4a046c0
 Configuration time       | 2013-09-08 20:31:27.952056


   Content of the .dal input file
 ----------------------------------

**DALTON INPUT                                    
.RUN WAVEFUNCTION                                 
.DIRECT                                           
.OPTIMIZE                                         
**WAVE FUNCTIONS                                  
.DFT                                              
 BLYP                                             
*DFT INPUT                                        
.DFTD3                                            
.GRID TYPE                                        
BECKE                                             
*SCF INPUT                                        
.THRESH                                           
 1.0D-06                                          
**END OF INPUT                                    


   Content of the .mol file
 ----------------------------

BASIS                                                                          
STO-3G                                                                         
CH4 Dimer                                                                      
----------                                                                     
Atomtypes=2 Angstrom                                                           
Atoms=2  Charge=6.0                                                            
C   0.000000  -0.000140   1.859161                                             
C   0.000000   0.000140  -1.859161                                             
Atoms=8  Charge=1.0                                                            
H  -0.888551   0.513060   1.494685                                             
H   0.888551   0.513060   1.494685                                             
H   0.000000  -1.026339   1.494868                                             
H   0.000000   0.000089   2.948284                                             
H   0.000000  -0.000089  -2.948284                                             
H  -0.888551  -0.513060  -1.494685                                             
H   0.888551  -0.513060  -1.494685                                             
H   0.000000   1.026339  -1.494868                                             


       *******************************************************************
       *********** Output from DALTON general input processing ***********
       *******************************************************************

 --------------------------------------------------------------------------------
   Overall default print level:    0
   Print level for DALTON.STAT:    1

    AO-direct calculation (in sections where implemented)
    HERMIT 1- and 2-electron integral sections will be executed
    "Old" integral transformation used (limited to max 255 basis functions)
    Wave function sections will be executed (SIRIUS module)
 --------------------------------------------------------------------------------


 Chosen parameters for *OPTIMI :
 -------------------------------

 Default 1st order method will be used:   BFGS update.
 Optimization will be performed in redundant internal coordinates.
 Model Hessian will be used as initial Hessian.
 The model Hessian parameters of Roland Lindh will be used.


 Trust region method will be used to control step (default).



              >>>>>>>>>>>>>>>>>>>>>>>>>>>>>>>>>>>>>>>>>>>>>>>>>>>>>
              >>>>>>>>>> 1st Order Geometry Optimization >>>>>>>>>>
              >>>>>>>>>>>>>>>>>>>>>>>>>>>>>>>>>>>>>>>>>>>>>>>>>>>>>

 Reading .mol file to determine number of atoms for parallel runs.


                      SYMADD: Requested addition of symmetry
                      --------------------------------------

 Symmetry test threshold:  5.00E-06

 - molecule centered at center of mass and rotated so
   principal axes of inertia are along coordinate axes.

 Symmetry class found: C(2h)          

 The following elements were found:   Z  XY    


   ****************************************************************************
   *************** Output of molecule and basis set information ***************
   ****************************************************************************


    The two title cards from your ".mol" input:
    ------------------------------------------------------------------------
 1: CH4 Dimer                                                               
 2: ----------                                                              
    ------------------------------------------------------------------------

  Coordinates are entered in Angstrom and converted to atomic units.
          - Conversion factor : 1 bohr = 0.52917721 A

  Atomic type no.    1
  --------------------
  Nuclear charge:   6.00000
  Number of symmetry independent centers:    2
  Number of basis sets to read;    2
  Basis set file used for this atomic type with Z =   6 :
     "/home/bast/DALTON-2013.0-Source/build/basis/STO-3G"

  Atomic type no.    2
  --------------------
  Nuclear charge:   1.00000
  Number of symmetry independent centers:    8
  Number of basis sets to read;    2
  Basis set file used for this atomic type with Z =   1 :
     "/home/bast/DALTON-2013.0-Source/build/basis/STO-3G"


                      SYMADD: Requested addition of symmetry
                      --------------------------------------

 Symmetry test threshold:  5.00E-06

 - molecule centered at center of mass and rotated so
   principal axes of inertia are along coordinate axes.

 Symmetry class found: C(2h)          

 Symmetry Independent Centres             
 ----------------------------
       6 :      3.51330512     0.00000000     0.00000000  Isotope  1
       1 :      2.82447228    -0.96975558     1.67911804  Isotope  1
       1 :      2.82503715     1.93928689     0.00000000  Isotope  1
       1 :      5.57144927    -0.00058773     0.00000000  Isotope  1

 The following elements were found:   Z  XY    


                         SYMGRP: Point group information
                         -------------------------------

Full point group is: C(2h)          
Represented as:      C2h

   * The point group was generated by:

      Reflection in the xy-plane
      Rotation about the z-axis

   * Group multiplication table

        |  E   C2z   i   Oxy
   -----+--------------------
     E  |  E   C2z   i   Oxy
    C2z | C2z   E   Oxy   i 
     i  |  i   Oxy   E   C2z
    Oxy | Oxy   i   C2z   E 

   * Character table

        |  E   C2z   i   Oxy
   -----+--------------------
    Ag  |   1    1    1    1
    Au  |   1    1   -1   -1
    Bu  |   1   -1   -1    1
    Bg  |   1   -1    1   -1

   * Direct product table

        | Ag   Au   Bu   Bg 
   -----+--------------------
    Ag  | Ag   Au   Bu   Bg 
    Au  | Au   Ag   Bg   Bu 
    Bu  | Bu   Bg   Ag   Au 
    Bg  | Bg   Bu   Au   Ag 


                                 Isotopic Masses
                                 ---------------

                           C   _1     12.000000
                           C   _2     12.000000
                           H   _1      1.007825
                           H   _2      1.007825
                           H   _3      1.007825
                           H   _4      1.007825
                           H   _1      1.007825
                           H   _2      1.007825
                           H   _1      1.007825
                           H   _2      1.007825

                       Total mass:    32.062600 amu
                       Natural abundance:  97.695 %

 Center-of-mass coordinates (a.u.):    0.000000    0.000000    0.000000


  Atoms and basis sets
  --------------------

  Number of atom types :    2
  Total number of atoms:   10

  Basis set used is "STO-3G" from the basis set library.

  label    atoms   charge   prim   cont     basis
  ----------------------------------------------------------------------
  C           2    6.0000    15     5      [6s3p|2s1p]                                        
  H           8    1.0000     3     1      [3s|1s]                                            
  ----------------------------------------------------------------------
  total:     10   20.0000    54    18
  ----------------------------------------------------------------------

  Threshold for neglecting AO integrals:  1.00D-12


  Cartesian Coordinates (a.u.)
  ----------------------------

  Total number of coordinates:   30
  C   / 1 :     1  x   3.5133051222    2  y   0.0000000000    3  z   0.0000000000
  C   / 2 :     4  x  -3.5133051222    5  y  -0.0000000000    6  z   0.0000000000
  H   / 1 :     7  x   2.8244722758    8  y  -0.9697555791    9  z   1.6791180381
  H   / 2 :    10  x   2.8244722758   11  y  -0.9697555791   12  z  -1.6791180381
  H   / 3 :    13  x  -2.8244722758   14  y   0.9697555791   15  z   1.6791180381
  H   / 4 :    16  x  -2.8244722758   17  y   0.9697555791   18  z  -1.6791180381
  H   / 1 :    19  x   2.8250371547   20  y   1.9392868937   21  z   0.0000000000
  H   / 2 :    22  x  -2.8250371547   23  y  -1.9392868937   24  z   0.0000000000
  H   / 1 :    25  x   5.5714492702   26  y  -0.0005877313   27  z   0.0000000000
  H   / 2 :    28  x  -5.5714492702   29  y   0.0005877313   30  z   0.0000000000


  Symmetry Coordinates
  --------------------

  Number of coordinates in each symmetry:     9    6    9    6

  Symmetry  Ag  ( 1)

    1   C     x    [  1  -    4 ]/2
    2   C     y    [  2  -    5 ]/2
    3   H     x    [  7  +   10  -   13  -   16 ]/4
    4   H     y    [  8  +   11  -   14  -   17 ]/4
    5   H     z    [  9  -   12  +   15  -   18 ]/4
    6   H     x    [ 19  -   22 ]/2
    7   H     y    [ 20  -   23 ]/2
    8   H     x    [ 25  -   28 ]/2
    9   H     y    [ 26  -   29 ]/2

  Symmetry  Au  ( 2)

   10   C     z    [  3  +    6 ]/2
   11   H     x    [  7  -   10  -   13  +   16 ]/4
   12   H     y    [  8  -   11  -   14  +   17 ]/4
   13   H     z    [  9  +   12  +   15  +   18 ]/4
   14   H     z    [ 21  +   24 ]/2
   15   H     z    [ 27  +   30 ]/2

  Symmetry  Bu  ( 3)

   16   C     x    [  1  +    4 ]/2
   17   C     y    [  2  +    5 ]/2
   18   H     x    [  7  +   10  +   13  +   16 ]/4
   19   H     y    [  8  +   11  +   14  +   17 ]/4
   20   H     z    [  9  -   12  -   15  +   18 ]/4
   21   H     x    [ 19  +   22 ]/2
   22   H     y    [ 20  +   23 ]/2
   23   H     x    [ 25  +   28 ]/2
   24   H     y    [ 26  +   29 ]/2

  Symmetry  Bg  ( 4)

   25   C     z    [  3  -    6 ]/2
   26   H     x    [  7  -   10  +   13  -   16 ]/4
   27   H     y    [  8  -   11  +   14  -   17 ]/4
   28   H     z    [  9  +   12  -   15  -   18 ]/4
   29   H     z    [ 21  -   24 ]/2
   30   H     z    [ 27  -   30 ]/2


   Interatomic separations (in Angstrom):
   --------------------------------------

            C   _1      C   _2      H   _1      H   _2      H   _3      H   _4
            ------      ------      ------      ------      ------      ------
 C   _1:    0.000000
 C   _2:    3.718322    0.000000
 H   _1:    1.088917    3.507263    0.000000
 H   _2:    1.088917    3.507263    1.777102    0.000000
 H   _3:    3.507263    1.088917    3.160578    3.625927    0.000000
 H   _4:    3.507263    1.088917    3.625927    3.160578    1.777102    0.000000
 H   _1:    1.088942    3.507587    1.777434    1.777434    3.160760    3.160760
 H   _2:    3.507587    1.088942    3.160760    3.160760    1.777434    1.777434
 H   _1:    1.089123    4.807445    1.779217    1.779217    4.559914    4.559914
 H   _2:    4.807445    1.089123    4.559914    4.559914    1.779217    1.779217

            H   _1      H   _2      H   _1      H   _2
            ------      ------      ------      ------
 H   _1:    0.000000
 H   _2:    3.626570    0.000000
 H   _1:    1.779318    4.560130    0.000000
 H   _2:    4.560130    1.779318    5.896568    0.000000


  Max    interatomic separation is    5.8966 Angstrom (   11.1429 Bohr)
  between atoms   10 and    9, "H   _2" and "H   _1".

  Min HX interatomic separation is    1.0889 Angstrom (    2.0578 Bohr)

  Min YX interatomic separation is    3.7183 Angstrom (    7.0266 Bohr)


  Bond distances (Angstrom):
  --------------------------

                  atom 1     atom 2       distance
                  ------     ------       --------
  bond distance:  H   _1     C   _1       1.088917
  bond distance:  H   _2     C   _1       1.088917
  bond distance:  H   _3     C   _2       1.088917
  bond distance:  H   _4     C   _2       1.088917
  bond distance:  H   _1     C   _1       1.088942
  bond distance:  H   _2     C   _2       1.088942
  bond distance:  H   _1     C   _1       1.089123
  bond distance:  H   _2     C   _2       1.089123


  Bond angles (degrees):
  ----------------------

                  atom 1     atom 2     atom 3         angle
                  ------     ------     ------         -----
  bond angle:     H   _1     C   _1     H   _2       109.372
  bond angle:     H   _1     C   _1     H   _1       109.400
  bond angle:     H   _1     C   _1     H   _1       109.549
  bond angle:     H   _2     C   _1     H   _1       109.400
  bond angle:     H   _2     C   _1     H   _1       109.549
  bond angle:     H   _1     C   _1     H   _1       109.557
  bond angle:     H   _3     C   _2     H   _4       109.372
  bond angle:     H   _3     C   _2     H   _2       109.400
  bond angle:     H   _3     C   _2     H   _2       109.549
  bond angle:     H   _4     C   _2     H   _2       109.400
  bond angle:     H   _4     C   _2     H   _2       109.549
  bond angle:     H   _2     C   _2     H   _2       109.557




 Principal moments of inertia (u*A**2) and principal axes
 --------------------------------------------------------

   IA       6.367194          1.000000   -0.000014    0.000000
   IB     117.169600          0.000014    1.000000    0.000000
   IC     117.171187          0.000000    0.000000    1.000000


 Rotational constants
 --------------------

               A                   B                   C

          79372.3300           4313.2263           4313.1679 MHz
            2.647576            0.143874            0.143872 cm-1


@  Nuclear repulsion energy :   41.000263966492 Hartree


  Symmetry Orbitals
  -----------------

  Number of orbitals in each symmetry:           7    2    7    2


  Symmetry  Ag ( 1)

    1     C        1s         1 +    2
    2     C        1s         3 +    4
    3     C        2px        5 -    6
    4     C        2py        7 -    8
    5     H        1s        11 +   12 +   13 +   14
    6     H        1s        15 +   16
    7     H        1s        17 +   18


  Symmetry  Au ( 2)

    8     C        2pz        9 +   10
    9     H        1s        11 -   12 +   13 -   14


  Symmetry  Bu ( 3)

   10     C        1s         1 -    2
   11     C        1s         3 -    4
   12     C        2px        5 +    6
   13     C        2py        7 +    8
   14     H        1s        11 +   12 -   13 -   14
   15     H        1s        15 -   16
   16     H        1s        17 -   18


  Symmetry  Bg ( 4)

   17     C        2pz        9 -   10
   18     H        1s        11 -   12 -   13 +   14

  Symmetries of electric field:  Bu (3)  Bu (3)  Au (2)

  Symmetries of magnetic field:  Bg (4)  Bg (4)  Ag (1)


                     .---------------------------------------.
                     | Starting in Integral Section (HERMIT) |
                     `---------------------------------------'



    *************************************************************************
    ****************** Output from HERMIT input processing ******************
    *************************************************************************



     ************************************************************************
     ************************** Output from HERINT **************************
     ************************************************************************

 >>>> Total CPU  time used in HERMIT:   0.01 seconds
 >>>> Total wall time used in HERMIT:   0.01 seconds


                        .----------------------------------.
                        | End of Integral Section (HERMIT) |
                        `----------------------------------'



                   .--------------------------------------------.
                   | Starting in Wave Function Section (SIRIUS) |
                   `--------------------------------------------'



 Settings for DFT calculation:
 -----------------------------

     Default thresholds:                                       1.00D-09    1.00D-10    2.00D-12
     Default threshold for number of electrons:                1.00D-03
     DFT radial quadrature accuracy and ang. expansion order:              1.00D-13  35

 *** Output from Huckel module :

     Using EWMO model:          F
     Using EHT  model:          T
     Number of Huckel orbitals each symmetry:    7    2    7    2

 Huckel EHT eigenvalues for symmetry :  1
          -11.382326      -1.263513      -0.636550      -0.594308      -0.228049
           -0.204960      -0.204409

 Huckel EHT eigenvalues for symmetry :  2
           -0.624217      -0.203374

 Huckel EHT eigenvalues for symmetry :  3
          -11.380254      -1.192708      -0.624288      -0.579063      -0.221188
           -0.203352      -0.201174

 Huckel EHT eigenvalues for symmetry :  4
           -0.594237      -0.204430

 **********************************************************************
 *SIRIUS* a direct, restricted step, second order MCSCF program       *
 **********************************************************************

 
     Date and time (Linux)  : Sun Sep  8 21:17:57 2013
     Host name              : lpqlx131.ups-tlse.fr                    

 Title lines from ".mol" input file:
     CH4 Dimer                                                               
     ----------                                                              

 Print level on unit LUPRI =   2 is   0
 Print level on unit LUW4  =   2 is   5

@    Restricted, closed shell Kohn-Sham DFT calculation.
 Fock matrices are calculated directly without use of integrals on disk.

 Initial molecular orbitals are obtained according to
 ".MOSTART EHT   " input option

     Wave function specification
     ============================
@    For the wave function of type :      >>> KS-DFT <<<
@    Number of closed shell electrons          20
@    Number of electrons in active shells       0
@    Total charge of the molecule               0

@    Spin multiplicity and 2 M_S                1         0
     Total number of symmetries                 4
@    Reference state symmetry                   1
 
     This is a DFT calculation of type: BLYP
 Weighted mixed functional:
                       LYP:    1.00000
                     Becke:    1.00000
                    Slater:    1.00000

     Orbital specifications
     ======================
     Abelian symmetry species          All |    1    2    3    4
                                       --- |  ---  ---  ---  ---
     Total number of orbitals           18 |    7    2    7    2
     Number of basis functions          18 |    7    2    7    2

      ** Automatic occupation of RKS orbitals **

      -- Initial occupation of symmetries is determined from extended Huckel guess.           
      -- Initial occupation of symmetries is :
@    Occupied SCF orbitals              10 |    4    1    4    1

     Maximum number of Fock   iterations      0
     Maximum number of DIIS   iterations     60
     Maximum number of QC-SCF iterations     60
     Threshold for SCF convergence     1.00D-06
 
     This is a DFT calculation of type: BLYP
 Weighted mixed functional:
                       LYP:    1.00000
                     Becke:    1.00000
                    Slater:    1.00000


 >>>>> DIIS optimization of Hartree-Fock <<<<<

 C1-DIIS algorithm; max error vectors =   10


                      DFT-D Empirical Dispersion Correction
                      -------------------------------------

         Running DFT-D Ver.   :    3
                         Ref. :S. Grimme, J. Antony, S. Ehrlich and H. Krieg, 
                               J. Chem. Phys. 132 (2010), 154104
      Becke-Johnson Damping   :   F
               3-body terms   :   F


                      DFT-D3 Functional Dependent Parameters
                      --------------------------------------

      s_6 =       1.000000000000     sr_6 =       1.094000000000
      s_8 =       1.682000000000     sr_8 =       1.000000000000
      alp =      14.000000000000


                          +------------------------------+
                          ! Dispersion Energy Correction !
                          +------------------------------+

                       E_disp:         -0.002241834373

 Automatic occupation of symmetries with  20 electrons.

 Iter     Total energy    Error norm  Delta(E)    SCF occupation
 -----------------------------------------------------------------------------
   1  Screening settings (-IFTHRS, DIFDEN)   -6    F
      K-S energy, electrons, error :    -13.692627433244  20.0000258231    2.58D-05
@  1  -79.8436439967       2.03D+00  -7.98D+01     4   1   4   1
      Virial theorem: -V/T =      2.015517
@      MULPOP C   _1  0.37; C   _2  0.37; H   _1 -0.09; H   _2 -0.09; H   _3 -0.09; H   _4 -0.09; H   _1 -0.09; H   _2 -0.09; H   _1 -0.10; H   _2 -0.10; 
@
 -----------------------------------------------------------------------------
   2  Screening settings (-IFTHRS, DIFDEN)   -6    F
      K-S energy, electrons, error :    -13.923837543995  20.0000199532    2.00D-05
@  2  -79.8916655319       1.13D+00  -4.80D-02     4   1   4   1
      Virial theorem: -V/T =      2.000345
@      MULPOP C   _1 -0.97; C   _2 -0.97; H   _1  0.24; H   _2  0.24; H   _3  0.24; H   _4  0.24; H   _1  0.24; H   _2  0.24; H   _1  0.24; H   _2  0.24; 
@
 -----------------------------------------------------------------------------
   3  Screening settings (-IFTHRS, DIFDEN)   -6    F
      K-S energy, electrons, error :    -13.713665151264  20.0000238490    2.38D-05
@  3  -79.9734532673       4.75D-01  -8.18D-02     4   1   4   1
      Virial theorem: -V/T =      2.020091
@      MULPOP C   _1 -0.04; C   _2 -0.04; H   _1  0.01; H   _2  0.01; H   _3  0.01; H   _4  0.01; H   _1  0.01; H   _2  0.01; H   _1  0.01; H   _2  0.01; 
@
 -----------------------------------------------------------------------------
   4  Screening settings (-IFTHRS, DIFDEN)   -7    F
      K-S energy, electrons, error :    -13.767479741417  20.0000227018    2.27D-05
@  4  -79.9906974358       1.29D-03  -1.72D-02     4   1   4   1
      Virial theorem: -V/T =      2.014999
@      MULPOP C   _1 -0.32; C   _2 -0.32; H   _1  0.08; H   _2  0.08; H   _3  0.08; H   _4  0.08; H   _1  0.08; H   _2  0.08; H   _1  0.08; H   _2  0.08; 
@
 -----------------------------------------------------------------------------
   5  Screening settings (-IFTHRS, DIFDEN)   -9    F
      K-S energy, electrons, error :    -13.767633173616  20.0000227001    2.27D-05
@  5  -79.9906974919       1.79D-04  -5.61D-08     4   1   4   1
      Virial theorem: -V/T =      2.014983
@      MULPOP C   _1 -0.32; C   _2 -0.32; H   _1  0.08; H   _2  0.08; H   _3  0.08; H   _4  0.08; H   _1  0.08; H   _2  0.08; H   _1  0.08; H   _2  0.08; 
@
 -----------------------------------------------------------------------------
   6  Screening settings (-IFTHRS, DIFDEN)  -10    F
      K-S energy, electrons, error :    -13.767635764228  20.0000226998    2.27D-05
@  6  -79.9906974957       7.96D-06  -3.78D-09     4   1   4   1
      Virial theorem: -V/T =      2.014982
@      MULPOP C   _1 -0.32; C   _2 -0.32; H   _1  0.08; H   _2  0.08; H   _3  0.08; H   _4  0.08; H   _1  0.08; H   _2  0.08; H   _1  0.08; H   _2  0.08; 
@
 -----------------------------------------------------------------------------
   7  Screening settings (-IFTHRS, DIFDEN)  -11    F
      K-S energy, electrons, error :    -13.767635983058  20.0000226998    2.27D-05
@  7  -79.9906974957       1.59D-07   9.46D-12     4   1   4   1

@ *** DIIS converged in   7 iterations !
@     Converged SCF energy, gradient:    -79.990697495658    1.59D-07
    - total time used in SIRFCK :              0.00 seconds


 *** SCF orbital energy analysis ***

 Only the five lowest virtual orbital energies printed in each symmetry.

 Number of electrons :   20
 Orbital occupations :    4    1    4    1

 Sym       Kohn-Sham orbital energies

  1     -9.73344705    -0.58892054    -0.31223335    -0.30523827     0.41309295
         0.41833688     0.43908106

  2     -0.30951139     0.40962366

  3     -9.73344880    -0.58446414    -0.30957026    -0.30304046     0.40971767
         0.41579997     0.46282655

  4     -0.30517790     0.41824308

    E(LUMO) :     0.40962366 au (symmetry 2)
  - E(HOMO) :    -0.30304046 au (symmetry 3)
  ------------------------------------------
    gap     :     0.71266412 au

 >>> Writing SIRIFC interface file <<<

 >>>> CPU and wall time for SCF :       2.383       2.400


                       .-----------------------------------.
                       | >>> Final results from SIRIUS <<< |
                       `-----------------------------------'


@    Spin multiplicity:           1
@    Spatial symmetry:            1
@    Total charge of molecule:    0

@    Final DFT energy:            -79.990697495658                 
@    Nuclear repulsion:            41.000263966492
@    Electronic energy:          -120.990961462150

@    Final gradient norm:           0.000000159273

 
     Date and time (Linux)  : Sun Sep  8 21:17:59 2013
     Host name              : lpqlx131.ups-tlse.fr                    

 (Only coefficients >0.0100 are printed.)

 Molecular orbitals for symmetry species  1
 ------------------------------------------

    Orbital         1        2        3        4        5        6
   1 C   :1s     0.7000  -0.1584  -0.0033  -0.0000  -0.0001   0.0005
   2 C   :1s     0.0342   0.4456   0.0121   0.0001   0.0010  -0.0031
   3 C   :2px   -0.0000  -0.0034   0.4076  -0.0002  -0.7765  -0.0023
   4 C   :2py   -0.0000  -0.0000   0.0002   0.4121   0.0023  -0.7752
   5 H   :1s    -0.0069   0.1271  -0.1207  -0.1712  -0.2494  -0.3557
   6 H   :1s    -0.0069   0.1271  -0.1203   0.3427  -0.2523   0.7130
   7 H   :1s    -0.0069   0.1241   0.3618  -0.0002   0.7500   0.0034

 Molecular orbitals for symmetry species  2
 ------------------------------------------

    Orbital         1        2
   1 C   :2pz    0.4064  -0.7777
   2 H   :1s     0.2979   0.6089

 Molecular orbitals for symmetry species  3
 ------------------------------------------

    Orbital         1        2        3        4        5        6
   1 C   :1s     0.7000  -0.1599  -0.0000   0.0033   0.0002   0.0053
   2 C   :1s     0.0343   0.4511   0.0001  -0.0121  -0.0012  -0.0333
   3 C   :2px    0.0000   0.0036   0.0002   0.4100   0.0008  -0.7776
   4 C   :2py   -0.0000  -0.0000   0.4064  -0.0002  -0.7778  -0.0008
   5 H   :1s    -0.0070   0.1255  -0.1720  -0.1222  -0.3507  -0.2370
   6 H   :1s    -0.0070   0.1255   0.3440  -0.1224   0.7039  -0.2357
   7 H   :1s    -0.0069   0.1289   0.0001   0.3668  -0.0004   0.7640

 Molecular orbitals for symmetry species  4
 ------------------------------------------

    Orbital         1        2
   1 C   :2pz    0.4122  -0.7751
   2 H   :1s     0.2967   0.6170



 >>>> Total CPU  time used in SIRIUS :      2.38 seconds
 >>>> Total wall time used in SIRIUS :      2.40 seconds

 
     Date and time (Linux)  : Sun Sep  8 21:17:59 2013
     Host name              : lpqlx131.ups-tlse.fr                    


                     .---------------------------------------.
                     | End of Wave Function Section (SIRIUS) |
                     `---------------------------------------'


     Order of analytical energy-derivatives available:   1
     This will be the default.

 Center of mass dipole origin  :    0.000000    0.000000    0.000000

 Center of mass gauge origin   :    0.000000    0.000000    0.000000


                 .------------------------------------------------.
                 | Starting in Static Property Section (ABACUS) - |
                 `------------------------------------------------'


 
     Date and time (Linux)  : Sun Sep  8 21:17:59 2013
     Host name              : lpqlx131.ups-tlse.fr                    


                      DFT-D Empirical Dispersion Correction
                      -------------------------------------

         Running DFT-D Ver.   :    3
                         Ref. :S. Grimme, J. Antony, S. Ehrlich and H. Krieg, 
                               J. Chem. Phys. 132 (2010), 154104
      Becke-Johnson Damping   :   F
               3-body terms   :   F


                      DFT-D3 Functional Dependent Parameters
                      --------------------------------------

      s_6 =       1.000000000000     sr_6 =       1.094000000000
      s_8 =       1.682000000000     sr_8 =       1.000000000000
      alp =      14.000000000000


                          +------------------------------+
                          ! Dispersion Energy Correction !
                          +------------------------------+

                       E_disp:         -0.002241834373


  Symmetry Coordinates
  --------------------

  Number of coordinates in each symmetry:     9    6    9    6

  Symmetry  Ag  ( 1)

    1   C     x    [  1  -    4 ]/2
    2   C     y    [  2  -    5 ]/2
    3   H     x    [  7  +   10  -   13  -   16 ]/4
    4   H     y    [  8  +   11  -   14  -   17 ]/4
    5   H     z    [  9  -   12  +   15  -   18 ]/4
    6   H     x    [ 19  -   22 ]/2
    7   H     y    [ 20  -   23 ]/2
    8   H     x    [ 25  -   28 ]/2
    9   H     y    [ 26  -   29 ]/2

  Symmetry  Au  ( 2)

   10   C     z    [  3  +    6 ]/2
   11   H     x    [  7  -   10  -   13  +   16 ]/4
   12   H     y    [  8  -   11  -   14  +   17 ]/4
   13   H     z    [  9  +   12  +   15  +   18 ]/4
   14   H     z    [ 21  +   24 ]/2
   15   H     z    [ 27  +   30 ]/2

  Symmetry  Bu  ( 3)

   16   C     x    [  1  +    4 ]/2
   17   C     y    [  2  +    5 ]/2
   18   H     x    [  7  +   10  +   13  +   16 ]/4
   19   H     y    [  8  +   11  +   14  +   17 ]/4
   20   H     z    [  9  -   12  -   15  +   18 ]/4
   21   H     x    [ 19  +   22 ]/2
   22   H     y    [ 20  +   23 ]/2
   23   H     x    [ 25  +   28 ]/2
   24   H     y    [ 26  +   29 ]/2

  Symmetry  Bg  ( 4)

   25   C     z    [  3  -    6 ]/2
   26   H     x    [  7  -   10  +   13  -   16 ]/4
   27   H     y    [  8  -   11  +   14  -   17 ]/4
   28   H     z    [  9  +   12  -   15  -   18 ]/4
   29   H     z    [ 21  -   24 ]/2
   30   H     z    [ 27  -   30 ]/2


   ***************************************************************************
   ************************ FINAL RESULTS from ABACUS ************************
   ***************************************************************************


 
     Date and time (Linux)  : Sun Sep  8 21:18:00 2013
     Host name              : lpqlx131.ups-tlse.fr                    


                             Molecular geometry (au)
                             -----------------------

 C   _1     3.5133051222            0.0000000000            0.0000000000
 C   _2    -3.5133051222           -0.0000000000            0.0000000000
 H   _1     2.8244722758           -0.9697555791            1.6791180381
 H   _2     2.8244722758           -0.9697555791           -1.6791180381
 H   _3    -2.8244722758            0.9697555791            1.6791180381
 H   _4    -2.8244722758            0.9697555791           -1.6791180381
 H   _1     2.8250371547            1.9392868937            0.0000000000
 H   _2    -2.8250371547           -1.9392868937            0.0000000000
 H   _1     5.5714492702           -0.0005877313            0.0000000000
 H   _2    -5.5714492702            0.0005877313            0.0000000000





                        Molecular wave function and energy
                        ----------------------------------

     Spin multiplicity  1     State number       1     Total charge       0

     Total energy        -79.9906974957 au (Hartrees)
                         -2176.65760278 eV
                           -210015.5439 kJ/mol


                             Relativistic corrections
                             ------------------------

     Darwin correction:                          0.0775849077 au
     Mass-velocity correction:                  -0.0978097492 au

     Total relativistic correction:             -0.0202248415 au (0.0253%)
     Non-relativistic + relativistic energy:   -80.0109223372 au




                             Molecular gradient (au)
                             -----------------------

                         C   x      0.0005287650
                         C   y      0.0000616416
                         H   x      0.0162600940
                         H   y      0.0222956359
                         H   z     -0.0388771719
                         H   x      0.0081192399
                         H   y     -0.0223458920
                         H   x     -0.0236535126
                         H   y     -0.0000119046



 C   _1     0.0002643825            0.0000308208            0.0000000000
 C   _2    -0.0002643825           -0.0000308208            0.0000000000
 H   _1     0.0040650235            0.0055739090           -0.0097192930
 H   _2     0.0040650235            0.0055739090            0.0097192930
 H   _3    -0.0040650235           -0.0055739090           -0.0097192930
 H   _4    -0.0040650235           -0.0055739090            0.0097192930
 H   _1     0.0040596200           -0.0111729460            0.0000000000
 H   _2    -0.0040596200            0.0111729460            0.0000000000
 H   _1    -0.0118267563           -0.0000059523            0.0000000000
 H   _2     0.0118267563            0.0000059523            0.0000000000





                                  Dipole moment
                                  -------------

                 au               Debye          C m (/(10**-30)
              0.000000           0.000000           0.000000


                             Dipole moment components
                             ------------------------

                    All dipole components are zero by symmetry


   Units:   1 a.u. =   2.54175 Debye 
            1 a.u. =   8.47835 (10**-30) C m (SI)




   Interatomic separations (in Angstrom):
   --------------------------------------

            C   _1      C   _2      H   _1      H   _2      H   _3      H   _4
            ------      ------      ------      ------      ------      ------
 C   _1:    0.000000
 C   _2:    3.718322    0.000000
 H   _1:    1.088917    3.507263    0.000000
 H   _2:    1.088917    3.507263    1.777102    0.000000
 H   _3:    3.507263    1.088917    3.160578    3.625927    0.000000
 H   _4:    3.507263    1.088917    3.625927    3.160578    1.777102    0.000000
 H   _1:    1.088942    3.507587    1.777434    1.777434    3.160760    3.160760
 H   _2:    3.507587    1.088942    3.160760    3.160760    1.777434    1.777434
 H   _1:    1.089123    4.807445    1.779217    1.779217    4.559914    4.559914
 H   _2:    4.807445    1.089123    4.559914    4.559914    1.779217    1.779217

            H   _1      H   _2      H   _1      H   _2
            ------      ------      ------      ------
 H   _1:    0.000000
 H   _2:    3.626570    0.000000
 H   _1:    1.779318    4.560130    0.000000
 H   _2:    4.560130    1.779318    5.896568    0.000000


  Max    interatomic separation is    5.8966 Angstrom (   11.1429 Bohr)
  between atoms   10 and    9, "H   _2" and "H   _1".

  Min HX interatomic separation is    1.0889 Angstrom (    2.0578 Bohr)

  Min YX interatomic separation is    3.7183 Angstrom (    7.0266 Bohr)


  Bond distances (Angstrom):
  --------------------------

                  atom 1     atom 2       distance
                  ------     ------       --------
  bond distance:  H   _1     C   _1       1.088917
  bond distance:  H   _2     C   _1       1.088917
  bond distance:  H   _3     C   _2       1.088917
  bond distance:  H   _4     C   _2       1.088917
  bond distance:  H   _1     C   _1       1.088942
  bond distance:  H   _2     C   _2       1.088942
  bond distance:  H   _1     C   _1       1.089123
  bond distance:  H   _2     C   _2       1.089123


  Bond angles (degrees):
  ----------------------

                  atom 1     atom 2     atom 3         angle
                  ------     ------     ------         -----
  bond angle:     H   _1     C   _1     H   _2       109.372
  bond angle:     H   _1     C   _1     H   _1       109.400
  bond angle:     H   _1     C   _1     H   _1       109.549
  bond angle:     H   _2     C   _1     H   _1       109.400
  bond angle:     H   _2     C   _1     H   _1       109.549
  bond angle:     H   _1     C   _1     H   _1       109.557
  bond angle:     H   _3     C   _2     H   _4       109.372
  bond angle:     H   _3     C   _2     H   _2       109.400
  bond angle:     H   _3     C   _2     H   _2       109.549
  bond angle:     H   _4     C   _2     H   _2       109.400
  bond angle:     H   _4     C   _2     H   _2       109.549
  bond angle:     H   _2     C   _2     H   _2       109.557




 CPU time statistics for ABACUS
 ------------------------------




 >>>> Total CPU  time used in ABACUS:   0.77 seconds
 >>>> Total wall time used in ABACUS:   0.78 seconds


                   .-------------------------------------------.
                   | End of Static Property Section (ABACUS) - |
                   `-------------------------------------------'



           :::::::::::::::::::::::::::::::::::::::::::::::::::::::::::
           ::::::::::::::: Optimization Control Center :::::::::::::::
           :::::::::::::::::::::::::::::::::::::::::::::::::::::::::::



                                Next geometry (au)
                                ------------------

 C   _1     3.2897957399           -0.0192378339            0.0000000000
 C   _2    -3.2897957399            0.0192378339            0.0000000000
 H   _1     2.6207291492           -1.0204967014            1.6988945534
 H   _2     2.6207291492           -1.0204967014           -1.6988945534
 H   _3    -2.6207291492            1.0204967014            1.6988945534
 H   _4    -2.6207291492            1.0204967014           -1.6988945534
 H   _1     2.5347393302            1.9221630673            0.0000000000
 H   _2    -2.5347393302           -1.9221630673            0.0000000000
 H   _1     5.3721705935            0.0415747340            0.0000000000
 H   _2    -5.3721705935           -0.0415747340            0.0000000000





                             Optimization information
                             ------------------------

 Iteration number               :       0
 End of optimization            :       F 
 Energy at this geometry is     :     -79.990697
 Norm of gradient               :       0.033627
 Norm of step                   :       0.499994
 Updated trust radius           :       0.500000
 Total Hessian index            :       0




 **************************************************************************************
 ****************** Output of molecule and basis set info suppressed ******************
 **************************************************************************************



                     .---------------------------------------.
                     | Starting in Integral Section (HERMIT) |
                     `---------------------------------------'



    *************************************************************************
    ****************** Output from HERMIT input processing ******************
    *************************************************************************

 >>>> Total CPU  time used in HERMIT:   0.00 seconds
 >>>> Total wall time used in HERMIT:   0.00 seconds


                        .----------------------------------.
                        | End of Integral Section (HERMIT) |
                        `----------------------------------'



                   .--------------------------------------------.
                   | Starting in Wave Function Section (SIRIUS) |
                   `--------------------------------------------'


 **********************************************************************
 *SIRIUS* a direct, restricted step, second order MCSCF program       *
 **********************************************************************

 (Wave function specification suppressed here, see output above for initial geometry.)


 >>>>> DIIS optimization of Hartree-Fock <<<<<

 C1-DIIS algorithm; max error vectors =   10


                      DFT-D Empirical Dispersion Correction
                      -------------------------------------

         Running DFT-D Ver.   :    3
                         Ref. :S. Grimme, J. Antony, S. Ehrlich and H. Krieg, 
                               J. Chem. Phys. 132 (2010), 154104
      Becke-Johnson Damping   :   F
               3-body terms   :   F


                      DFT-D3 Functional Dependent Parameters
                      --------------------------------------

      s_6 =       1.000000000000     sr_6 =       1.094000000000
      s_8 =       1.682000000000     sr_8 =       1.000000000000
      alp =      14.000000000000


                          +------------------------------+
                          ! Dispersion Energy Correction !
                          +------------------------------+

                       E_disp:         -0.003059799822

 Iter      Total energy        Error norm    Delta(E)  DIIS dim.
 -----------------------------------------------------------------------------
   1  Screening settings (-IFTHRS, DIFDEN)  -11    F
      K-S energy, electrons, error :    -13.744873756312  19.9999987013   -1.30D-06
@  1    -79.9918227103        5.49496D-02   -1.13D-03    1
      Virial theorem: -V/T =      2.015948
@      MULPOP C   _1 -0.32; C   _2 -0.32; H   _1  0.08; H   _2  0.08; H   _3  0.08; H   _4  0.08; H   _1  0.08; H   _2  0.08; H   _1  0.08; H   _2  0.08; 
@
 -----------------------------------------------------------------------------
   2  Screening settings (-IFTHRS, DIFDEN)   -8    F
      K-S energy, electrons, error :    -13.740580854998  19.9999986392   -1.36D-06
@  2    -79.9921802088        2.57876D-02   -3.57D-04    2
      Virial theorem: -V/T =      2.016209
@      MULPOP C   _1 -0.29; C   _2 -0.29; H   _1  0.07; H   _2  0.07; H   _3  0.07; H   _4  0.07; H   _1  0.07; H   _2  0.07; H   _1  0.07; H   _2  0.07; 
@
 -----------------------------------------------------------------------------
   3  Screening settings (-IFTHRS, DIFDEN)   -8    F
      K-S energy, electrons, error :    -13.745445178143  19.9999986389   -1.36D-06
@  3    -79.9922143474        1.49474D-02   -3.41D-05    3
      Virial theorem: -V/T =      2.015752
@      MULPOP C   _1 -0.31; C   _2 -0.31; H   _1  0.08; H   _2  0.08; H   _3  0.08; H   _4  0.08; H   _1  0.08; H   _2  0.08; H   _1  0.08; H   _2  0.08; 
@
 -----------------------------------------------------------------------------
   4  Screening settings (-IFTHRS, DIFDEN)   -8    F
      K-S energy, electrons, error :    -13.743647701916  19.9999986389   -1.36D-06
@  4    -79.9922314802        3.07460D-05   -1.71D-05    4
      Virial theorem: -V/T =      2.015922
@      MULPOP C   _1 -0.30; C   _2 -0.30; H   _1  0.08; H   _2  0.08; H   _3  0.08; H   _4  0.08; H   _1  0.08; H   _2  0.08; H   _1  0.08; H   _2  0.08; 
@
 -----------------------------------------------------------------------------
   5  Screening settings (-IFTHRS, DIFDEN)  -11    F
      K-S energy, electrons, error :    -13.743646264774  19.9999986389   -1.36D-06
@  5    -79.9922314824        8.58837D-06   -2.21D-09    5
      Virial theorem: -V/T =      2.015922
@      MULPOP C   _1 -0.30; C   _2 -0.30; H   _1  0.08; H   _2  0.08; H   _3  0.08; H   _4  0.08; H   _1  0.08; H   _2  0.08; H   _1  0.08; H   _2  0.08; 
@
 -----------------------------------------------------------------------------
   6  Screening settings (-IFTHRS, DIFDEN)  -11    F
      K-S energy, electrons, error :    -13.743646176849  19.9999986389   -1.36D-06
@  6    -79.9922314825        2.55630D-07   -9.41D-12    6

@ *** DIIS converged in   6 iterations !
@     Converged SCF energy, gradient:    -79.992231482459    2.56D-07
    - total time used in SIRFCK :              0.00 seconds


 *** SCF orbital energy analysis ***

 Only the five lowest virtual orbital energies printed in each symmetry.

 Number of electrons :   20
 Orbital occupations :    4    1    4    1

 Sym       Kohn-Sham orbital energies

  1     -9.73407204    -0.58495478    -0.31080552    -0.29953609     0.40147722
         0.41039357     0.41804047

  2     -0.30679980     0.39886930

  3     -9.73407819    -0.57766609    -0.30718487    -0.29635005     0.39702907
         0.40719723     0.45047628

  4     -0.29992295     0.40864253

    E(LUMO) :     0.39702907 au (symmetry 3)
  - E(HOMO) :    -0.29635005 au (symmetry 3)
  ------------------------------------------
    gap     :     0.69337912 au

 >>> Writing SIRIFC interface file <<<

 >>>> CPU and wall time for SCF :       2.062       2.087


                       .-----------------------------------.
                       | >>> Final results from SIRIUS <<< |
                       `-----------------------------------'


@    Spin multiplicity:           1
@    Spatial symmetry:            1
@    Total charge of molecule:    0

@    Final DFT energy:            -79.992231482459                 
@    Nuclear repulsion:            41.605945729334
@    Electronic energy:          -121.598177211793

@    Final gradient norm:           0.000000255630

 
     Date and time (Linux)  : Sun Sep  8 21:18:02 2013
     Host name              : lpqlx131.ups-tlse.fr                    



 >>>> Total CPU  time used in SIRIUS :      2.06 seconds
 >>>> Total wall time used in SIRIUS :      2.09 seconds

 
     Date and time (Linux)  : Sun Sep  8 21:18:02 2013
     Host name              : lpqlx131.ups-tlse.fr                    


                     .---------------------------------------.
                     | End of Wave Function Section (SIRIUS) |
                     `---------------------------------------'

 Trust radius increased due to good ratio.
 Updated trust radius   0.59999

     Order of analytical energy-derivatives available:   1
     This will be the default.

 Center of mass dipole origin  :    0.000000    0.000000    0.000000

 Center of mass gauge origin   :    0.000000    0.000000    0.000000


                 .------------------------------------------------.
                 | Starting in Static Property Section (ABACUS) - |
                 `------------------------------------------------'


 
     Date and time (Linux)  : Sun Sep  8 21:18:02 2013
     Host name              : lpqlx131.ups-tlse.fr                    


                      DFT-D Empirical Dispersion Correction
                      -------------------------------------

         Running DFT-D Ver.   :    3
                         Ref. :S. Grimme, J. Antony, S. Ehrlich and H. Krieg, 
                               J. Chem. Phys. 132 (2010), 154104
      Becke-Johnson Damping   :   F
               3-body terms   :   F


                      DFT-D3 Functional Dependent Parameters
                      --------------------------------------

      s_6 =       1.000000000000     sr_6 =       1.094000000000
      s_8 =       1.682000000000     sr_8 =       1.000000000000
      alp =      14.000000000000


                          +------------------------------+
                          ! Dispersion Energy Correction !
                          +------------------------------+

                       E_disp:         -0.003059799822


  Symmetry Coordinates
  --------------------

  Number of coordinates in each symmetry:     9    6    9    6

  Symmetry  Ag  ( 1)

    1   C     x    [  1  -    4 ]/2
    2   C     y    [  2  -    5 ]/2
    3   H     x    [  7  +   10  -   13  -   16 ]/4
    4   H     y    [  8  +   11  -   14  -   17 ]/4
    5   H     z    [  9  -   12  +   15  -   18 ]/4
    6   H     x    [ 19  -   22 ]/2
    7   H     y    [ 20  -   23 ]/2
    8   H     x    [ 25  -   28 ]/2
    9   H     y    [ 26  -   29 ]/2

  Symmetry  Au  ( 2)

   10   C     z    [  3  +    6 ]/2
   11   H     x    [  7  -   10  -   13  +   16 ]/4
   12   H     y    [  8  -   11  -   14  +   17 ]/4
   13   H     z    [  9  +   12  +   15  +   18 ]/4
   14   H     z    [ 21  +   24 ]/2
   15   H     z    [ 27  +   30 ]/2

  Symmetry  Bu  ( 3)

   16   C     x    [  1  +    4 ]/2
   17   C     y    [  2  +    5 ]/2
   18   H     x    [  7  +   10  +   13  +   16 ]/4
   19   H     y    [  8  +   11  +   14  +   17 ]/4
   20   H     z    [  9  -   12  -   15  +   18 ]/4
   21   H     x    [ 19  +   22 ]/2
   22   H     y    [ 20  +   23 ]/2
   23   H     x    [ 25  +   28 ]/2
   24   H     y    [ 26  +   29 ]/2

  Symmetry  Bg  ( 4)

   25   C     z    [  3  -    6 ]/2
   26   H     x    [  7  -   10  +   13  -   16 ]/4
   27   H     y    [  8  -   11  +   14  -   17 ]/4
   28   H     z    [  9  +   12  -   15  -   18 ]/4
   29   H     z    [ 21  -   24 ]/2
   30   H     z    [ 27  -   30 ]/2


   ***************************************************************************
   ************************ FINAL RESULTS from ABACUS ************************
   ***************************************************************************


 
     Date and time (Linux)  : Sun Sep  8 21:18:03 2013
     Host name              : lpqlx131.ups-tlse.fr                    


 CPU time statistics for ABACUS
 ------------------------------

 REST       00:00:02     280 %



 >>>> Total CPU  time used in ABACUS:   0.86 seconds
 >>>> Total wall time used in ABACUS:   1.00 seconds


                   .-------------------------------------------.
                   | End of Static Property Section (ABACUS) - |
                   `-------------------------------------------'



           :::::::::::::::::::::::::::::::::::::::::::::::::::::::::::
           ::::::::::::::: Optimization Control Center :::::::::::::::
           :::::::::::::::::::::::::::::::::::::::::::::::::::::::::::



                                Next geometry (au)
                                ------------------

 C   _1     3.5719069436            0.0265211876            0.0000000000
 C   _2    -3.5719069436           -0.0265211876            0.0000000000
 H   _1     2.8312511776           -0.9330807057            1.7086957655
 H   _2     2.8312511776           -0.9330807057           -1.7086957655
 H   _3    -2.8312511776            0.9330807057            1.7086957655
 H   _4    -2.8312511776            0.9330807057           -1.7086957655
 H   _1     2.9431908346            2.0267385287            0.0000000000
 H   _2    -2.9431908346           -2.0267385287            0.0000000000
 H   _1     5.6699738618           -0.0536207643            0.0000000000
 H   _2    -5.6699738618            0.0536207643            0.0000000000





                             Optimization information
                             ------------------------

 Iteration number               :       1
 End of optimization            :       F 
 Energy at this geometry is     :     -79.992231
 Energy change from last geom.  :      -0.001534
 Norm of gradient               :       0.004854
 Norm of step                   :       0.606291
 Updated trust radius           :       0.599993
 Total Hessian index            :       0




 **************************************************************************************
 ****************** Output of molecule and basis set info suppressed ******************
 **************************************************************************************



                     .---------------------------------------.
                     | Starting in Integral Section (HERMIT) |
                     `---------------------------------------'



    *************************************************************************
    ****************** Output from HERMIT input processing ******************
    *************************************************************************

 >>>> Total CPU  time used in HERMIT:   0.00 seconds
 >>>> Total wall time used in HERMIT:   0.01 seconds


                        .----------------------------------.
                        | End of Integral Section (HERMIT) |
                        `----------------------------------'



                   .--------------------------------------------.
                   | Starting in Wave Function Section (SIRIUS) |
                   `--------------------------------------------'


 **********************************************************************
 *SIRIUS* a direct, restricted step, second order MCSCF program       *
 **********************************************************************

 (Wave function specification suppressed here, see output above for initial geometry.)


 >>>>> DIIS optimization of Hartree-Fock <<<<<

 C1-DIIS algorithm; max error vectors =   10


                      DFT-D Empirical Dispersion Correction
                      -------------------------------------

         Running DFT-D Ver.   :    3
                         Ref. :S. Grimme, J. Antony, S. Ehrlich and H. Krieg, 
                               J. Chem. Phys. 132 (2010), 154104
      Becke-Johnson Damping   :   F
               3-body terms   :   F


                      DFT-D3 Functional Dependent Parameters
                      --------------------------------------

      s_6 =       1.000000000000     sr_6 =       1.094000000000
      s_8 =       1.682000000000     sr_8 =       1.000000000000
      alp =      14.000000000000


                          +------------------------------+
                          ! Dispersion Energy Correction !
                          +------------------------------+

                       E_disp:         -0.002138423435

 Iter      Total energy        Error norm    Delta(E)  DIIS dim.
 -----------------------------------------------------------------------------
   1  Screening settings (-IFTHRS, DIFDEN)  -11    F
      K-S energy, electrons, error :    -13.729925819344  20.0000126333    1.26D-05
@  1    -79.9901497395        9.92657D-02    2.08D-03    1
      Virial theorem: -V/T =      2.016450
@      MULPOP C   _1 -0.30; C   _2 -0.30; H   _1  0.08; H   _2  0.08; H   _3  0.08; H   _4  0.08; H   _1  0.08; H   _2  0.08; H   _1  0.08; H   _2  0.08; 
@
 -----------------------------------------------------------------------------
   2  Screening settings (-IFTHRS, DIFDEN)   -8    F
      K-S energy, electrons, error :    -13.727935056565  20.0000126754    1.27D-05
@  2    -79.9918581372        1.27386D-02   -1.71D-03    2
      Virial theorem: -V/T =      2.016611
@      MULPOP C   _1 -0.29; C   _2 -0.29; H   _1  0.07; H   _2  0.07; H   _3  0.07; H   _4  0.07; H   _1  0.07; H   _2  0.07; H   _1  0.07; H   _2  0.07; 
@
 -----------------------------------------------------------------------------
   3  Screening settings (-IFTHRS, DIFDEN)   -8    F
      K-S energy, electrons, error :    -13.731079641522  20.0000126593    1.27D-05
@  3    -79.9918565455        1.35508D-02    1.59D-06    3
      Virial theorem: -V/T =      2.016315
@      MULPOP C   _1 -0.30; C   _2 -0.30; H   _1  0.08; H   _2  0.08; H   _3  0.08; H   _4  0.08; H   _1  0.08; H   _2  0.08; H   _1  0.08; H   _2  0.08; 
@
 -----------------------------------------------------------------------------
   4  Screening settings (-IFTHRS, DIFDEN)   -8    F
      K-S energy, electrons, error :    -13.729452656979  20.0000126676    1.27D-05
@  4    -79.9918706978        4.98843D-05   -1.42D-05    4
      Virial theorem: -V/T =      2.016469
@      MULPOP C   _1 -0.30; C   _2 -0.30; H   _1  0.07; H   _2  0.07; H   _3  0.07; H   _4  0.07; H   _1  0.07; H   _2  0.07; H   _1  0.07; H   _2  0.07; 
@
 -----------------------------------------------------------------------------
   5  Screening settings (-IFTHRS, DIFDEN)  -11    F
      K-S energy, electrons, error :    -13.729452000378  20.0000126676    1.27D-05
@  5    -79.9918707011        5.87255D-06   -3.34D-09    5
      Virial theorem: -V/T =      2.016469
@      MULPOP C   _1 -0.30; C   _2 -0.30; H   _1  0.07; H   _2  0.07; H   _3  0.07; H   _4  0.07; H   _1  0.07; H   _2  0.07; H   _1  0.07; H   _2  0.07; 
@
 -----------------------------------------------------------------------------
   6  Screening settings (-IFTHRS, DIFDEN)  -11    F
      K-S energy, electrons, error :    -13.729451744378  20.0000126676    1.27D-05
@  6    -79.9918707011        2.02729D-07   -3.98D-12    6

@ *** DIIS converged in   6 iterations !
@     Converged SCF energy, gradient:    -79.991870701107    2.03D-07
    - total time used in SIRFCK :              0.00 seconds


 *** SCF orbital energy analysis ***

 Only the five lowest virtual orbital energies printed in each symmetry.

 Number of electrons :   20
 Orbital occupations :    4    1    4    1

 Sym       Kohn-Sham orbital energies

  1     -9.73501321    -0.58078055    -0.30606446    -0.29972565     0.39658892
         0.40092441     0.41337955

  2     -0.30377994     0.39352274

  3     -9.73501484    -0.57668694    -0.30341021    -0.29773919     0.39465871
         0.39876121     0.43477865

  4     -0.29947538     0.40295554

    E(LUMO) :     0.39352274 au (symmetry 2)
  - E(HOMO) :    -0.29773919 au (symmetry 3)
  ------------------------------------------
    gap     :     0.69126193 au

 >>> Writing SIRIFC interface file <<<

 >>>> CPU and wall time for SCF :       2.053       2.065


                       .-----------------------------------.
                       | >>> Final results from SIRIUS <<< |
                       `-----------------------------------'


@    Spin multiplicity:           1
@    Spatial symmetry:            1
@    Total charge of molecule:    0

@    Final DFT energy:            -79.991870701107                 
@    Nuclear repulsion:            40.274614000758
@    Electronic energy:          -120.266484701865

@    Final gradient norm:           0.000000202729

 
     Date and time (Linux)  : Sun Sep  8 21:18:05 2013
     Host name              : lpqlx131.ups-tlse.fr                    



 >>>> Total CPU  time used in SIRIUS :      2.05 seconds
 >>>> Total wall time used in SIRIUS :      2.06 seconds

 
     Date and time (Linux)  : Sun Sep  8 21:18:05 2013
     Host name              : lpqlx131.ups-tlse.fr                    


                     .---------------------------------------.
                     | End of Wave Function Section (SIRIUS) |
                     `---------------------------------------'


 Step rejected because ratio between
        actual energy change :    0.00036078
 and predicted energy change :   -0.00015547
                          is :         -2.32
 Minimum for quadratic model :     0.230838
 Norm of new step            :     0.139955


 **************************************************************************************
 ****************** Output of molecule and basis set info suppressed ******************
 **************************************************************************************



                     .---------------------------------------.
                     | Starting in Integral Section (HERMIT) |
                     `---------------------------------------'



    *************************************************************************
    ****************** Output from HERMIT input processing ******************
    *************************************************************************

 >>>> Total CPU  time used in HERMIT:   0.01 seconds
 >>>> Total wall time used in HERMIT:   0.00 seconds


                        .----------------------------------.
                        | End of Integral Section (HERMIT) |
                        `----------------------------------'



                   .--------------------------------------------.
                   | Starting in Wave Function Section (SIRIUS) |
                   `--------------------------------------------'


 **********************************************************************
 *SIRIUS* a direct, restricted step, second order MCSCF program       *
 **********************************************************************

 (Wave function specification suppressed here, see output above for initial geometry.)


 >>>>> DIIS optimization of Hartree-Fock <<<<<

 C1-DIIS algorithm; max error vectors =   10


                      DFT-D Empirical Dispersion Correction
                      -------------------------------------

         Running DFT-D Ver.   :    3
                         Ref. :S. Grimme, J. Antony, S. Ehrlich and H. Krieg, 
                               J. Chem. Phys. 132 (2010), 154104
      Becke-Johnson Damping   :   F
               3-body terms   :   F


                      DFT-D3 Functional Dependent Parameters
                      --------------------------------------

      s_6 =       1.000000000000     sr_6 =       1.094000000000
      s_8 =       1.682000000000     sr_8 =       1.000000000000
      alp =      14.000000000000


                          +------------------------------+
                          ! Dispersion Energy Correction !
                          +------------------------------+

                       E_disp:         -0.002822718193

 Iter      Total energy        Error norm    Delta(E)  DIIS dim.
 -----------------------------------------------------------------------------
   1  Screening settings (-IFTHRS, DIFDEN)  -11    F
      K-S energy, electrons, error :    -13.740593753021  20.0000074951    7.50D-06
@  1    -79.9912304841        7.65338D-02    6.40D-04    1
      Virial theorem: -V/T =      2.015970
@      MULPOP C   _1 -0.30; C   _2 -0.30; H   _1  0.07; H   _2  0.07; H   _3  0.07; H   _4  0.07; H   _1  0.07; H   _2  0.07; H   _1  0.07; H   _2  0.07; 
@
 -----------------------------------------------------------------------------
   2  Screening settings (-IFTHRS, DIFDEN)   -8    F
      K-S energy, electrons, error :    -13.741942294154  20.0000074077    7.41D-06
@  2    -79.9922357825        9.61558D-03   -1.01D-03    2
      Virial theorem: -V/T =      2.015928
@      MULPOP C   _1 -0.31; C   _2 -0.31; H   _1  0.08; H   _2  0.08; H   _3  0.08; H   _4  0.08; H   _1  0.08; H   _2  0.08; H   _1  0.08; H   _2  0.08; 
@
 -----------------------------------------------------------------------------
   3  Screening settings (-IFTHRS, DIFDEN)   -9    F
      K-S energy, electrons, error :    -13.739584679458  20.0000074236    7.42D-06
@  3    -79.9922350730        1.01119D-02    7.09D-07    3
      Virial theorem: -V/T =      2.016150
@      MULPOP C   _1 -0.30; C   _2 -0.30; H   _1  0.07; H   _2  0.07; H   _3  0.07; H   _4  0.07; H   _1  0.07; H   _2  0.07; H   _1  0.07; H   _2  0.07; 
@
 -----------------------------------------------------------------------------
   4  Screening settings (-IFTHRS, DIFDEN)   -9    F
      K-S energy, electrons, error :    -13.740794841125  20.0000074155    7.42D-06
@  4    -79.9922429326        3.96058D-05   -7.86D-06    4
      Virial theorem: -V/T =      2.016035
@      MULPOP C   _1 -0.30; C   _2 -0.30; H   _1  0.08; H   _2  0.08; H   _3  0.08; H   _4  0.08; H   _1  0.08; H   _2  0.08; H   _1  0.08; H   _2  0.08; 
@
 -----------------------------------------------------------------------------
   5  Screening settings (-IFTHRS, DIFDEN)  -11    F
      K-S energy, electrons, error :    -13.740795536612  20.0000074155    7.42D-06
@  5    -79.9922429321        5.88044D-06    4.73D-10    5
      Virial theorem: -V/T =      2.016035
@      MULPOP C   _1 -0.30; C   _2 -0.30; H   _1  0.08; H   _2  0.08; H   _3  0.08; H   _4  0.08; H   _1  0.08; H   _2  0.08; H   _1  0.08; H   _2  0.08; 
@
 -----------------------------------------------------------------------------
   6  Screening settings (-IFTHRS, DIFDEN)  -11    F
      K-S energy, electrons, error :    -13.740795751504  20.0000074155    7.42D-06
@  6    -79.9922429321        1.89098D-07   -3.92D-12    6

@ *** DIIS converged in   6 iterations !
@     Converged SCF energy, gradient:    -79.992242932092    1.89D-07
    - total time used in SIRFCK :              0.00 seconds


 *** SCF orbital energy analysis ***

 Only the five lowest virtual orbital energies printed in each symmetry.

 Number of electrons :   20
 Orbital occupations :    4    1    4    1

 Sym       Kohn-Sham orbital energies

  1     -9.73428646    -0.58401797    -0.30967478    -0.29976885     0.40078109
         0.40827064     0.41738698

  2     -0.30613426     0.39771218

  3     -9.73429074    -0.57764383    -0.30626333    -0.29694988     0.39686629
         0.40541708     0.44697594

  4     -0.29996118     0.40757845

    E(LUMO) :     0.39686629 au (symmetry 3)
  - E(HOMO) :    -0.29694988 au (symmetry 3)
  ------------------------------------------
    gap     :     0.69381617 au

 >>> Writing SIRIFC interface file <<<

 >>>> CPU and wall time for SCF :       2.058       2.072


                       .-----------------------------------.
                       | >>> Final results from SIRIUS <<< |
                       `-----------------------------------'


@    Spin multiplicity:           1
@    Spatial symmetry:            1
@    Total charge of molecule:    0

@    Final DFT energy:            -79.992242932092                 
@    Nuclear repulsion:            41.288912222563
@    Electronic energy:          -121.281155154654

@    Final gradient norm:           0.000000189098

 
     Date and time (Linux)  : Sun Sep  8 21:18:07 2013
     Host name              : lpqlx131.ups-tlse.fr                    



 >>>> Total CPU  time used in SIRIUS :      2.06 seconds
 >>>> Total wall time used in SIRIUS :      2.07 seconds

 
     Date and time (Linux)  : Sun Sep  8 21:18:07 2013
     Host name              : lpqlx131.ups-tlse.fr                    


                     .---------------------------------------.
                     | End of Wave Function Section (SIRIUS) |
                     `---------------------------------------'


Acceptable step has been found.

     Order of analytical energy-derivatives available:   1
     This will be the default.

 Center of mass dipole origin  :    0.000000    0.000000    0.000000

 Center of mass gauge origin   :    0.000000    0.000000    0.000000


                 .------------------------------------------------.
                 | Starting in Static Property Section (ABACUS) - |
                 `------------------------------------------------'


 
     Date and time (Linux)  : Sun Sep  8 21:18:07 2013
     Host name              : lpqlx131.ups-tlse.fr                    


                      DFT-D Empirical Dispersion Correction
                      -------------------------------------

         Running DFT-D Ver.   :    3
                         Ref. :S. Grimme, J. Antony, S. Ehrlich and H. Krieg, 
                               J. Chem. Phys. 132 (2010), 154104
      Becke-Johnson Damping   :   F
               3-body terms   :   F


                      DFT-D3 Functional Dependent Parameters
                      --------------------------------------

      s_6 =       1.000000000000     sr_6 =       1.094000000000
      s_8 =       1.682000000000     sr_8 =       1.000000000000
      alp =      14.000000000000


                          +------------------------------+
                          ! Dispersion Energy Correction !
                          +------------------------------+

                       E_disp:         -0.002822718193


  Symmetry Coordinates
  --------------------

  Number of coordinates in each symmetry:     9    6    9    6

  Symmetry  Ag  ( 1)

    1   C     x    [  1  -    4 ]/2
    2   C     y    [  2  -    5 ]/2
    3   H     x    [  7  +   10  -   13  -   16 ]/4
    4   H     y    [  8  +   11  -   14  -   17 ]/4
    5   H     z    [  9  -   12  +   15  -   18 ]/4
    6   H     x    [ 19  -   22 ]/2
    7   H     y    [ 20  -   23 ]/2
    8   H     x    [ 25  -   28 ]/2
    9   H     y    [ 26  -   29 ]/2

  Symmetry  Au  ( 2)

   10   C     z    [  3  +    6 ]/2
   11   H     x    [  7  -   10  -   13  +   16 ]/4
   12   H     y    [  8  -   11  -   14  +   17 ]/4
   13   H     z    [  9  +   12  +   15  +   18 ]/4
   14   H     z    [ 21  +   24 ]/2
[...]
   3  Screening settings (-IFTHRS, DIFDEN)  -10    F
      K-S energy, electrons, error :    -13.739255710426  19.9999995771   -4.23D-07
@  3    -79.9922637072        2.27099D-04   -2.41D-09    3
      Virial theorem: -V/T =      2.016092
@      MULPOP C   _1 -0.30; C   _2 -0.30; H   _1  0.08; H   _2  0.08; H   _3  0.08; H   _4  0.08; H   _1  0.08; H   _2  0.08; H   _1  0.07; H   _2  0.07; 
@
 -----------------------------------------------------------------------------
   4  Screening settings (-IFTHRS, DIFDEN)  -10    F
      K-S energy, electrons, error :    -13.739282944150  19.9999995771   -4.23D-07
@  4    -79.9922637111        1.58849D-06   -3.96D-09    4
      Virial theorem: -V/T =      2.016090
@      MULPOP C   _1 -0.30; C   _2 -0.30; H   _1  0.08; H   _2  0.08; H   _3  0.08; H   _4  0.08; H   _1  0.08; H   _2  0.08; H   _1  0.07; H   _2  0.07; 
@
 -----------------------------------------------------------------------------
   5  Screening settings (-IFTHRS, DIFDEN)  -11    F
      K-S energy, electrons, error :    -13.739282945189  19.9999995771   -4.23D-07
@  5    -79.9922637111        1.29021D-07   -2.79D-12    5

@ *** DIIS converged in   5 iterations !
@     Converged SCF energy, gradient:    -79.992263711131    1.29D-07
    - total time used in SIRFCK :              0.00 seconds


 *** SCF orbital energy analysis ***

 Only the five lowest virtual orbital energies printed in each symmetry.

 Number of electrons :   20
 Orbital occupations :    4    1    4    1

 Sym       Kohn-Sham orbital energies

  1     -9.73427282    -0.58396256    -0.31000141    -0.29903746     0.39981800
         0.40813378     0.41529899

  2     -0.30612856     0.39678633

  3     -9.73427858    -0.57688243    -0.30634340    -0.29597176     0.39566463
         0.40527321     0.44700845

  4     -0.29930852     0.40697337

    E(LUMO) :     0.39566463 au (symmetry 3)
  - E(HOMO) :    -0.29597176 au (symmetry 3)
  ------------------------------------------
    gap     :     0.69163639 au

 >>> Writing SIRIFC interface file <<<

 >>>> CPU and wall time for SCF :       1.732       1.883


                       .-----------------------------------.
                       | >>> Final results from SIRIUS <<< |
                       `-----------------------------------'


@    Spin multiplicity:           1
@    Spatial symmetry:            1
@    Total charge of molecule:    0

@    Final DFT energy:            -79.992263711131                 
@    Nuclear repulsion:            41.481124724817
@    Electronic energy:          -121.473388435947

@    Final gradient norm:           0.000000129021

 
     Date and time (Linux)  : Sun Sep  8 21:18:28 2013
     Host name              : lpqlx131.ups-tlse.fr                    



 >>>> Total CPU  time used in SIRIUS :      1.73 seconds
 >>>> Total wall time used in SIRIUS :      1.88 seconds

 
     Date and time (Linux)  : Sun Sep  8 21:18:28 2013
     Host name              : lpqlx131.ups-tlse.fr                    


                     .---------------------------------------.
                     | End of Wave Function Section (SIRIUS) |
                     `---------------------------------------'

 Trust radius increased due to good ratio.
 Updated trust radius   0.00920

     Order of analytical energy-derivatives available:   1
     This will be the default.

 Center of mass dipole origin  :    0.000000    0.000000    0.000000

 Center of mass gauge origin   :    0.000000    0.000000    0.000000


                 .------------------------------------------------.
                 | Starting in Static Property Section (ABACUS) - |
                 `------------------------------------------------'


 
     Date and time (Linux)  : Sun Sep  8 21:18:28 2013
     Host name              : lpqlx131.ups-tlse.fr                    


                      DFT-D Empirical Dispersion Correction
                      -------------------------------------

         Running DFT-D Ver.   :    3
                         Ref. :S. Grimme, J. Antony, S. Ehrlich and H. Krieg, 
                               J. Chem. Phys. 132 (2010), 154104
      Becke-Johnson Damping   :   F
               3-body terms   :   F


                      DFT-D3 Functional Dependent Parameters
                      --------------------------------------

      s_6 =       1.000000000000     sr_6 =       1.094000000000
      s_8 =       1.682000000000     sr_8 =       1.000000000000
      alp =      14.000000000000


                          +------------------------------+
                          ! Dispersion Energy Correction !
                          +------------------------------+

                       E_disp:         -0.003009010315


  Symmetry Coordinates
  --------------------

  Number of coordinates in each symmetry:     9    6    9    6

  Symmetry  Ag  ( 1)

    1   C     x    [  1  -    4 ]/2
    2   C     y    [  2  -    5 ]/2
    3   H     x    [  7  +   10  -   13  -   16 ]/4
    4   H     y    [  8  +   11  -   14  -   17 ]/4
    5   H     z    [  9  -   12  +   15  -   18 ]/4
    6   H     x    [ 19  -   22 ]/2
    7   H     y    [ 20  -   23 ]/2
    8   H     x    [ 25  -   28 ]/2
    9   H     y    [ 26  -   29 ]/2

  Symmetry  Au  ( 2)

   10   C     z    [  3  +    6 ]/2
   11   H     x    [  7  -   10  -   13  +   16 ]/4
   12   H     y    [  8  -   11  -   14  +   17 ]/4
   13   H     z    [  9  +   12  +   15  +   18 ]/4
   14   H     z    [ 21  +   24 ]/2
   15   H     z    [ 27  +   30 ]/2

  Symmetry  Bu  ( 3)

   16   C     x    [  1  +    4 ]/2
   17   C     y    [  2  +    5 ]/2
   18   H     x    [  7  +   10  +   13  +   16 ]/4
   19   H     y    [  8  +   11  +   14  +   17 ]/4
   20   H     z    [  9  -   12  -   15  +   18 ]/4
   21   H     x    [ 19  +   22 ]/2
   22   H     y    [ 20  +   23 ]/2
   23   H     x    [ 25  +   28 ]/2
   24   H     y    [ 26  +   29 ]/2

  Symmetry  Bg  ( 4)

   25   C     z    [  3  -    6 ]/2
   26   H     x    [  7  -   10  +   13  -   16 ]/4
   27   H     y    [  8  -   11  +   14  -   17 ]/4
   28   H     z    [  9  +   12  -   15  -   18 ]/4
   29   H     z    [ 21  -   24 ]/2
   30   H     z    [ 27  -   30 ]/2


   ***************************************************************************
   ************************ FINAL RESULTS from ABACUS ************************
   ***************************************************************************


 
     Date and time (Linux)  : Sun Sep  8 21:18:29 2013
     Host name              : lpqlx131.ups-tlse.fr                    


 CPU time statistics for ABACUS
 ------------------------------

 REST       00:00:02     200 %



 >>>> Total CPU  time used in ABACUS:   0.86 seconds
 >>>> Total wall time used in ABACUS:   0.86 seconds


                   .-------------------------------------------.
                   | End of Static Property Section (ABACUS) - |
                   `-------------------------------------------'



           :::::::::::::::::::::::::::::::::::::::::::::::::::::::::::
           ::::::::::::::: Optimization Control Center :::::::::::::::
           :::::::::::::::::::::::::::::::::::::::::::::::::::::::::::



                               Final geometry (au)
                               -------------------

 C   _1     3.3052929819           -0.0120819359            0.0000000000
 C   _2    -3.3052929819            0.0120819359            0.0000000000
 H   _1     2.6241360060           -1.0080531317            1.7028730186
 H   _2     2.6241360060           -1.0080531317           -1.7028730186
 H   _3    -2.6241360060            1.0080531317            1.7028730186
 H   _4    -2.6241360060            1.0080531317           -1.7028730186
 H   _1     2.5687388285            1.9406283694            0.0000000000
 H   _2    -2.5687388285           -1.9406283694            0.0000000000
 H   _1     5.3925174869            0.0270137255            0.0000000000
 H   _2    -5.3925174869           -0.0270137255            0.0000000000





                             Optimization information
                             ------------------------

 Iteration number               :       7
 End of optimization            :       T 
 Energy at this geometry is     :     -79.992264
 Energy change from last geom.  :      -0.000000
 Norm of gradient               :       0.000028
 Norm of step                   :       0.003732
 Updated trust radius           :       0.009205
 Total Hessian index            :       0



 Center of mass dipole origin  :    0.000000    0.000000    0.000000

 Center of mass gauge origin   :    0.000000    0.000000    0.000000


                 .------------------------------------------------.
                 | Starting in Static Property Section (ABACUS) - |
                 `------------------------------------------------'


 
     Date and time (Linux)  : Sun Sep  8 21:18:29 2013
     Host name              : lpqlx131.ups-tlse.fr                    


   ***************************************************************************
   ************************ FINAL RESULTS from ABACUS ************************
   ***************************************************************************


 
     Date and time (Linux)  : Sun Sep  8 21:18:29 2013
     Host name              : lpqlx131.ups-tlse.fr                    


                             Molecular geometry (au)
                             -----------------------

 C   _1     3.3052929819           -0.0120819359            0.0000000000
 C   _2    -3.3052929819            0.0120819359            0.0000000000
 H   _1     2.6241360060           -1.0080531317            1.7028730186
 H   _2     2.6241360060           -1.0080531317           -1.7028730186
 H   _3    -2.6241360060            1.0080531317            1.7028730186
 H   _4    -2.6241360060            1.0080531317           -1.7028730186
 H   _1     2.5687388285            1.9406283694            0.0000000000
 H   _2    -2.5687388285           -1.9406283694            0.0000000000
 H   _1     5.3925174869            0.0270137255            0.0000000000
 H   _2    -5.3925174869           -0.0270137255            0.0000000000





                        Molecular wave function and energy
                        ----------------------------------

     Spin multiplicity  1     State number       1     Total charge       0

     Total energy        -79.9922637111 au (Hartrees)
                         -2176.70022167 eV
                           -210019.6560 kJ/mol


                             Relativistic corrections
                             ------------------------

     Darwin correction:                          0.0775861091 au
     Mass-velocity correction:                  -0.0978074782 au

     Total relativistic correction:             -0.0202213691 au (0.0253%)
     Non-relativistic + relativistic energy:   -80.0124850802 au




                                  Dipole moment
                                  -------------

                 au               Debye          C m (/(10**-30)
              0.000000           0.000000           0.000000


                             Dipole moment components
                             ------------------------

                    All dipole components are zero by symmetry


   Units:   1 a.u. =   2.54175 Debye 
            1 a.u. =   8.47835 (10**-30) C m (SI)




   Interatomic separations (in Angstrom):
   --------------------------------------

            C   _1      C   _2      H   _1      H   _2      H   _3      H   _4
            ------      ------      ------      ------      ------      ------
 C   _1:    0.000000
 C   _2:    3.498195    0.000000
 H   _1:    1.104411    3.308885    0.000000
 H   _2:    1.104411    3.308885    1.802243    0.000000
 H   _3:    3.308885    1.104411    2.975136    3.478436    0.000000
 H   _4:    3.308885    1.104411    3.478436    2.975136    1.802243    0.000000
 H   _1:    1.104395    3.271648    1.802124    1.802124    2.933734    2.933734
 H   _2:    3.271648    1.104395    2.933734    2.933734    1.802124    1.802124
 H   _1:    1.104705    4.602690    1.805035    1.805035    4.367843    4.367843
 H   _2:    4.602690    1.104705    4.367843    4.367843    1.805035    1.805035

            H   _1      H   _2      H   _1      H   _2
            ------      ------      ------      ------
 H   _1:    0.000000
 H   _2:    3.407253    0.000000
 H   _1:    1.805080    4.339680    0.000000
 H   _2:    4.339680    1.805080    5.707266    0.000000


  Max    interatomic separation is    5.7073 Angstrom (   10.7852 Bohr)
  between atoms   10 and    9, "H   _2" and "H   _1".

  Min HX interatomic separation is    1.1044 Angstrom (    2.0870 Bohr)

  Min YX interatomic separation is    3.4982 Angstrom (    6.6106 Bohr)


  Bond distances (Angstrom):
  --------------------------

                  atom 1     atom 2       distance
                  ------     ------       --------
  bond distance:  H   _1     C   _1       1.104411
  bond distance:  H   _2     C   _1       1.104411
  bond distance:  H   _3     C   _2       1.104411
  bond distance:  H   _4     C   _2       1.104411
  bond distance:  H   _1     C   _1       1.104395
  bond distance:  H   _2     C   _2       1.104395
  bond distance:  H   _1     C   _1       1.104705
  bond distance:  H   _2     C   _2       1.104705


  Bond angles (degrees):
  ----------------------

                  atom 1     atom 2     atom 3         angle
                  ------     ------     ------         -----
  bond angle:     H   _1     C   _1     H   _2       109.359
  bond angle:     H   _1     C   _1     H   _1       109.349
  bond angle:     H   _1     C   _1     H   _1       109.588
  bond angle:     H   _2     C   _1     H   _1       109.349
  bond angle:     H   _2     C   _1     H   _1       109.588
  bond angle:     H   _1     C   _1     H   _1       109.593
  bond angle:     H   _3     C   _2     H   _4       109.359
  bond angle:     H   _3     C   _2     H   _2       109.349
  bond angle:     H   _3     C   _2     H   _2       109.588
  bond angle:     H   _4     C   _2     H   _2       109.349
  bond angle:     H   _4     C   _2     H   _2       109.588
  bond angle:     H   _2     C   _2     H   _2       109.593




 CPU time statistics for ABACUS
 ------------------------------




 >>>> Total CPU  time used in ABACUS:   0.00 seconds
 >>>> Total wall time used in ABACUS:   0.00 seconds


                   .-------------------------------------------.
                   | End of Static Property Section (ABACUS) - |
                   `-------------------------------------------'



          <<<<<<<<<<<<<<<<<<<<<<<<<<<<<<<<<<<<<<<<<<<<<<<<<<<<<<<<<<<<<<
          <<<<<<<<<<<<<<<<<<<<  End of Optimization <<<<<<<<<<<<<<<<<<<<
          <<<<<<<<<<<<<<<<<<<<<<<<<<<<<<<<<<<<<<<<<<<<<<<<<<<<<<<<<<<<<<



                                  Final geometry
                                  --------------

 C   _1     3.3052929819           -0.0120819359            0.0000000000
 C   _2    -3.3052929819            0.0120819359            0.0000000000
 H   _1     2.6241360060           -1.0080531317            1.7028730186
 H   _2     2.6241360060           -1.0080531317           -1.7028730186
 H   _3    -2.6241360060            1.0080531317            1.7028730186
 H   _4    -2.6241360060            1.0080531317           -1.7028730186
 H   _1     2.5687388285            1.9406283694            0.0000000000
 H   _2    -2.5687388285           -1.9406283694            0.0000000000
 H   _1     5.3925174869            0.0270137255            0.0000000000
 H   _2    -5.3925174869           -0.0270137255            0.0000000000



@ Iter      Energy        Change       GradNorm  Index   StepLen    TrustRad #Rej
@ -------------------------------------------------------------------------------
@   0      -79.990697     0.000000     0.033627    0    0.499994*   0.500000   0 
@   1      -79.992231    -0.001534     0.004854    0    0.139955*   0.599993   1 
@   2      -79.992243    -0.000011     0.002053    0    0.060831*   0.139955   1 
@   3      -79.992248    -0.000005     0.003145    0    0.061032    0.060831   0 
@   4      -79.992263    -0.000015     0.000881    0    0.007871*   0.061032   2 
@   5      -79.992263    -0.000000     0.000672    0    0.008164    0.007871   0 
@   6      -79.992263    -0.000000     0.000350    0    0.007671*   0.008164   0 
@   7      -79.992264    -0.000000     0.000028    0    0.003732*   0.009205   0 

@  *) Newton step taken.


   Interatomic separations (in Angstrom):
   --------------------------------------

            C   _1      C   _2      H   _1      H   _2      H   _3      H   _4
            ------      ------      ------      ------      ------      ------
 C   _1:    0.000000
 C   _2:    3.498195    0.000000
 H   _1:    1.104411    3.308885    0.000000
 H   _2:    1.104411    3.308885    1.802243    0.000000
 H   _3:    3.308885    1.104411    2.975136    3.478436    0.000000
 H   _4:    3.308885    1.104411    3.478436    2.975136    1.802243    0.000000
 H   _1:    1.104395    3.271648    1.802124    1.802124    2.933734    2.933734
 H   _2:    3.271648    1.104395    2.933734    2.933734    1.802124    1.802124
 H   _1:    1.104705    4.602690    1.805035    1.805035    4.367843    4.367843
 H   _2:    4.602690    1.104705    4.367843    4.367843    1.805035    1.805035

            H   _1      H   _2      H   _1      H   _2
            ------      ------      ------      ------
 H   _1:    0.000000
 H   _2:    3.407253    0.000000
 H   _1:    1.805080    4.339680    0.000000
 H   _2:    4.339680    1.805080    5.707266    0.000000


  Max    interatomic separation is    5.7073 Angstrom (   10.7852 Bohr)
  between atoms   10 and    9, "H   _2" and "H   _1".

  Min HX interatomic separation is    1.1044 Angstrom (    2.0870 Bohr)

  Min YX interatomic separation is    3.4982 Angstrom (    6.6106 Bohr)


  Bond distances (Angstrom):
  --------------------------

                  atom 1     atom 2       distance
                  ------     ------       --------
  bond distance:  H   _1     C   _1       1.104411
  bond distance:  H   _2     C   _1       1.104411
  bond distance:  H   _3     C   _2       1.104411
  bond distance:  H   _4     C   _2       1.104411
  bond distance:  H   _1     C   _1       1.104395
  bond distance:  H   _2     C   _2       1.104395
  bond distance:  H   _1     C   _1       1.104705
  bond distance:  H   _2     C   _2       1.104705


  Bond angles (degrees):
  ----------------------

                  atom 1     atom 2     atom 3         angle
                  ------     ------     ------         -----
  bond angle:     H   _1     C   _1     H   _2       109.359
  bond angle:     H   _1     C   _1     H   _1       109.349
  bond angle:     H   _1     C   _1     H   _1       109.588
  bond angle:     H   _2     C   _1     H   _1       109.349
  bond angle:     H   _2     C   _1     H   _1       109.588
  bond angle:     H   _1     C   _1     H   _1       109.593
  bond angle:     H   _3     C   _2     H   _4       109.359
  bond angle:     H   _3     C   _2     H   _2       109.349
  bond angle:     H   _3     C   _2     H   _2       109.588
  bond angle:     H   _4     C   _2     H   _2       109.349
  bond angle:     H   _4     C   _2     H   _2       109.588
  bond angle:     H   _2     C   _2     H   _2       109.593



@ Geometry converged in  8 iterations!

@ Energy at final geometry is       :     -79.992264 a.u.
@ Energy change during optimization :      -0.001566 a.u.
@                                             -4.112 kJ/mol

 >>>> Total CPU  time used in DALTON:  30.37 seconds
 >>>> Total wall time used in DALTON:  32.40 seconds

 
     Date and time (Linux)  : Sun Sep  8 21:18:29 2013
     Host name              : lpqlx131.ups-tlse.fr                    
