

     ************************************************************************
     *************** Dalton - An Electronic Structure Program ***************
     ************************************************************************

    This is output from DALTON (Release Dalton2013 patch 0)
   ----------------------------------------------------------------------------
    NOTE:
     
    Dalton is an experimental code for the evaluation of molecular
    properties using (MC)SCF, DFT, CI, and CC wave functions.
    The authors accept no responsibility for the performance of
    the code or for the correctness of the results.
     
    The code (in whole or part) is provided under a licence and
    is not to be reproduced for further distribution without
    the written permission of the authors or their representatives.
     
    See the home page "http://daltonprogram.org" for further information.
     
    If results obtained with this code are published,
    the appropriate citations would be both of:
     
       K. Aidas, C. Angeli, K. L. Bak, V. Bakken, R. Bast,
       L. Boman, O. Christiansen, R. Cimiraglia, S. Coriani,
       P. Dahle, E. K. Dalskov, U. Ekstroem, T. Enevoldsen,
       J. J. Eriksen, P. Ettenhuber, B. Fernandez, L. Ferrighi,
       H. Fliegl, L. Frediani, K. Hald, A. Halkier, C. Haettig,
       H. Heiberg, T. Helgaker, A. C. Hennum, H. Hettema,
       E. Hjertenaes, S. Hoest, I.-M. Hoeyvik, M. F. Iozzi,
       B. Jansik, H. J. Aa. Jensen, D. Jonsson, P. Joergensen,
       J. Kauczor, S. Kirpekar, T. Kjaergaard, W. Klopper,
       S. Knecht, R. Kobayashi, H. Koch, J. Kongsted, A. Krapp,
       K. Kristensen, A. Ligabue, O. B. Lutnaes, J. I. Melo,
       K. V. Mikkelsen, R. H. Myhre, C. Neiss, C. B. Nielsen,
       P. Norman, J. Olsen, J. M. H. Olsen, A. Osted,
       M. J. Packer, F. Pawlowski, T. B. Pedersen, P. F. Provasi,
       S. Reine, Z. Rinkevicius, T. A. Ruden, K. Ruud, V. Rybkin,
       P. Salek, C. C. M. Samson, A. Sanchez de Meras, T. Saue,
       S. P. A. Sauer, B. Schimmelpfennig, K. Sneskov,
       A. H. Steindal, K. O. Sylvester-Hvid, P. R. Taylor,
       A. M. Teale, E. I. Tellgren, D. P. Tew, A. J. Thorvaldsen,
       L. Thoegersen, O. Vahtras, M. A. Watson, D. J. D. Wilson,
       M. Ziolkowski and H. Agren.
       The Dalton quantum chemistry program system.
       WIREs Comput. Mol. Sci. 2013. doi: 10.1002/wcms.1172
    
    and
    
       Dalton, a Molecular Electronic Structure Program,
       Release DALTON2013.0 (2013), see http://daltonprogram.org
   ----------------------------------------------------------------------------

    Authors in alphabetical order (major contribution(s) in parenthesis):

  Kestutis Aidas,           Vilnius University,           Lithuania   (QM/MM)
  Celestino Angeli,         University of Ferrara,        Italy       (NEVPT2)
  Keld L. Bak,              UNI-C,                        Denmark     (AOSOPPA, non-adiabatic coupling, magnetic properties)
  Vebjoern Bakken,          University of Oslo,           Norway      (DALTON; geometry optimizer, symmetry detection)
  Radovan Bast,             KTH Stockholm                 Sweden      (DALTON installation and execution frameworks)
  Linus Boman,              NTNU,                         Norway      (Cholesky decomposition and subsystems)
  Ove Christiansen,         Aarhus University,            Denmark     (CC module)
  Renzo Cimiraglia,         University of Ferrara,        Italy       (NEVPT2)
  Sonia Coriani,            University of Trieste,        Italy       (CC module, MCD in RESPONS)
  Paal Dahle,               University of Oslo,           Norway      (Parallelization)
  Erik K. Dalskov,          UNI-C,                        Denmark     (SOPPA)
  Thomas Enevoldsen,        Univ. of Southern Denmark,    Denmark     (SOPPA)
  Janus J. Eriksen,         Aarhus University,            Denmark     (PE-MP2/SOPPA, TDA)
  Berta Fernandez,          U. of Santiago de Compostela, Spain       (doublet spin, ESR in RESPONS)
  Lara Ferrighi,            Aarhus University,            Denmark     (PCM Cubic response)
  Heike Fliegl,             University of Oslo,           Norway      (CCSD(R12))
  Luca Frediani,            UiT The Arctic U. of Norway,  Norway      (PCM)
  Bin Gao,                  UiT The Arctic U. of Norway,  Norway      (Gen1Int library)
  Christof Haettig,         Ruhr-University Bochum,       Germany     (CC module)
  Kasper Hald,              Aarhus University,            Denmark     (CC module)
  Asger Halkier,            Aarhus University,            Denmark     (CC module)
  Hanne Heiberg,            University of Oslo,           Norway      (geometry analysis, selected one-electron integrals)
  Trygve Helgaker,          University of Oslo,           Norway      (DALTON; ABACUS, ERI, DFT modules, London, and much more)
  Alf Christian Hennum,     University of Oslo,           Norway      (Parity violation)
  Hinne Hettema,            University of Auckland,       New Zealand (quadratic response in RESPONS; SIRIUS supersymmetry)
  Eirik Hjertenaes,         NTNU,                         Norway      (Cholesky decomposition)
  Maria Francesca Iozzi,    University of Oslo,           Norway      (RPA)
  Brano Jansik              Technical Univ. of Ostrava    Czech Rep.  (DFT cubic response)
  Hans Joergen Aa. Jensen,  Univ. of Southern Denmark,    Denmark     (DALTON; SIRIUS, RESPONS, ABACUS modules, London, and much more)
  Dan Jonsson,              UiT The Arctic U. of Norway,  Norway      (cubic response in RESPONS module)
  Poul Joergensen,          Aarhus University,            Denmark     (RESPONS, ABACUS, and CC modules)
  Joanna Kauczor,           Linkoeping University,        Sweden      (Complex polarization propagator (CPP) module)
  Sheela Kirpekar,          Univ. of Southern Denmark,    Denmark     (Mass-velocity & Darwin integrals)
  Wim Klopper,              KIT Karlsruhe,                Germany     (R12 code in CC, SIRIUS, and ABACUS modules)
  Stefan Knecht,            ETH Zurich,                   Switzerland (Parallel CI and MCSCF)
  Rika Kobayashi,           Australian National Univ.,    Australia   (DIIS in CC, London in MCSCF)
  Henrik Koch,              NTNU,                         Norway      (CC module, Cholesky decomposition)
  Jacob Kongsted,           Univ. of Southern Denmark,    Denmark     (Polarizable embedding, QM/MM)
  Andrea Ligabue,           University of Modena,         Italy       (CTOCD, AOSOPPA)
  Ola B. Lutnaes,           University of Oslo,           Norway      (DFT Hessian)
  Juan I. Melo,             University of Buenos Aires,   Argentina   (LRESC, Relativistic Effects on NMR Shieldings)
  Kurt V. Mikkelsen,        University of Copenhagen,     Denmark     (MC-SCRF and QM/MM)
  Rolf H. Myhre,            NTNU,                         Norway      (Cholesky, subsystems and ECC2)
  Christian Neiss,          Univ. Erlangen-Nuernberg,     Germany     (CCSD(R12))
  Christian B. Nielsen,     University of Copenhagen,     Denmark     (QM/MM)
  Patrick Norman,           Linkoeping University,        Sweden      (Cubic response and complex response in RESPONS)
  Jeppe Olsen,              Aarhus University,            Denmark     (SIRIUS CI/density modules)
  Jogvan Magnus H. Olsen,   Univ. of Southern Denmark,    Denmark     (Polarizable embedding, PE library, QM/MM)
  Anders Osted,             Copenhagen University,        Denmark     (QM/MM)
  Martin J. Packer,         University of Sheffield,      UK          (SOPPA)
  Filip Pawlowski,          Kazimierz Wielki University   Poland      (CC3)
  Thomas B. Pedersen,       University of Oslo,           Norway      (Cholesky decomposition)
  Patricio F. Provasi,      University of Northeastern,   Argentina   (Analysis of coupling constants in localized orbitals)
  Zilvinas Rinkevicius,     KTH Stockholm,                Sweden      (open-shell DFT, ESR)
  Elias Rudberg,            KTH Stockholm,                Sweden      (DFT grid and basis info)
  Torgeir A. Ruden,         University of Oslo,           Norway      (Numerical derivatives in ABACUS)
  Kenneth Ruud,             UiT The Arctic U. of Norway,  Norway      (DALTON; ABACUS magnetic properties and  much more)
  Pawel Salek,              KTH Stockholm,                Sweden      (DALTON; DFT code)
  Claire C. M. Samson       University of Karlsruhe       Germany     (Boys localization, r12 integrals in ERI)
  Alfredo Sanchez de Meras, University of Valencia,       Spain       (CC module, Cholesky decomposition)
  Trond Saue,               Paul Sabatier University,     France      (direct Fock matrix construction)
  Stephan P. A. Sauer,      University of Copenhagen,     Denmark     (SOPPA(CCSD), SOPPA prop., AOSOPPA, vibrational g-factors)
  Bernd Schimmelpfennig,    Forschungszentrum Karlsruhe,  Germany     (AMFI module)
  Kristian Sneskov,         Aarhus University,            Denmark     (QM/MM, PE-CC)
  Arnfinn H. Steindal,      UiT The Arctic U. of Norway,  Norway      (parallel QM/MM)
  K. O. Sylvester-Hvid,     University of Copenhagen,     Denmark     (MC-SCRF)
  Peter R. Taylor,          VLSCI/Univ. of Melbourne,     Australia   (Symmetry handling ABACUS, integral transformation)
  Andrew M. Teale,          University of Nottingham,     England     (DFT-AC, DFT-D)
  David P. Tew,             University of Bristol,        England     (CCSD(R12))
  Olav Vahtras,             KTH Stockholm,                Sweden      (triplet response, spin-orbit, ESR, TDDFT, open-shell DFT)
  David J. Wilson,          La Trobe University,          Australia   (DFT Hessian and DFT magnetizabilities)
  Hans Agren,               KTH Stockholm,                Sweden      (SIRIUS module, RESPONS, MC-SCRF solvation model)
 --------------------------------------------------------------------------------

     Date and time (Linux)  : Sun Sep  8 20:39:51 2013
     Host name              : lpqlx131.ups-tlse.fr                    

 * Work memory size             :    64000000 =  488.28 megabytes.

 * Directories for basis set searches:
   1) /home/bast/DALTON-2013.0-Source/build/test_dpt_h2s
   2) /home/bast/DALTON-2013.0-Source/build/basis


Compilation information
-----------------------

 Who compiled             | bast
 Host                     | lpqlx131.ups-tlse.fr
 System                   | Linux-3.8.5-201.fc18.x86_64
 CMake generator          | Unix Makefiles
 Processor                | x86_64
 64-bit integers          | OFF
 MPI                      | OFF
 Fortran compiler         | /usr/bin/gfortran
 Fortran compiler version | GNU Fortran (GCC) 4.7.2 20121109 (Red Hat 4.7.2-8)
 C compiler               | /usr/bin/gcc
 C compiler version       | gcc (GCC) 4.7.2 20121109 (Red Hat 4.7.2-8)
 C++ compiler             | /usr/bin/g++
 C++ compiler version     | g++ (GCC) 4.7.2 20121109 (Red Hat 4.7.2-8)
 Static linking           | OFF
 Last Git revision        | f34203295a86316e27f9e7b44f9b6769c4a046c0
 Configuration time       | 2013-09-08 20:31:27.952056


   Content of the .dal input file
 ----------------------------------

**DALTON INPUT                                    
.RUN WAVE FUNCTIONS                               
**INTEGRAL                                        
.DIPLEN                                           
.THETA                                            
.EFGCAR                                           
.SECMOM                                           
.DARWIN                                           
.MASSVELO                                         
.DPTPOT                                           
.KINENER                                          
**WAVE FUNCTION                                   
.CC                                               
*SCF INP                                          
.THRESH                                           
 1.0D-10                                          
*CC INP                                           
.CCS                                              
.CCSD                                             
.PRINT                                            
 4                                                
.THRENR                                           
1.0D-10                                           
.THRLEQ                                           
1.0D-07                                           
*CCFOP                                            
.ALLONE                                           
.DPTECO                                           
.2ELDAR                                           
**END OF DALTON INPUT                             


   Content of the .mol file
 ----------------------------

BASIS                                                                          
cc-pVDZ                                                                        
First-order relativistic corrections                                           
                                                                               
    2    2  X  Y      1.00D-15                                                 
       16.0   1                                                                
S       0.00000000000000    0.00000000000000    0.00000000000000       *       
        1.0   1                                                                
H       1.82237883747756    0.00000000000000    1.75080674629681       *       


       *******************************************************************
       *********** Output from DALTON general input processing ***********
       *******************************************************************

 --------------------------------------------------------------------------------
   Overall default print level:    0
   Print level for DALTON.STAT:    1

    HERMIT 1- and 2-electron integral sections will be executed
    "Old" integral transformation used (limited to max 255 basis functions)
    Wave function sections will be executed (SIRIUS module)
 --------------------------------------------------------------------------------


   ****************************************************************************
   *************** Output of molecule and basis set information ***************
   ****************************************************************************


    The two title cards from your ".mol" input:
    ------------------------------------------------------------------------
 1: First-order relativistic corrections                                    
 2:                                                                         
    ------------------------------------------------------------------------

  Atomic type no.    1
  --------------------
  Nuclear charge:  16.00000
  Number of symmetry independent centers:    1
  Number of basis sets to read;    2
  Basis set file used for this atomic type with Z =  16 :
     "/home/bast/DALTON-2013.0-Source/build/basis/cc-pVDZ"

  Atomic type no.    2
  --------------------
  Nuclear charge:   1.00000
  Number of symmetry independent centers:    1
  Number of basis sets to read;    2
  Basis set file used for this atomic type with Z =   1 :
     "/home/bast/DALTON-2013.0-Source/build/basis/cc-pVDZ"


                         SYMGRP: Point group information
                         -------------------------------

Point group: C2v

   * The point group was generated by:

      Reflection in the yz-plane
      Reflection in the xz-plane

   * Group multiplication table

        |  E   C2z  Oxz  Oyz
   -----+--------------------
     E  |  E   C2z  Oxz  Oyz
    C2z | C2z   E   Oyz  Oxz
    Oxz | Oxz  Oyz   E   C2z
    Oyz | Oyz  Oxz  C2z   E 

   * Character table

        |  E   C2z  Oxz  Oyz
   -----+--------------------
    A1  |   1    1    1    1
    B1  |   1   -1    1   -1
    B2  |   1   -1   -1    1
    A2  |   1    1   -1   -1

   * Direct product table

        | A1   B1   B2   A2 
   -----+--------------------
    A1  | A1   B1   B2   A2 
    B1  | B1   A1   A2   B2 
    B2  | B2   A2   A1   B1 
    A2  | A2   B2   B1   A1 


                                 Isotopic Masses
                                 ---------------

                           S          31.972072
                           H   _1      1.007825
                           H   _2      1.007825

                       Total mass:    33.987722 amu
                       Natural abundance:  94.991 %

 Center-of-mass coordinates (a.u.):    0.000000    0.000000    0.103832


  Atoms and basis sets
  --------------------

  Number of atom types :    2
  Total number of atoms:    3

  Basis set used is "cc-pVDZ" from the basis set library.

  label    atoms   charge   prim   cont     basis
  ----------------------------------------------------------------------
  S           1   16.0000    41    18      [12s8p1d|4s3p1d]                                   
  H           2    1.0000     7     5      [4s1p|2s1p]                                        
  ----------------------------------------------------------------------
  total:      3   18.0000    55    28
  ----------------------------------------------------------------------
  Spherical harmonic basis used.

  Threshold for neglecting AO integrals:  1.00D-15


  Cartesian Coordinates (a.u.)
  ----------------------------

  Total number of coordinates:    9
  S       :     1  x   0.0000000000    2  y   0.0000000000    3  z   0.0000000000
  H   / 1 :     4  x   1.8223788375    5  y   0.0000000000    6  z   1.7508067463
  H   / 2 :     7  x  -1.8223788375    8  y   0.0000000000    9  z   1.7508067463


  Symmetry Coordinates
  --------------------

  Number of coordinates in each symmetry:     3    3    2    1

  Symmetry  A1  ( 1)

    1   S     z    3
    2   H     x    [  4  -    7 ]/2
    3   H     z    [  6  +    9 ]/2

  Symmetry  B1  ( 2)

    4   S     x    1
    5   H     x    [  4  +    7 ]/2
    6   H     z    [  6  -    9 ]/2

  Symmetry  B2  ( 3)

    7   S     y    2
    8   H     y    [  5  +    8 ]/2

  Symmetry  A2  ( 4)

    9   H     y    [  5  -    8 ]/2


   Interatomic separations (in Angstrom):
   --------------------------------------

            S           H   _1      H   _2
            ------      ------      ------
 S     :    0.000000
 H   _1:    1.337300    0.000000
 H   _2:    1.337300    1.928723    0.000000


  Max    interatomic separation is    1.9287 Angstrom (    3.6448 Bohr)
  between atoms    3 and    2, "H   _2" and "H   _1".

  Min HX interatomic separation is    1.3373 Angstrom (    2.5271 Bohr)


  Bond distances (Angstrom):
  --------------------------

                  atom 1     atom 2       distance
                  ------     ------       --------
  bond distance:  H   _1     S            1.337300
  bond distance:  H   _2     S            1.337300


  Bond angles (degrees):
  ----------------------

                  atom 1     atom 2     atom 3         angle
                  ------     ------     ------         -----
  bond angle:     H   _1     S          H   _2        92.295




 Principal moments of inertia (u*A**2) and principal axes
 --------------------------------------------------------

   IA       1.627581          1.000000    0.000000    0.000000
   IB       1.874540          0.000000    0.000000    1.000000
   IC       3.502121          0.000000    1.000000    0.000000


 Rotational constants
 --------------------

 The molecule is planar.

               A                   B                   C

         310509.3346         269601.6100         144306.5629 MHz
           10.357477            8.992942            4.813549 cm-1


@  Nuclear repulsion energy :   12.936949454995 Hartree


  Symmetry Orbitals
  -----------------

  Number of orbitals in each symmetry:          13    8    5    2


  Symmetry  A1 ( 1)

    1     S        1s         1
    2     S        1s         2
    3     S        1s         3
    4     S        1s         4
    5     S        2pz        7
    6     S        2pz       10
    7     S        2pz       13
    8     S        3d0       16
    9     S        3d2+      18
   10     H        1s        19 +   20
   11     H        1s        21 +   22
   12     H        2px       23 -   24
   13     H        2pz       27 +   28


  Symmetry  B1 ( 2)

   14     S        2px        5
   15     S        2px        8
   16     S        2px       11
   17     S        3d1+      17
   18     H        1s        19 -   20
   19     H        1s        21 -   22
   20     H        2px       23 +   24
   21     H        2pz       27 -   28


  Symmetry  B2 ( 3)

   22     S        2py        6
   23     S        2py        9
   24     S        2py       12
   25     S        3d1-      15
   26     H        2py       25 +   26


  Symmetry  A2 ( 4)

   27     S        3d2-      14
   28     H        2py       25 -   26

  Symmetries of electric field:  B1 (2)  B2 (3)  A1 (1)

  Symmetries of magnetic field:  B2 (3)  B1 (2)  A2 (4)


                     .---------------------------------------.
                     | Starting in Integral Section (HERMIT) |
                     `---------------------------------------'



    *************************************************************************
    ****************** Output from HERMIT input processing ******************
    *************************************************************************


 Default print level:        1

 * Nuclear model: Point charge

 Calculation of one- and two-electron Hamiltonian integrals.

 The following one-electron property integrals are calculated as requested:
          - overlap integrals
          - dipole length integrals
          - traceless quadrupole moment integrals
          - second moment integrals
          - electronic kinetic energy
          - mass velocity integrals
          - 1-electron Darwin integrals
          - Cartesien electric field gradient integrals
          - small component potential energy for DPT

 Center of mass  (bohr):      0.000000000000      0.000000000000      0.103832013754
 Operator center (bohr):      0.000000000000      0.000000000000      0.000000000000
 Gauge origin    (bohr):      0.000000000000      0.000000000000      0.000000000000
 Dipole origin   (bohr):      0.000000000000      0.000000000000      0.000000000000


     ************************************************************************
     ************************** Output from HERINT **************************
     ************************************************************************


 Threshold for neglecting two-electron integrals:  1.00D-15
 Number of two-electron integrals written:       20351 ( 24.6% )
 Megabytes written:                              0.234

 >>>> Total CPU  time used in HERMIT:   0.09 seconds
 >>>> Total wall time used in HERMIT:   0.10 seconds


                        .----------------------------------.
                        | End of Integral Section (HERMIT) |
                        `----------------------------------'



                   .--------------------------------------------.
                   | Starting in Wave Function Section (SIRIUS) |
                   `--------------------------------------------'


 *** Output from Huckel module :

     Using EWMO model:          F
     Using EHT  model:          T
     Number of Huckel orbitals each symmetry:    8    4    3    1

 Huckel EHT eigenvalues for symmetry :  1
          -92.015373      -9.030916      -6.689759      -1.091292      -0.536591
           -0.240124      -0.055556      -0.046848

 Huckel EHT eigenvalues for symmetry :  2
           -6.689879      -0.612599      -0.259266      -0.030065

 Huckel EHT eigenvalues for symmetry :  3
           -6.688000      -0.426300      -0.055556

 Huckel EHT eigenvalues for symmetry :  4
           -0.055556

 **********************************************************************
 *SIRIUS* a direct, restricted step, second order MCSCF program       *
 **********************************************************************

 
     Date and time (Linux)  : Sun Sep  8 20:39:51 2013
     Host name              : lpqlx131.ups-tlse.fr                    

 Title lines from ".mol" input file:
     First-order relativistic corrections                                    
                                                                             

 Print level on unit LUPRI =   2 is   0
 Print level on unit LUW4  =   2 is   5

@    (Integral direct) CC calculation.

@    This is a combination run starting with
@              a restricted, closed shell Hartree-Fock calculation


 Initial molecular orbitals are obtained according to
 ".MOSTART EHT   " input option

     Wave function specification
     ============================

     For the specification of the Coupled Cluster: see later.

@    For the wave function of type :      >>> CC <<<
@    Number of closed shell electrons          18
@    Number of electrons in active shells       0
@    Total charge of the molecule               0

@    Spin multiplicity and 2 M_S                1         0
     Total number of symmetries                 4
@    Reference state symmetry                   1

     Orbital specifications
     ======================
     Abelian symmetry species          All |    1    2    3    4
                                       --- |  ---  ---  ---  ---
     Total number of orbitals           28 |   13    8    5    2
     Number of basis functions          28 |   13    8    5    2

      ** Automatic occupation of RHF orbitals **

      -- Initial occupation of symmetries is determined from extended Huckel guess.           
      -- Initial occupation of symmetries is :
@    Occupied SCF orbitals               9 |    5    2    2    0

     Maximum number of Fock   iterations      0
     Maximum number of DIIS   iterations     60
     Maximum number of QC-SCF iterations     60
     Threshold for SCF convergence     1.00D-10


 Changes of defaults for CC:
 ---------------------------

 -Dipole moment calculated
 -Traceless quadrupole moment calculated
 -Electric field gradient calculated
 -Relativistic corrections to energy calculated
 -Electronic second moment of charge calculated
 -Relativistic two-electron Darwin term calculated
 -First-order DPT energy corrections calculated
  


 >>>>> DIIS optimization of Hartree-Fock <<<<<

 C1-DIIS algorithm; max error vectors =   10

 Automatic occupation of symmetries with  18 electrons.

 Iter     Total energy    Error norm  Delta(E)    SCF occupation
 -----------------------------------------------------------------------------
     (Precalculated two-electron integrals are transformed to P-supermatrix elements.
      Threshold for discarding integrals :  1.00D-15 )
@  1  -398.605146572       1.34D+00  -3.99D+02     5   2   2   0
      Virial theorem: -V/T =      2.001190
@      MULPOP S       0.17; H   _1 -0.09; H   _2 -0.09; 
 -----------------------------------------------------------------------------
@  2  -398.689855047       2.11D-01  -8.47D-02     5   2   2   0
      Virial theorem: -V/T =      1.999130
@      MULPOP S      -0.08; H   _1  0.04; H   _2  0.04; 
 -----------------------------------------------------------------------------
@  3  -398.694159169       5.32D-02  -4.30D-03     5   2   2   0
      Virial theorem: -V/T =      2.000191
@      MULPOP S      -0.11; H   _1  0.06; H   _2  0.06; 
 -----------------------------------------------------------------------------
@  4  -398.694533879       1.45D-02  -3.75D-04     5   2   2   0
      Virial theorem: -V/T =      2.000021
@      MULPOP S      -0.15; H   _1  0.07; H   _2  0.07; 
 -----------------------------------------------------------------------------
@  5  -398.694571532       2.06D-03  -3.77D-05     5   2   2   0
      Virial theorem: -V/T =      2.000062
@      MULPOP S      -0.15; H   _1  0.08; H   _2  0.08; 
 -----------------------------------------------------------------------------
@  6  -398.694572216       5.66D-04  -6.84D-07     5   2   2   0
      Virial theorem: -V/T =      2.000058
@      MULPOP S      -0.16; H   _1  0.08; H   _2  0.08; 
 -----------------------------------------------------------------------------
@  7  -398.694572274       8.88D-05  -5.78D-08     5   2   2   0
      Virial theorem: -V/T =      2.000059
@      MULPOP S      -0.16; H   _1  0.08; H   _2  0.08; 
 -----------------------------------------------------------------------------
@  8  -398.694572276       1.11D-05  -1.50D-09     5   2   2   0
      Virial theorem: -V/T =      2.000059
@      MULPOP S      -0.16; H   _1  0.08; H   _2  0.08; 
 -----------------------------------------------------------------------------
@  9  -398.694572276       1.34D-06  -2.05D-11     5   2   2   0
      Virial theorem: -V/T =      2.000059
@      MULPOP S      -0.16; H   _1  0.08; H   _2  0.08; 
 -----------------------------------------------------------------------------
@ 10  -398.694572276       1.54D-07  -3.98D-13     5   2   2   0
      Virial theorem: -V/T =      2.000059
@      MULPOP S      -0.16; H   _1  0.08; H   _2  0.08; 
 -----------------------------------------------------------------------------
@ 11  -398.694572276       2.71D-08   5.68D-14     5   2   2   0
      Virial theorem: -V/T =      2.000059
@      MULPOP S      -0.16; H   _1  0.08; H   _2  0.08; 
 -----------------------------------------------------------------------------
@ 12  -398.694572276       3.25D-09   5.68D-14     5   2   2   0
      Virial theorem: -V/T =      2.000059
@      MULPOP S      -0.16; H   _1  0.08; H   _2  0.08; 
 -----------------------------------------------------------------------------
@ 13  -398.694572276       5.40D-10  -1.14D-13     5   2   2   0
      Virial theorem: -V/T =      2.000059
@      MULPOP S      -0.16; H   _1  0.08; H   _2  0.08; 
 -----------------------------------------------------------------------------
@ 14  -398.694572276       5.92D-11   1.14D-13     5   2   2   0

@ *** DIIS converged in  14 iterations !
@     Converged SCF energy, gradient:   -398.694572275674    5.92D-11
    - total time used in SIRFCK :              0.00 seconds


 *** SCF orbital energy analysis ***

 Only the five lowest virtual orbital energies printed in each symmetry.

 Number of electrons :   18
 Orbital occupations :    5    2    2    0

 Sym       Hartree-Fock orbital energies

  1    -91.96237461    -8.96489890    -6.64583200    -0.97950445    -0.49585965
         0.16161473     0.55354830     0.69312820     0.73744396     0.86961204

  2     -6.64698439    -0.58555659     0.17308928     0.45751902     0.80110611
         1.26502462     1.61680790

  3     -6.64316097    -0.38021275     0.69852446     0.78765187     1.75215513


  4      0.77595341     1.64859855

    E(LUMO) :     0.16161473 au (symmetry 1)
  - E(HOMO) :    -0.38021275 au (symmetry 3)
  ------------------------------------------
    gap     :     0.54182749 au

 >>> Writing SIRIFC interface file <<<

 >>>> CPU and wall time for SCF :       0.010       0.009


                       .-----------------------------------.
                       | >>> Final results from SIRIUS <<< |
                       `-----------------------------------'


@    Spin multiplicity:           1
@    Spatial symmetry:            1
@    Total charge of molecule:    0

@    Final HF energy:            -398.694572275674                 
@    Nuclear repulsion:            12.936949454995
@    Electronic energy:          -411.631521730669

@    Final gradient norm:           0.000000000059

 
     Date and time (Linux)  : Sun Sep  8 20:39:51 2013
     Host name              : lpqlx131.ups-tlse.fr                    

 (Only coefficients >0.0100 are printed.)

 Molecular orbitals for symmetry species  1
 ------------------------------------------

    Orbital         1        2        3        4        5        6        7
   1 S   :1s     1.0000   0.0002   0.0000   0.0001   0.0021   0.0197   0.0041
   2 S   :1s     0.0001   1.0019  -0.0061  -0.0064   0.0081   0.1264   0.0230
   3 S   :1s     0.0002   0.0056   0.0033   0.8568  -0.3660  -0.1283  -0.1190
   4 S   :1s    -0.0003  -0.0077  -0.0031  -0.0672  -0.1674  -1.3827   0.0866
   5 S   :2pz    0.0001   0.0074   1.0000  -0.0106  -0.0113   0.0102   0.0602
   6 S   :2pz    0.0001   0.0036  -0.0003   0.1234   0.7633  -0.3458   0.3225
   7 S   :2pz   -0.0001  -0.0044  -0.0007  -0.0485  -0.0606  -0.7497  -0.7628
   8 S   :3d0    0.0000   0.0002   0.0004   0.0061   0.0284  -0.0067   0.1303
   9 S   :3d2+   0.0000   0.0005   0.0000   0.0105   0.0292   0.0177   0.4505
  10 H   :1s    -0.0001  -0.0009   0.0007   0.3148   0.3670   0.1287   1.1330
  11 H   :1s     0.0001   0.0031  -0.0000  -0.1329  -0.0957   1.1114  -0.9847
  12 H   :2px    0.0000   0.0007  -0.0001  -0.0203  -0.0174  -0.0059   0.0505
  13 H   :2pz    0.0000   0.0007  -0.0002  -0.0174  -0.0030  -0.0072  -0.0103

 Molecular orbitals for symmetry species  2
 ------------------------------------------

    Orbital         1        2        3        4
   1 S   :2px    1.0001  -0.0140   0.0173   0.0674
   2 S   :2px    0.0013   0.6866  -0.4950   0.5167
   3 S   :2px   -0.0016  -0.1397  -0.8892  -0.5133
   4 S   :3d1+   0.0007   0.0866   0.0979   0.3614
   5 H   :1s     0.0002   0.5357   0.3205   0.9610
   6 H   :1s     0.0001  -0.1365   0.9717  -1.4603
   7 H   :2px   -0.0000  -0.0107  -0.0073   0.0022
   8 H   :2pz   -0.0000  -0.0209   0.0044   0.0206

 Molecular orbitals for symmetry species  3
 ------------------------------------------

    Orbital         1        2        3        4
   1 S   :2py    0.9998  -0.0046  -0.2167  -0.0157
   2 S   :2py   -0.0030   0.9381  -2.0312  -0.2019
   3 S   :2py    0.0016   0.0588   2.2634   0.1207
   4 S   :3d1-   0.0003   0.0205  -0.0588   0.9161
   5 H   :2py    0.0000   0.0205  -0.0323   0.1440

 Molecular orbitals for symmetry species  4
 ------------------------------------------

    Orbital         1        2
   1 S   :3d2-   0.9033  -0.5486
   2 H   :2py    0.1610   0.7328



 >>>> Total CPU  time used in SIRIUS :      0.01 seconds
 >>>> Total wall time used in SIRIUS :      0.01 seconds

 
     Date and time (Linux)  : Sun Sep  8 20:39:51 2013
     Host name              : lpqlx131.ups-tlse.fr                    


                     .---------------------------------------.
                     | End of Wave Function Section (SIRIUS) |
                     `---------------------------------------'



                    .------------------------------------------.
                    | Starting in Coupled Cluster Section (CC) |
                    `------------------------------------------'

  

 *******************************************************************************
 *******************************************************************************
 *                                                                             *
 *                                                                             *
 *                    START OF COUPLED CLUSTER CALCULATION                     *
 *                                                                             *
 *                                                                             *
 *******************************************************************************
 *******************************************************************************



 CCR12 ANSATZ =   0

 CCR12 APPROX =   0

   

 *******************************************************************
 *                                                                 *
 *<<<<<<<<<<                                             >>>>>>>>>>*
 *<<<<<<<<<< OUTPUT FROM COUPLED CLUSTER ENERGY PROGRAM  >>>>>>>>>>*
 *<<<<<<<<<<                                             >>>>>>>>>>*
 *                                                                 *
 *******************************************************************


             The Direct Coupled Cluster Energy Program
             -----------------------------------------


          Number of t1 amplitudes                 :        58
          Number of t2 amplitudes                 :      4022
          Total number of amplitudes in ccsd      :      4080



          CCS CALC. - NO WAVEFUNCTION OPTIMIZATION
   

 *******************************************************************
 *                                                                 *
 *<<<<<<<<<<<<< OUTPUT FROM COUPLED CLUSTER RESPONSE  >>>>>>>>>>>>>*
 *                                                                 *
 *<<<<<<<<<<    CALCULATION OF FIRST ORDER PROPERTIES    >>>>>>>>>>*
 *                                                                 *
 *******************************************************************



                         +-------------------------------+
                         ! Coupled Cluster model is: CCS !
                         +-------------------------------+

  


             +--------------------------------------------------------+
             !   Relaxed  CCS    First-order one-electron properties: !
             +--------------------------------------------------------+



                            +-------------------------+
                            !  Electric Dipole Moment !
                            +-------------------------+



                          Total Molecular Dipole Moment
                          -----------------------------

                 au               Debye          C m (/(10**-30)

      z      0.51121899         1.29938897         4.33429507




                          +-----------------------------+
                          !  Electric Quadrupole Moment !
                          +-----------------------------+



                        Total Molecular quadrupole moment
                        ---------------------------------

                    X              Y              Z

               Column   1     Column   2     Column   3
       1       1.95992694     0.00000000     0.00000000
       2       0.00000000    -2.76716914     0.00000000
       3       0.00000000     0.00000000     0.80724220
    ==== End of matrix output ====


                      +-------------------------------------+
                      !  Electronic second moment of charge !
                      +-------------------------------------+

                    X              Y              Z

               Column   1     Column   2     Column   3
       1      15.69140426     0.00000000     0.00000000
       2       0.00000000    12.20067239     0.00000000
       3       0.00000000     0.00000000    15.94838003
    ==== End of matrix output ====

 Alfa**2 Invariant:                        213.553960
 Beta**2 Invariant:                         13.148279

 Isotropic Property:                        14.613486 a.u.
 Property anisotropy invariant:              3.626056 a.u.


                           +---------------------------+
                           !  Electric Field Gradients !
                           +---------------------------+



      *********************************************************************
      **************** ABACUS - Nuclear Quadrupole moments ****************
      *********************************************************************


Total non-diagonalized EFG Tensor   S     

               Column   1     Column   2     Column   3
       1       2.03434531     0.00000000     0.00000000
       2       0.00000000    -2.47477418     0.00000000
       3       0.00000000     0.00000000     0.44042887
    ==== End of matrix output ====

Total non-diagonalized EFG Tensor   H   _1

               Column   1     Column   2     Column   3
       1       0.08837848     0.00000000     0.18296151
       2       0.00000000    -0.15171274     0.00000000
       3       0.18296151     0.00000000     0.06333426
    ==== End of matrix output ====

Total non-diagonalized EFG Tensor   H   _2

               Column   1     Column   2     Column   3
       1       0.08837848     0.00000000    -0.18296151
       2       0.00000000    -0.15171274     0.00000000
       3      -0.18296151     0.00000000     0.06333426
    ==== End of matrix output ====
 String on input: "S       "
 String on input: "S       "
 String on input: "H   _1  "
 String on input: "H__1    "
 String on input: "H   _2  "
 String on input: "H__2    "

EFG Principal axis                  S     

               Column   1     Column   2     Column   3
       1       1.00000000     0.00000000     0.00000000
       2       0.00000000     1.00000000     0.00000000
       3       0.00000000     0.00000000     1.00000000
    ==== End of matrix output ====

EFG Principal axis                  H   _1

               Column   1     Column   2     Column   3
       1       0.73084933     0.00000000    -0.68253884
       2       0.00000000     1.00000000     0.00000000
       3       0.68253884     0.00000000     0.73084933
    ==== End of matrix output ====

EFG Principal axis                  H   _2

               Column   1     Column   2     Column   3
       1       0.73084933     0.00000000     0.68253884
       2       0.00000000     1.00000000     0.00000000
       3      -0.68253884     0.00000000     0.73084933
    ==== End of matrix output ====


                         Nuclear quadrupole moment for S
                         -------------------------------

          Spin     :  1.5          Quadrupole moment:-.06780000
                            au           MHz        Gauss
 S      33    Vx =       0.440429    -7.016301    -2.506494
 S      33    Vy =       2.034345   -32.408365   -11.577521
 S      33    Vz =      -2.474774    39.424667    14.084015
                 Asymmetry constant eta:      0.644065
                 Auxiliary value au  1/T  0.320462D-02


                       Nuclear quadrupole moment for H   _1
                       ------------------------------------

          Spin     :  1.0          Quadrupole moment:0.00286000
                            au           MHz        Gauss
 H   _1  2    Vx =      -0.107533    -0.072262    -0.025815
 H   _1  2    Vy =      -0.151713    -0.101951    -0.036421
 H   _1  2    Vz =       0.259246     0.174213     0.062236
                 Asymmetry constant eta:      0.170416
                 Auxiliary value au  1/T  0.208147D-06


                       Nuclear quadrupole moment for H   _2
                       ------------------------------------

          Spin     :  1.0          Quadrupole moment:0.00286000
                            au           MHz        Gauss
 H   _2  2    Vx =      -0.107533    -0.072262    -0.025815
 H   _2  2    Vy =      -0.151713    -0.101951    -0.036421
 H   _2  2    Vz =       0.259246     0.174213     0.062236
                 Asymmetry constant eta:      0.170416
                 Auxiliary value au  1/T  0.208147D-06


            +---------------------------------------------------------+
            !  First-order DPT corrections to the ground-state energy !
            +---------------------------------------------------------+

  
  
 One electron and reorthonormalization gradient calculation completed
 Total time used in CC_GRAD:   5.9999898076057434E-003
  
         DPTONE:     -2.098783757383
         ------ 
  
         DPTREO:      0.621248669979
         ------ 

 Number of two-electron spin-orbit integrals written:     11308 (24.9%)

 Number of two-electron spin-orbit integrals written:     23259 (22.7%)
 >>>  Time used in TWOINT     is   0.13 seconds

 Number of two-electron spin-orbit integrals written:     12435 (21.9%)

 Number of two-electron spin-orbit integrals written:     12668 (27.9%)

 Number of two-electron spin-orbit integrals written:     17420 (25.5%)
  
 Two-electron first-order property calculation completed
 Total time used in CC_2EEXP:  0.41100002825260162     
  
         DPTTWO:      0.367967781969
         ------ 
  
         Total first-order DPT correction:     -1.109567305434
         --------------------------------


           +------------------------------------------------------------+
           !  Pauli relativistic corrections to the ground-state energy !
           +------------------------------------------------------------+

  
         1-elec. Darwin term:      3.473561460
         ------------------- 
  
         Mass-Velocity term:      -4.548992342
         ------------------  
  
         Mass-Velocity + 1-elec. Darwin terms:      -1.075430882
         ------------------------------------ 

 Number of two-electron spin-orbit integrals written:     11308 (24.9%)

 Number of two-electron spin-orbit integrals written:     23223 (22.7%)

 Number of two-electron spin-orbit integrals written:     12365 (21.8%)

 Number of two-electron spin-orbit integrals written:     12668 (27.9%)

 Number of two-electron spin-orbit integrals written:     17420 (25.5%)
  
         2-elec. Darwin term:      -0.034116691
         ------------------- 
  
         Total relativistic correction:      -1.109547572
         ----------------------------- 
  
 Two-electron first-order property calculation completed
 Total time used in CC_2EEXP:  0.10600000619888306     

 *******************************************************************

 Ground state energy is target 

 Ecorr =                   -398.69457227567392010315

 *******************************************************************


 CCR12 ANSATZ =   0

 CCR12 APPROX =   0

   

 *******************************************************************
 *                                                                 *
 *<<<<<<<<<<                                             >>>>>>>>>>*
 *<<<<<<<<<< OUTPUT FROM COUPLED CLUSTER ENERGY PROGRAM  >>>>>>>>>>*
 *<<<<<<<<<<                                             >>>>>>>>>>*
 *                                                                 *
 *******************************************************************


             The Direct Coupled Cluster Energy Program
             -----------------------------------------


          Number of t1 amplitudes                 :        58
          Number of t2 amplitudes                 :      4022
          Total number of amplitudes in ccsd      :      4080

 Iter.  1: Coupled cluster MP2   energy :    -398.8464115019139058
     Conventional correlation energy:    -0.1518392262399857

       Iteration no.:  1
       -----------------

       Time used in   RHS - TOTAL  :       0.02 seconds
       Norm^2 of omega1 after ccvec:        0.6266139060D-03
       Norm^2 of omega2 after ccvec:        0.5642566461D-02
 Iter.  1: Coupled cluster CCSD  energy :    -398.8626765079337702
     Conventional correlation energy:    -0.1681042322598501

       Iteration no.:  2
       -----------------

       Time used in   RHS - TOTAL  :       0.02 seconds
       Norm^2 of omega1 after ccvec:        0.4095286907D-04
       Norm^2 of omega2 after ccvec:        0.4852987397D-03
 Iter.  2: Coupled cluster CCSD  energy :    -398.8679384866899227
     Conventional correlation energy:    -0.1733662110160026

       Iteration no.:  3
       -----------------

       Time used in   RHS - TOTAL  :       0.02 seconds
       Norm^2 of omega1 after ccvec:        0.1153953339D-05
       Norm^2 of omega2 after ccvec:        0.1386252235D-04
 Iter.  3: Coupled cluster CCSD  energy :    -398.8680948263607320
     Conventional correlation energy:    -0.1735225506868119

       Iteration no.:  4
       -----------------

       Time used in   RHS - TOTAL  :       0.02 seconds
       Norm^2 of omega1 after ccvec:        0.4116742224D-07
       Norm^2 of omega2 after ccvec:        0.8425101018D-06
 Iter.  4: Coupled cluster CCSD  energy :    -398.8681137814765520
     Conventional correlation energy:    -0.1735415058026319

       Iteration no.:  5
       -----------------

       Time used in   RHS - TOTAL  :       0.02 seconds
       Norm^2 of omega1 after ccvec:        0.7111038361D-08
       Norm^2 of omega2 after ccvec:        0.5063138486D-07
 Iter.  5: Coupled cluster CCSD  energy :    -398.8681026723482432
     Conventional correlation energy:    -0.1735303966743231

       Iteration no.:  6
       -----------------

       Time used in   RHS - TOTAL  :       0.02 seconds
       Norm^2 of omega1 after ccvec:        0.7765613687D-09
       Norm^2 of omega2 after ccvec:        0.3154014607D-08
 Iter.  6: Coupled cluster CCSD  energy :    -398.8681029148258972
     Conventional correlation energy:    -0.1735306391519771

       Iteration no.:  7
       -----------------

       Time used in   RHS - TOTAL  :       0.02 seconds
       Norm^2 of omega1 after ccvec:        0.5471770688D-10
       Norm^2 of omega2 after ccvec:        0.2129919137D-09
 Iter.  7: Coupled cluster CCSD  energy :    -398.8681029923686765
     Conventional correlation energy:    -0.1735307166947564

       Iteration no.:  8
       -----------------

       Time used in   RHS - TOTAL  :       0.02 seconds
       Norm^2 of omega1 after ccvec:        0.2401280060D-11
       Norm^2 of omega2 after ccvec:        0.1400104571D-10
 Iter.  8: Coupled cluster CCSD  energy :    -398.8681028382767408
     Conventional correlation energy:    -0.1735305626028207

       Iteration no.:  9
       -----------------

       Time used in   RHS - TOTAL  :       0.02 seconds
       Norm^2 of omega1 after ccvec:        0.8934834057D-13
       Norm^2 of omega2 after ccvec:        0.6432732296D-12
 Iter.  9: Coupled cluster CCSD  energy :    -398.8681028456206263
     Conventional correlation energy:    -0.1735305699467062

       Iteration no.: 10
       -----------------

       Time used in   RHS - TOTAL  :       0.02 seconds
       Norm^2 of omega1 after ccvec:        0.1655603589D-13
       Norm^2 of omega2 after ccvec:        0.1043374799D-12
 Iter. 10: Coupled cluster CCSD  energy :    -398.8681028478909525
     Conventional correlation energy:    -0.1735305722170324

       Iteration no.: 11
       -----------------

       Time used in   RHS - TOTAL  :       0.02 seconds
       Norm^2 of omega1 after ccvec:        0.1042403627D-14
       Norm^2 of omega2 after ccvec:        0.3402523903D-14
 Iter. 11: Coupled cluster CCSD  energy :    -398.8681028477420227
     Conventional correlation energy:    -0.1735305720681026

       Iteration no.: 12
       -----------------

       Time used in   RHS - TOTAL  :       0.02 seconds
       Norm^2 of omega1 after ccvec:        0.6892961182D-16
       Norm^2 of omega2 after ccvec:        0.5069198645D-15
 Iter. 12: Coupled cluster CCSD  energy :    -398.8681028479488759
     Conventional correlation energy:    -0.1735305722749558

       Iteration no.: 13
       -----------------

       Time used in   RHS - TOTAL  :       0.02 seconds
       Norm^2 of omega1 after ccvec:        0.4307525334D-17
       Norm^2 of omega2 after ccvec:        0.2175514476D-16
 Iter. 13: Coupled cluster CCSD  energy :    -398.8681028480081068
     Conventional correlation energy:    -0.1735305723341867

 CCSD  energy converged to within   0.10D-09 is         -398.868102848008
 Final 2-norm of the CC vector function:  5.10516112D-09


                    +------------------------------------------+
                    ! Largest amplitudes in converged solution !
                    +------------------------------------------+



          CC_PRAM:Overall Contribution of the Different Components
          --------------------------------------------------------



          Single Excitation Contribution :               0.8989 %

          Double Excitation Contribution :              99.1011 %

          ||T1||/||T2||                  :               0.0952

          Tau1 diagnostic                :               0.0048

          Norm of Total Amplitude Vector :               0.2149


 +=============================================================================+
 | symmetry|  orbital index  |   Excitation Numbers             |   Amplitude  |
 |  Index  |   a   b   i   j |      NAI      NBJ |     NAIBJ    |              |
 +=============================================================================+
 | 1   1   |   1       4     |       25          |              |   -0.002499  |
 | 1   1   |   5       4     |       29          |              |    0.004306  |
 | 1   1   |   1       5     |       33          |              |    0.003377  |
 | 1   1   |   2       5     |       34          |              |   -0.002659  |
 | 1   1   |   3       5     |       35          |              |   -0.004552  |
 | 1   1   |   4       5     |       36          |              |    0.005109  |
 | 1   1   |   5       5     |       37          |              |   -0.005256  |
 | 1   1   |   6       5     |       38          |              |   -0.008454  |
 | 2   2   |   1       2     |       47          |              |   -0.007790  |
 | 2   2   |   2       2     |       48          |              |   -0.003788  |
 | 2   2   |   3       2     |       49          |              |   -0.003194  |
 | 2   2   |   4       2     |       50          |              |   -0.008701  |
 | 3   3   |   1       2     |       56          |              |   -0.004337  |
 | 3   3   |   2       2     |       57          |              |    0.004776  |
 +-----------------------------------------------------------------------------+
 | 1 1 1 1 |   3   3   5   5 |       35       35 |          630 |   -0.029066  |
 | 1 1 1 1 |   4   4   5   5 |       36       36 |          666 |   -0.038516  |
 | 2 2 2 2 |   1   1   2   2 |       47       47 |         1128 |   -0.045452  |
 | 2 2 2 2 |   2   2   2   2 |       48       48 |         1176 |   -0.028681  |
 | 3 3 3 3 |   1   1   2   2 |       56       56 |         1596 |   -0.040214  |
 | 3 3 3 3 |   2   2   2   2 |       57       57 |         1653 |   -0.038281  |
 | 2 2 1 1 |   1   1   5   5 |       25       25 |         2036 |   -0.051177  |
 | 4 2 3 1 |   1   1   2   5 |       49       25 |         2912 |   -0.026801  |
 | 1 1 2 2 |   2   2   2   2 |       40       40 |         2531 |   -0.027612  |
 | 4 4 3 3 |   1   1   2   2 |       49       49 |         2936 |   -0.038919  |
 | 3 3 1 1 |   2   2   5   5 |       14       14 |         3091 |   -0.029880  |
 | 1 1 3 3 |   2   2   2   2 |       29       29 |         3421 |   -0.035888  |
 +=============================================================================+


          Norm of Printed Amplitude Vector :             0.1284

          Printed all single excitations greater than 0.002370

          Printed all double excitations greater than 0.024887





             +-------------------------------------------------------+
             ! Final results from the Coupled Cluster energy program !
             +-------------------------------------------------------+



            Total SCF   energy:                  -398.6945722757

            Total MP2   energy:                  -398.8464115019

            Total CCSD  energy:                  -398.8681028480




                   +--------------------------------------------+
                   ! Calculating singlet intermediates for CCLR !
                   +--------------------------------------------+



       Time used in   RHS - TOTAL  :       0.02 seconds


            E-intermediates calculated 
            Fock-intermediate calculated 
            Gamma-intermediate calculated 
            BF-intermediate calculated 
            C-intermediate calculated 
            D-intermediate calculated 


   

 *******************************************************************
 *                                                                 *
 *<<<<<<<<<<<<< OUTPUT FROM COUPLED CLUSTER RESPONSE  >>>>>>>>>>>>>*
 *                                                                 *
 *<<<<<<<<<<    CALCULATION OF FIRST ORDER PROPERTIES    >>>>>>>>>>*
 *                                                                 *
 *******************************************************************



                         +--------------------------------+
                         ! Coupled Cluster model is: CCSD !
                         +--------------------------------+


 Solving   1 response equations:
 L0 :
 RPA: call cceq_str
     Start vector generated from gradient
 RPA: exit cceq_str
 CCEQ_SOL: IPRLE   =               4
 CCEQ_SOL: TRIPLET =     F
 CCEQ_SOL: LINQCC  =     T
 CCEQ_SOL: NREDH   =               1
 CCEQ_SOL: MAXRED  =             200
 CCEQ_SOL: MAXLE   =              40
 CCEQ_SOL: ISIDE   =              -1
 CCEQ_SOL: ISTRVE  =               1
 CCEQ_SOL: NVEC    =               1
 CCEQ_SOL: NUPVEC  =               1
 CCEQ_SOL: NCCVAR  =            4080



 >>>>> COUPLED CLUSTER RESPONSE SOLVER <<<<<

    Iter  #Vectors  time (min)   residual
    --------------------------------------
  
 Time used in CC_LHTR :   2.1000027656555176E-002
  
  
 ROOT:  1 RESIDUAL TOT: 3.11751D-01
      1       1         0.00     0.31E+00
 Dimension of the reduced space:     2
 >>> TIME USED IN THIS MICRO ITERATION        0.02

  
 Time used in CC_LHTR :   2.1999955177307129E-002
  
  
 ROOT:  1 RESIDUAL TOT: 7.93225D-02
      2       1         0.00     0.79E-01
 Dimension of the reduced space:     3
 >>> TIME USED IN THIS MICRO ITERATION        0.02

  
 Time used in CC_LHTR :   2.1000027656555176E-002
  
  
 ROOT:  1 RESIDUAL TOT: 1.40880D-02
      3       1         0.00     0.14E-01
 Dimension of the reduced space:     4
 >>> TIME USED IN THIS MICRO ITERATION        0.02

  
 Time used in CC_LHTR :   2.1000027656555176E-002
  
  
 ROOT:  1 RESIDUAL TOT: 3.56244D-03
      4       1         0.00     0.36E-02
 Dimension of the reduced space:     5
 >>> TIME USED IN THIS MICRO ITERATION        0.02

  
 Time used in CC_LHTR :   2.1000027656555176E-002
  
  
 ROOT:  1 RESIDUAL TOT: 8.78136D-04
      5       1         0.00     0.88E-03
 Dimension of the reduced space:     6
 >>> TIME USED IN THIS MICRO ITERATION        0.02

  
 Time used in CC_LHTR :   2.1000027656555176E-002
  
  
 ROOT:  1 RESIDUAL TOT: 2.54249D-04
      6       1         0.00     0.25E-03
 Dimension of the reduced space:     7
 >>> TIME USED IN THIS MICRO ITERATION        0.02

  
 Time used in CC_LHTR :   2.1000027656555176E-002
  
  
 ROOT:  1 RESIDUAL TOT: 6.45516D-05
      7       1         0.00     0.65E-04
 Dimension of the reduced space:     8
 >>> TIME USED IN THIS MICRO ITERATION        0.02

  
 Time used in CC_LHTR :   2.1000027656555176E-002
  
  
 ROOT:  1 RESIDUAL TOT: 1.52459D-05
      8       1         0.00     0.15E-04
 Dimension of the reduced space:     9
 >>> TIME USED IN THIS MICRO ITERATION        0.02

  
 Time used in CC_LHTR :   2.1000027656555176E-002
  
  
 ROOT:  1 RESIDUAL TOT: 3.44095D-06
      9       1         0.00     0.34E-05
 Dimension of the reduced space:    10
 >>> TIME USED IN THIS MICRO ITERATION        0.02

  
 Time used in CC_LHTR :   2.1999955177307129E-002
  
  
 ROOT:  1 RESIDUAL TOT: 7.58328D-07
     10       1         0.00     0.76E-06
 Dimension of the reduced space:    11
 >>> TIME USED IN THIS MICRO ITERATION        0.02

  
 Time used in CC_LHTR :   2.1999955177307129E-002
  
  
 ROOT:  1 RESIDUAL TOT: 1.71142D-07
     11       1         0.00     0.17E-06
 Dimension of the reduced space:    12
 >>> TIME USED IN THIS MICRO ITERATION        0.02

  
 Time used in CC_LHTR :   2.1999955177307129E-002
  
  
 ROOT:  1 RESIDUAL TOT: 4.32925D-08
 ROOT:  1 HAS CONVERGED. RESIDUAL TOT: 4.32925D-08
     12       1         0.00     0.43E-07
 Dimension of the reduced space:    12
 >>> TIME USED IN THIS MICRO ITERATION        0.02

    --------------------------------------
    converged in 12 iterations
    threshold:    0.10E-06


         Routine          Time (min)
         ---------------------------
         CC_TRDRV            0.00
         CCRED               0.00
         CCNEX               0.00
         ---------------------------
         Total time          0.00


 >>>> Total CPU  time used in CCEQ_SOLV:   0.27 seconds
 >>>> Total wall time used in CCEQ_SOLV:   0.32 seconds


 >>>>>>>>>>>>>>>>>>>>> <<<<<<<<<<<<<<<<<<<<<



 Analysis of CC Response/Cauchy vector:
 --------------------------------------


          CC_PRAM:Overall Contribution of the Different Components
          --------------------------------------------------------



          Single Excitation Contribution :               0.4610 %

          Double Excitation Contribution :              99.5390 %

          ||T1||/||T2||                  :               0.0681

          Norm of Total Amplitude Vector :               0.5191


 +=============================================================================+
 | symmetry|  orbital index  |   Excitation Numbers             |   Amplitude  |
 |  Index  |   a   b   i   j |      NAI      NBJ |     NAIBJ    |              |
 +=============================================================================+
 | 1   1   |   5       5     |       37          |              |   -0.010393  |
 | 1   1   |   6       5     |       38          |              |   -0.015848  |
 | 2   2   |   4       2     |       50          |              |   -0.016821  |
 +-----------------------------------------------------------------------------+
 | 1 1 1 1 |   1   1   4   4 |       25       25 |          325 |   -0.032160  |
 | 1 1 1 1 |   5   1   4   4 |       29       25 |          431 |    0.026674  |
 | 1 1 1 1 |   3   1   5   4 |       35       25 |          620 |   -0.042077  |
 | 1 1 1 1 |   4   3   5   4 |       36       27 |          657 |    0.029527  |
 | 1 1 1 1 |   4   4   4   4 |       28       28 |          406 |   -0.032425  |
 | 1 1 1 1 |   5   5   4   4 |       29       29 |          435 |   -0.030980  |
 | 1 1 1 1 |   3   5   5   4 |       35       29 |          624 |    0.039159  |
 | 1 1 1 1 |   1   1   5   5 |       33       33 |          561 |   -0.042110  |
 | 1 1 1 1 |   2   2   5   5 |       34       34 |          595 |   -0.029273  |
 | 1 1 1 1 |   3   3   5   5 |       35       35 |          630 |   -0.056570  |
 | 1 1 1 1 |   4   4   5   5 |       36       36 |          666 |   -0.074566  |
 | 2 1 2 1 |   2   1   2   4 |       48       25 |         1153 |    0.038533  |
 | 2 1 2 1 |   3   1   2   4 |       49       25 |         1201 |   -0.027848  |
 | 2 1 2 1 |   4   1   2   4 |       50       25 |         1250 |    0.029243  |
 | 2 1 2 1 |   1   5   2   4 |       47       29 |         1110 |    0.027611  |
 | 2 1 2 1 |   3   5   2   4 |       49       29 |         1205 |    0.032389  |
 | 2 1 2 1 |   1   1   2   5 |       47       33 |         1114 |   -0.048814  |
 | 2 1 2 1 |   2   2   2   5 |       48       34 |         1162 |   -0.025551  |
 | 2 1 2 1 |   1   3   2   5 |       47       35 |         1116 |   -0.034008  |
 | 2 1 2 1 |   2   3   2   5 |       48       35 |         1163 |    0.029846  |
 | 2 1 2 1 |   3   3   2   5 |       49       35 |         1211 |   -0.042838  |
 | 2 1 2 1 |   1   4   2   5 |       47       36 |         1117 |   -0.070599  |
 | 2 1 2 1 |   2   4   2   5 |       48       36 |         1164 |   -0.050238  |
 | 2 1 2 1 |   3   4   2   5 |       49       36 |         1212 |   -0.029554  |
 | 3 1 3 1 |   1   1   2   4 |       56       25 |         1565 |   -0.051751  |
 | 3 1 3 1 |   2   3   2   4 |       57       27 |         1623 |    0.030035  |
 | 3 1 3 1 |   1   5   2   4 |       56       29 |         1569 |    0.052133  |
 | 3 1 3 1 |   2   1   2   5 |       57       33 |         1629 |   -0.032790  |
 | 3 1 3 1 |   2   2   2   5 |       57       34 |         1630 |   -0.037901  |
 | 3 1 3 1 |   1   3   2   5 |       56       35 |         1575 |   -0.075483  |
 | 3 1 3 1 |   2   4   2   5 |       57       36 |         1632 |   -0.090009  |
 | 2 2 2 2 |   1   1   2   2 |       47       47 |         1128 |   -0.087562  |
 | 2 2 2 2 |   3   1   2   2 |       49       47 |         1223 |   -0.043468  |
 | 2 2 2 2 |   2   2   2   2 |       48       48 |         1176 |   -0.055713  |
 | 2 2 2 2 |   3   3   2   2 |       49       49 |         1225 |   -0.034204  |
 | 3 2 3 2 |   1   1   2   2 |       56       47 |         1587 |   -0.044093  |
 | 3 2 3 2 |   2   1   2   2 |       57       47 |         1643 |   -0.057110  |
 | 3 2 3 2 |   1   2   2   2 |       56       48 |         1588 |    0.041271  |
 | 3 2 3 2 |   2   2   2   2 |       57       48 |         1644 |   -0.048507  |
 | 3 2 3 2 |   1   3   2   2 |       56       49 |         1589 |   -0.050580  |
 | 3 3 3 3 |   1   1   2   2 |       56       56 |         1596 |   -0.078593  |
 | 3 3 3 3 |   2   2   2   2 |       57       57 |         1653 |   -0.074830  |
 | 2 2 1 1 |   1   1   4   4 |       19       19 |         1901 |   -0.024973  |
 | 2 2 1 1 |   4   1   5   4 |       28       19 |         2108 |    0.041214  |
 | 2 2 1 1 |   4   3   5   4 |       28       21 |         2110 |    0.025857  |
 | 2 2 1 1 |   1   1   5   5 |       25       25 |         2036 |   -0.098546  |
 | 2 2 1 1 |   2   1   5   5 |       26       25 |         2061 |   -0.045399  |
 | 2 2 1 1 |   3   1   5   5 |       27       25 |         2087 |   -0.035661  |
 | 2 2 1 1 |   2   2   5   5 |       26       26 |         2062 |   -0.032266  |
 | 1 2 2 1 |   6   1   2   4 |       44       19 |         2676 |    0.028973  |
 | 1 2 2 1 |   2   2   2   4 |       40       20 |         2511 |   -0.028678  |
 | 1 2 2 1 |   1   1   2   5 |       39       25 |         2477 |   -0.033913  |
 | 1 2 2 1 |   2   1   2   5 |       40       25 |         2516 |   -0.063180  |
 | 1 2 2 1 |   4   1   2   5 |       42       25 |         2597 |    0.061239  |
 | 1 2 2 1 |   2   2   2   5 |       40       26 |         2517 |   -0.036187  |
 | 1 2 2 1 |   3   2   2   5 |       41       26 |         2557 |   -0.028505  |
 | 1 2 2 1 |   4   2   2   5 |       42       26 |         2598 |    0.034673  |
 | 1 2 2 1 |   2   3   2   5 |       40       27 |         2518 |   -0.030086  |
 | 1 2 2 1 |   4   3   2   5 |       42       27 |         2599 |    0.025873  |
 | 4 2 3 1 |   1   1   2   4 |       49       19 |         2906 |    0.033774  |
 | 4 2 3 1 |   1   3   2   4 |       49       21 |         2908 |    0.025071  |
 | 4 2 3 1 |   1   1   2   5 |       49       25 |         2912 |   -0.082805  |
 | 4 2 3 1 |   1   2   2   5 |       49       26 |         2913 |   -0.047073  |
 | 4 2 3 1 |   1   3   2   5 |       49       27 |         2914 |   -0.034138  |
 | 4 2 3 1 |   1   4   2   5 |       49       28 |         2915 |   -0.029670  |
 | 1 1 2 2 |   1   1   2   2 |       39       39 |         2491 |   -0.041535  |
 | 1 1 2 2 |   2   2   2   2 |       40       40 |         2531 |   -0.053777  |
 | 1 1 2 2 |   4   4   2   2 |       42       42 |         2614 |   -0.036254  |
 | 4 1 3 2 |   1   2   2   2 |       49       40 |         2927 |   -0.067279  |
 | 4 1 3 2 |   1   3   2   2 |       49       41 |         2928 |   -0.032877  |
 | 4 1 3 2 |   1   4   2   2 |       49       42 |         2929 |    0.043360  |
 | 4 4 3 3 |   1   1   2   2 |       49       49 |         2936 |   -0.076204  |
 | 3 3 1 1 |   2   1   5   4 |       14       10 |         3087 |    0.026627  |
 | 3 3 1 1 |   2   2   4   4 |       11       11 |         3052 |   -0.027776  |
 | 3 3 1 1 |   2   2   5   5 |       14       14 |         3091 |   -0.057978  |
 | 4 3 2 1 |   1   2   2   5 |       18       14 |         3153 |   -0.055838  |
 | 1 3 3 1 |   2   1   2   4 |       29       10 |         3402 |   -0.028638  |
 | 1 3 3 1 |   1   2   2   5 |       28       14 |         3378 |    0.034663  |
 | 1 3 3 1 |   2   2   2   5 |       29       14 |         3406 |    0.074098  |
 | 1 3 3 1 |   4   2   2   5 |       31       14 |         3465 |    0.042149  |
 | 1 3 3 1 |   6   2   2   5 |       33       14 |         3528 |    0.041245  |
 | 4 4 2 2 |   1   1   2   2 |       18       18 |         3157 |   -0.043959  |
 | 1 4 3 2 |   1   1   2   2 |       28       18 |         3382 |    0.036983  |
 | 1 4 3 2 |   2   1   2   2 |       29       18 |         3410 |    0.081359  |
 | 1 4 3 2 |   3   1   2   2 |       30       18 |         3439 |    0.026810  |
 | 1 4 3 2 |   6   1   2   2 |       33       18 |         3532 |    0.028231  |
 | 1 1 3 3 |   1   1   2   2 |       28       28 |         3392 |   -0.034164  |
 | 1 1 3 3 |   2   1   2   2 |       29       28 |         3420 |   -0.035405  |
 | 1 1 3 3 |   2   2   2   2 |       29       29 |         3421 |   -0.069426  |
 | 1 1 3 3 |   6   2   2   2 |       33       29 |         3543 |   -0.037004  |
 | 1 1 3 3 |   6   6   2   2 |       33       33 |         3547 |   -0.030405  |
 | 4 4 1 1 |   1   1   4   4 |        7        7 |         3644 |   -0.029472  |
 +=============================================================================+


          Norm of Printed Amplitude Vector :             0.4535

          Printed all single excitations greater than 0.010000

          Printed all double excitations greater than 0.024942
            Norm of singles part:        0.3524633758E-01
            Norm of doubles part:        0.5179419987E+00


                  Constructing right-hand-side for CCSD-kappa-0
                  ---------------------------------------------

  
 Requested density dependent quantities calculated
 Total time used in CC_DEN:   6.4000010490417480E-002
 CC_FOP> Norm of RHS vector:   4.5724009074758216E-005


                      Solving for orbital relaxation vector
                      -------------------------------------



  THIS IS OUTPUT FROM THE MCSCF AND SOPPA RESPONSE SOLVER
 ---------------------------------------------------------


 Symmetry of singlet property operator     1
 Number of operators for singlet linear response equations:     1
 Number of response frequencies:     1
 Convergence threshold:     1.00D-07

 Integral transformation: Total CPU and WALL times (sec)       0.006       0.006


 >>>>>>>>>> Symmetry of excitation/property operator    1

 Number of operators for linear response equations:     1
 Number of response frequencies:     1


 Perturbation symmetry.     KSYMOP:       1
 Perturbation spin symmetry.TRPLET:       F
 Orbital variables.         KZWOPT:      58
 Configuration variables.   KZCONF:       0
 Total number of variables. KZVAR :      58


 RSPLLE -- linear response calculation for symmetry  1
 RSPLLE -- operator no.  1 out of  1
 RSPLLE -- frequencies :  0.000000



 <<<  SOLVING SETS OF LINEAR EQUATIONS FOR LINEAR RESPONSE PROPERTIES >>>

 Operator symmetry =  1; triplet =   F


 *** THE REQUESTED    1 SOLUTION VECTORS CONVERGED

 Convergence of RSP solution vectors, threshold = 1.00D-07
 ---------------------------------------------------------------
 (dimension of paired reduced space:   20)
 RSP solution vector no.    1; norm of residual   4.33D-08

 *** RSPCTL MICROITERATIONS CONVERGED

 EIGENVECTOR NUMBER     1

     Orbital operator symmetry = 1
     (only elements abs greater than   10.00 % of max abs value)

      Index(r,s)      r      s        (r s) operator      (s r) operator
      ----------    -----  -----      --------------      --------------
          25         4(1)   6(1)       -0.0007512211        0.0007512211
          29         4(1)  10(1)        0.0005167076       -0.0005167076
          33         5(1)   6(1)       -0.0003361209        0.0003361209
          34         5(1)   7(1)       -0.0009897232        0.0009897232
          35         5(1)   8(1)       -0.0005687110        0.0005687110
          36         5(1)   9(1)        0.0004837840       -0.0004837840
          38         5(1)  11(1)       -0.0004075987        0.0004075987
          39         5(1)  12(1)       -0.0002798478        0.0002798478
          47        15(2)  16(2)       -0.0027421413        0.0027421413
          48        15(2)  17(2)       -0.0010420721        0.0010420721
          49        15(2)  18(2)       -0.0008565448        0.0008565448
          50        15(2)  19(2)       -0.0003185347        0.0003185347
          51        15(2)  20(2)       -0.0003710821        0.0003710821
          57        23(3)  25(3)        0.0005847487       -0.0005847487
          58        23(3)  26(3)       -0.0005928295        0.0005928295

       43 elements with absolute value less than 2.74D-04 not printed.

 The numbers in parenthesis give the orbital symmetry.

     Configuration operator symmetry = 1
     >> NO ELEMENTS <<


 Time used in linear response calculation is      0.00 CPU seconds for symmetry 1

 >>> Total time used in response solver is         0.01 CPU seconds.

   Equations converged to residual less than:  0.000000
  
 Norm of zeta-kappa-0:   2.6422108615126383E-005
 CCFOP: call CC_D1AO to recalc the 1e Density


                            +--------------------------+
                            ! CCSD Natural Occupations !
                            +--------------------------+

  
   Symmetry block number:  1
   ---------------------
  
   1.99999978   1.99991587   1.99975493   1.97726330   1.95137165
   0.02915162   0.01265083   0.01144998   0.00707356   0.00296720
   0.00085413   0.00082318   0.00015727
  
   Sum in this symmetry class:   9.993433
  
   Symmetry block number:  2
   ---------------------
  
   1.99973999   1.95540910   0.03733512   0.00903104   0.00300455
   0.00135229   0.00085765   0.00013264
  
   Sum in this symmetry class:   4.006862
  
   Symmetry block number:  3
   ---------------------
  
   1.99982622   1.95791180   0.01451611   0.01041353   0.00109246
  
   Sum in this symmetry class:   3.983760
  
   Symmetry block number:  4
   ---------------------
  
   0.01452804   0.00141614
  
   Sum in this symmetry class:   0.015944
  
  
   Total Sum of natural occupation numbers:  18.000000
  
   Dynamical correlation move: 0.158807 electrons
  


             +--------------------------------------------------------+
             !   Relaxed CCSD    First-order one-electron properties: !
             +--------------------------------------------------------+



                            +-------------------------+
                            !  Electric Dipole Moment !
                            +-------------------------+



                          Total Molecular Dipole Moment
                          -----------------------------

                 au               Debye          C m (/(10**-30)

      z      0.47916301         1.21791081         4.06251318




                          +-----------------------------+
                          !  Electric Quadrupole Moment !
                          +-----------------------------+



                        Total Molecular quadrupole moment
                        ---------------------------------

                    X              Y              Z

               Column   1     Column   2     Column   3
       1       1.83695763     0.00000000     0.00000000
       2       0.00000000    -2.61403955     0.00000000
       3       0.00000000     0.00000000     0.77708192
    ==== End of matrix output ====


                      +-------------------------------------+
                      !  Electronic second moment of charge !
                      +-------------------------------------+

                    X              Y              Z

               Column   1     Column   2     Column   3
       1      15.77265726     0.00000000     0.00000000
       2       0.00000000    12.09785946     0.00000000
       3       0.00000000     0.00000000    15.96776034
    ==== End of matrix output ====

 Alfa**2 Invariant:                        213.532726
 Beta**2 Invariant:                         14.259168

 Isotropic Property:                        14.612759 a.u.
 Property anisotropy invariant:              3.776131 a.u.


                           +---------------------------+
                           !  Electric Field Gradients !
                           +---------------------------+



      *********************************************************************
      **************** ABACUS - Nuclear Quadrupole moments ****************
      *********************************************************************


Total non-diagonalized EFG Tensor   S     

               Column   1     Column   2     Column   3
       1       1.92338729     0.00000000     0.00000000
       2       0.00000000    -2.44598584     0.00000000
       3       0.00000000     0.00000000     0.52259856
    ==== End of matrix output ====

Total non-diagonalized EFG Tensor   H   _1

               Column   1     Column   2     Column   3
       1       0.08955940     0.00000000     0.18803123
       2       0.00000000    -0.15417681     0.00000000
       3       0.18803123     0.00000000     0.06461740
    ==== End of matrix output ====

Total non-diagonalized EFG Tensor   H   _2

               Column   1     Column   2     Column   3
       1       0.08955940     0.00000000    -0.18803123
       2       0.00000000    -0.15417681     0.00000000
       3      -0.18803123     0.00000000     0.06461740
    ==== End of matrix output ====
 String on input: "S       "
 String on input: "S       "
 String on input: "H   _1  "
 String on input: "H__1    "
 String on input: "H   _2  "
 String on input: "H__2    "

EFG Principal axis                  S     

               Column   1     Column   2     Column   3
       1       1.00000000     0.00000000     0.00000000
       2       0.00000000     1.00000000     0.00000000
       3       0.00000000     0.00000000     1.00000000
    ==== End of matrix output ====

EFG Principal axis                  H   _1

               Column   1     Column   2     Column   3
       1       0.73012968     0.00000000    -0.68330861
       2       0.00000000     1.00000000     0.00000000
       3       0.68330861     0.00000000     0.73012968
    ==== End of matrix output ====

EFG Principal axis                  H   _2

               Column   1     Column   2     Column   3
       1       0.73012968     0.00000000     0.68330861
       2       0.00000000     1.00000000     0.00000000
       3      -0.68330861     0.00000000     0.73012968
    ==== End of matrix output ====


                         Nuclear quadrupole moment for S
                         -------------------------------

          Spin     :  1.5          Quadrupole moment:-.06780000
                            au           MHz        Gauss
 S      33    Vx =       0.522599    -8.325315    -2.974124
 S      33    Vy =       1.923387   -30.640736   -10.946055
 S      33    Vz =      -2.445986    38.966051    13.920180
                 Asymmetry constant eta:      0.572689
                 Auxiliary value au  1/T  0.305088D-02


                       Nuclear quadrupole moment for H   _1
                       ------------------------------------

          Spin     :  1.0          Quadrupole moment:0.00286000
                            au           MHz        Gauss
 H   _1  2    Vx =      -0.111356    -0.074831    -0.026733
 H   _1  2    Vy =      -0.154177    -0.103607    -0.037012
 H   _1  2    Vz =       0.265533     0.178438     0.063745
                 Asymmetry constant eta:      0.161264
                 Auxiliary value au  1/T  0.218146D-06


                       Nuclear quadrupole moment for H   _2
                       ------------------------------------

          Spin     :  1.0          Quadrupole moment:0.00286000
                            au           MHz        Gauss
 H   _2  2    Vx =      -0.111356    -0.074831    -0.026733
 H   _2  2    Vy =      -0.154177    -0.103607    -0.037012
 H   _2  2    Vz =       0.265533     0.178438     0.063745
                 Asymmetry constant eta:      0.161264
                 Auxiliary value au  1/T  0.218146D-06


            +---------------------------------------------------------+
            !  First-order DPT corrections to the ground-state energy !
            +---------------------------------------------------------+

  
  
 One electron and reorthonormalization gradient calculation completed
 Total time used in CC_GRAD:   5.4999947547912598E-002
  
         DPTONE:     -2.098701991104
         ------ 
  
         DPTREO:      0.621290954137
         ------ 

 Number of two-electron spin-orbit integrals written:     11308 (24.9%)

 Number of two-electron spin-orbit integrals written:     23259 (22.7%)
 >>>  Time used in TWOINT     is   0.13 seconds

 Number of two-electron spin-orbit integrals written:     12435 (21.9%)

 Number of two-electron spin-orbit integrals written:     12668 (27.9%)

 Number of two-electron spin-orbit integrals written:     17420 (25.5%)
  
 Two-electron first-order property calculation completed
 Total time used in CC_2EEXP:  0.45000004768371582     
  
         DPTTWO:      0.367893450064
         ------ 
  
         Total first-order DPT correction:     -1.109517586903
         --------------------------------


           +------------------------------------------------------------+
           !  Pauli relativistic corrections to the ground-state energy !
           +------------------------------------------------------------+

  
         1-elec. Darwin term:      3.473603431
         ------------------- 
  
         Mass-Velocity term:      -4.549007584
         ------------------  
  
         Mass-Velocity + 1-elec. Darwin terms:      -1.075404153
         ------------------------------------ 

 Number of two-electron spin-orbit integrals written:     11308 (24.9%)

 Number of two-electron spin-orbit integrals written:     23223 (22.7%)

 Number of two-electron spin-orbit integrals written:     12365 (21.8%)

 Number of two-electron spin-orbit integrals written:     12668 (27.9%)

 Number of two-electron spin-orbit integrals written:     17420 (25.5%)
  
         2-elec. Darwin term:      -0.034102620
         ------------------- 
  
         Total relativistic correction:      -1.109506773
         ----------------------------- 
  
 Two-electron first-order property calculation completed
 Total time used in CC_2EEXP:  0.15499997138977051     

 *******************************************************************

 Ground state energy is target 

 Ecorr =                   -398.86810284800810677552

 *******************************************************************
  

 *******************************************************************************
 *******************************************************************************
 *                                                                             *
 *                                                                             *
 *                   SUMMARY OF COUPLED CLUSTER CALCULATION                    *
 *                                                                             *
 *                                                                             *
 *******************************************************************************
 *******************************************************************************

                                                                                
            Total SCF   energy:                  -398.6945722757                
                                                                                
                                                                                
            Total SCF   energy:                  -398.6945722757                
            Total MP2   energy:                  -398.8464115019                
            Total CCSD  energy:                  -398.8681028480                
  

 *******************************************************************************
 *******************************************************************************
 *                                                                             *
 *                                                                             *
 *                      END OF COUPLED CLUSTER CALCULATION                     *
 *                                                                             *
 *                                                                             *
 *******************************************************************************
 *******************************************************************************


 >>>> CPU and wall time for CC :       1.861       1.935

 
     Date and time (Linux)  : Sun Sep  8 20:39:53 2013
     Host name              : lpqlx131.ups-tlse.fr                    


                      .-------------------------------------.
                      | End of Coupled Cluster Section (CC) |
                      `-------------------------------------'

 >>>> Total CPU  time used in DALTON:   1.98 seconds
 >>>> Total wall time used in DALTON:   2.05 seconds

 
     Date and time (Linux)  : Sun Sep  8 20:39:53 2013
     Host name              : lpqlx131.ups-tlse.fr                    
