

     ************************************************************************
     *************** Dalton - An Electronic Structure Program ***************
     ************************************************************************

    This is output from DALTON (Release Dalton2013 patch 0)
   ----------------------------------------------------------------------------
    NOTE:
     
    Dalton is an experimental code for the evaluation of molecular
    properties using (MC)SCF, DFT, CI, and CC wave functions.
    The authors accept no responsibility for the performance of
    the code or for the correctness of the results.
     
    The code (in whole or part) is provided under a licence and
    is not to be reproduced for further distribution without
    the written permission of the authors or their representatives.
     
    See the home page "http://daltonprogram.org" for further information.
     
    If results obtained with this code are published,
    the appropriate citations would be both of:
     
       K. Aidas, C. Angeli, K. L. Bak, V. Bakken, R. Bast,
       L. Boman, O. Christiansen, R. Cimiraglia, S. Coriani,
       P. Dahle, E. K. Dalskov, U. Ekstroem, T. Enevoldsen,
       J. J. Eriksen, P. Ettenhuber, B. Fernandez, L. Ferrighi,
       H. Fliegl, L. Frediani, K. Hald, A. Halkier, C. Haettig,
       H. Heiberg, T. Helgaker, A. C. Hennum, H. Hettema,
       E. Hjertenaes, S. Hoest, I.-M. Hoeyvik, M. F. Iozzi,
       B. Jansik, H. J. Aa. Jensen, D. Jonsson, P. Joergensen,
       J. Kauczor, S. Kirpekar, T. Kjaergaard, W. Klopper,
       S. Knecht, R. Kobayashi, H. Koch, J. Kongsted, A. Krapp,
       K. Kristensen, A. Ligabue, O. B. Lutnaes, J. I. Melo,
       K. V. Mikkelsen, R. H. Myhre, C. Neiss, C. B. Nielsen,
       P. Norman, J. Olsen, J. M. H. Olsen, A. Osted,
       M. J. Packer, F. Pawlowski, T. B. Pedersen, P. F. Provasi,
       S. Reine, Z. Rinkevicius, T. A. Ruden, K. Ruud, V. Rybkin,
       P. Salek, C. C. M. Samson, A. Sanchez de Meras, T. Saue,
       S. P. A. Sauer, B. Schimmelpfennig, K. Sneskov,
       A. H. Steindal, K. O. Sylvester-Hvid, P. R. Taylor,
       A. M. Teale, E. I. Tellgren, D. P. Tew, A. J. Thorvaldsen,
       L. Thoegersen, O. Vahtras, M. A. Watson, D. J. D. Wilson,
       M. Ziolkowski and H. Agren.
       The Dalton quantum chemistry program system.
       WIREs Comput. Mol. Sci. 2013. doi: 10.1002/wcms.1172
    
    and
    
       Dalton, a Molecular Electronic Structure Program,
       Release DALTON2013.0 (2013), see http://daltonprogram.org
   ----------------------------------------------------------------------------

    Authors in alphabetical order (major contribution(s) in parenthesis):

  Kestutis Aidas,           Vilnius University,           Lithuania   (QM/MM)
  Celestino Angeli,         University of Ferrara,        Italy       (NEVPT2)
  Keld L. Bak,              UNI-C,                        Denmark     (AOSOPPA, non-adiabatic coupling, magnetic properties)
  Vebjoern Bakken,          University of Oslo,           Norway      (DALTON; geometry optimizer, symmetry detection)
  Radovan Bast,             KTH Stockholm                 Sweden      (DALTON installation and execution frameworks)
  Linus Boman,              NTNU,                         Norway      (Cholesky decomposition and subsystems)
  Ove Christiansen,         Aarhus University,            Denmark     (CC module)
  Renzo Cimiraglia,         University of Ferrara,        Italy       (NEVPT2)
  Sonia Coriani,            University of Trieste,        Italy       (CC module, MCD in RESPONS)
  Paal Dahle,               University of Oslo,           Norway      (Parallelization)
  Erik K. Dalskov,          UNI-C,                        Denmark     (SOPPA)
  Thomas Enevoldsen,        Univ. of Southern Denmark,    Denmark     (SOPPA)
  Janus J. Eriksen,         Aarhus University,            Denmark     (PE-MP2/SOPPA, TDA)
  Berta Fernandez,          U. of Santiago de Compostela, Spain       (doublet spin, ESR in RESPONS)
  Lara Ferrighi,            Aarhus University,            Denmark     (PCM Cubic response)
  Heike Fliegl,             University of Oslo,           Norway      (CCSD(R12))
  Luca Frediani,            UiT The Arctic U. of Norway,  Norway      (PCM)
  Bin Gao,                  UiT The Arctic U. of Norway,  Norway      (Gen1Int library)
  Christof Haettig,         Ruhr-University Bochum,       Germany     (CC module)
  Kasper Hald,              Aarhus University,            Denmark     (CC module)
  Asger Halkier,            Aarhus University,            Denmark     (CC module)
  Hanne Heiberg,            University of Oslo,           Norway      (geometry analysis, selected one-electron integrals)
  Trygve Helgaker,          University of Oslo,           Norway      (DALTON; ABACUS, ERI, DFT modules, London, and much more)
  Alf Christian Hennum,     University of Oslo,           Norway      (Parity violation)
  Hinne Hettema,            University of Auckland,       New Zealand (quadratic response in RESPONS; SIRIUS supersymmetry)
  Eirik Hjertenaes,         NTNU,                         Norway      (Cholesky decomposition)
  Maria Francesca Iozzi,    University of Oslo,           Norway      (RPA)
  Brano Jansik              Technical Univ. of Ostrava    Czech Rep.  (DFT cubic response)
  Hans Joergen Aa. Jensen,  Univ. of Southern Denmark,    Denmark     (DALTON; SIRIUS, RESPONS, ABACUS modules, London, and much more)
  Dan Jonsson,              UiT The Arctic U. of Norway,  Norway      (cubic response in RESPONS module)
  Poul Joergensen,          Aarhus University,            Denmark     (RESPONS, ABACUS, and CC modules)
  Joanna Kauczor,           Linkoeping University,        Sweden      (Complex polarization propagator (CPP) module)
  Sheela Kirpekar,          Univ. of Southern Denmark,    Denmark     (Mass-velocity & Darwin integrals)
  Wim Klopper,              KIT Karlsruhe,                Germany     (R12 code in CC, SIRIUS, and ABACUS modules)
  Stefan Knecht,            ETH Zurich,                   Switzerland (Parallel CI and MCSCF)
  Rika Kobayashi,           Australian National Univ.,    Australia   (DIIS in CC, London in MCSCF)
  Henrik Koch,              NTNU,                         Norway      (CC module, Cholesky decomposition)
  Jacob Kongsted,           Univ. of Southern Denmark,    Denmark     (Polarizable embedding, QM/MM)
  Andrea Ligabue,           University of Modena,         Italy       (CTOCD, AOSOPPA)
  Ola B. Lutnaes,           University of Oslo,           Norway      (DFT Hessian)
  Juan I. Melo,             University of Buenos Aires,   Argentina   (LRESC, Relativistic Effects on NMR Shieldings)
  Kurt V. Mikkelsen,        University of Copenhagen,     Denmark     (MC-SCRF and QM/MM)
  Rolf H. Myhre,            NTNU,                         Norway      (Cholesky, subsystems and ECC2)
  Christian Neiss,          Univ. Erlangen-Nuernberg,     Germany     (CCSD(R12))
  Christian B. Nielsen,     University of Copenhagen,     Denmark     (QM/MM)
  Patrick Norman,           Linkoeping University,        Sweden      (Cubic response and complex response in RESPONS)
  Jeppe Olsen,              Aarhus University,            Denmark     (SIRIUS CI/density modules)
  Jogvan Magnus H. Olsen,   Univ. of Southern Denmark,    Denmark     (Polarizable embedding, PE library, QM/MM)
  Anders Osted,             Copenhagen University,        Denmark     (QM/MM)
  Martin J. Packer,         University of Sheffield,      UK          (SOPPA)
  Filip Pawlowski,          Kazimierz Wielki University   Poland      (CC3)
  Thomas B. Pedersen,       University of Oslo,           Norway      (Cholesky decomposition)
  Patricio F. Provasi,      University of Northeastern,   Argentina   (Analysis of coupling constants in localized orbitals)
  Zilvinas Rinkevicius,     KTH Stockholm,                Sweden      (open-shell DFT, ESR)
  Elias Rudberg,            KTH Stockholm,                Sweden      (DFT grid and basis info)
  Torgeir A. Ruden,         University of Oslo,           Norway      (Numerical derivatives in ABACUS)
  Kenneth Ruud,             UiT The Arctic U. of Norway,  Norway      (DALTON; ABACUS magnetic properties and  much more)
  Pawel Salek,              KTH Stockholm,                Sweden      (DALTON; DFT code)
  Claire C. M. Samson       University of Karlsruhe       Germany     (Boys localization, r12 integrals in ERI)
  Alfredo Sanchez de Meras, University of Valencia,       Spain       (CC module, Cholesky decomposition)
  Trond Saue,               Paul Sabatier University,     France      (direct Fock matrix construction)
  Stephan P. A. Sauer,      University of Copenhagen,     Denmark     (SOPPA(CCSD), SOPPA prop., AOSOPPA, vibrational g-factors)
  Bernd Schimmelpfennig,    Forschungszentrum Karlsruhe,  Germany     (AMFI module)
  Kristian Sneskov,         Aarhus University,            Denmark     (QM/MM, PE-CC)
  Arnfinn H. Steindal,      UiT The Arctic U. of Norway,  Norway      (parallel QM/MM)
  K. O. Sylvester-Hvid,     University of Copenhagen,     Denmark     (MC-SCRF)
  Peter R. Taylor,          VLSCI/Univ. of Melbourne,     Australia   (Symmetry handling ABACUS, integral transformation)
  Andrew M. Teale,          University of Nottingham,     England     (DFT-AC, DFT-D)
  David P. Tew,             University of Bristol,        England     (CCSD(R12))
  Olav Vahtras,             KTH Stockholm,                Sweden      (triplet response, spin-orbit, ESR, TDDFT, open-shell DFT)
  David J. Wilson,          La Trobe University,          Australia   (DFT Hessian and DFT magnetizabilities)
  Hans Agren,               KTH Stockholm,                Sweden      (SIRIUS module, RESPONS, MC-SCRF solvation model)
 --------------------------------------------------------------------------------

     Date and time (Linux)  : Sun Sep  8 21:16:22 2013
     Host name              : lpqlx131.ups-tlse.fr                    

 * Work memory size             :    64000000 =  488.28 megabytes.

 * Directories for basis set searches:
   1) /home/bast/DALTON-2013.0-Source/build/test_dpt_h2s_ff
   2) /home/bast/DALTON-2013.0-Source/build/basis


Compilation information
-----------------------

 Who compiled             | bast
 Host                     | lpqlx131.ups-tlse.fr
 System                   | Linux-3.8.5-201.fc18.x86_64
 CMake generator          | Unix Makefiles
 Processor                | x86_64
 64-bit integers          | OFF
 MPI                      | OFF
 Fortran compiler         | /usr/bin/gfortran
 Fortran compiler version | GNU Fortran (GCC) 4.7.2 20121109 (Red Hat 4.7.2-8)
 C compiler               | /usr/bin/gcc
 C compiler version       | gcc (GCC) 4.7.2 20121109 (Red Hat 4.7.2-8)
 C++ compiler             | /usr/bin/g++
 C++ compiler version     | g++ (GCC) 4.7.2 20121109 (Red Hat 4.7.2-8)
 Static linking           | OFF
 Last Git revision        | f34203295a86316e27f9e7b44f9b6769c4a046c0
 Configuration time       | 2013-09-08 20:31:27.952056


   Content of the .dal input file
 ----------------------------------

**DALTON                                          
.RUN PROPERTIES                                   
**INTEGRAL                                        
.DIPORG                                           
 0.0 0.0 100.0                                    
.DIPLEN                                           
.THETA                                            
.EFGCAR                                           
.SECMOM                                           
.DARWIN                                           
.MASSVELO                                         
.DPTPOT                                           
.DPTPXP                                           
.KINENER                                          
**WAVE FUNCTION                                   
.CC                                               
*HAMILTONIAN                                      
.FIELD                                            
 0.1                                              
ZDIPLEN                                           
*SCF INP                                          
.THRESH                                           
 1.0D-10                                          
*CC INP                                           
.CCS                                              
.CCSD                                             
.CC(T)                                            
.THRENR                                           
1.0D-10                                           
.THRLEQ                                           
1.0D-07                                           
*CCFOP                                            
.ALLONE                                           
.DPTECO                                           
.2ELDAR                                           
**END OF DALTON INPUT                             


   Content of the .mol file
 ----------------------------

BASIS                                                                          
cc-pVDZ                                                                        
First-order relativistic corrections                                           
                                                                               
    2    2  X  Y      1.00D-15                                                 
       16.0   1                                                                
S       0.00000000000000    0.00000000000000    0.00000000000000       *       
        1.0   1                                                                
H       1.82237883747756    0.00000000000000    1.75080674629681       *       


       *******************************************************************
       *********** Output from DALTON general input processing ***********
       *******************************************************************

 --------------------------------------------------------------------------------
   Overall default print level:    0
   Print level for DALTON.STAT:    1

    HERMIT 1- and 2-electron integral sections will be executed
    "Old" integral transformation used (limited to max 255 basis functions)
    Wave function sections will be executed (SIRIUS module)
    Static molecular property section will be executed (ABACUS module)
 --------------------------------------------------------------------------------


   ****************************************************************************
   *************** Output of molecule and basis set information ***************
   ****************************************************************************


    The two title cards from your ".mol" input:
    ------------------------------------------------------------------------
 1: First-order relativistic corrections                                    
 2:                                                                         
    ------------------------------------------------------------------------

  Atomic type no.    1
  --------------------
  Nuclear charge:  16.00000
  Number of symmetry independent centers:    1
  Number of basis sets to read;    2
  Basis set file used for this atomic type with Z =  16 :
     "/home/bast/DALTON-2013.0-Source/build/basis/cc-pVDZ"

  Atomic type no.    2
  --------------------
  Nuclear charge:   1.00000
  Number of symmetry independent centers:    1
  Number of basis sets to read;    2
  Basis set file used for this atomic type with Z =   1 :
     "/home/bast/DALTON-2013.0-Source/build/basis/cc-pVDZ"


                         SYMGRP: Point group information
                         -------------------------------

Point group: C2v

   * The point group was generated by:

      Reflection in the yz-plane
      Reflection in the xz-plane

   * Group multiplication table

        |  E   C2z  Oxz  Oyz
   -----+--------------------
     E  |  E   C2z  Oxz  Oyz
    C2z | C2z   E   Oyz  Oxz
    Oxz | Oxz  Oyz   E   C2z
    Oyz | Oyz  Oxz  C2z   E 

   * Character table

        |  E   C2z  Oxz  Oyz
   -----+--------------------
    A1  |   1    1    1    1
    B1  |   1   -1    1   -1
    B2  |   1   -1   -1    1
    A2  |   1    1   -1   -1

   * Direct product table

        | A1   B1   B2   A2 
   -----+--------------------
    A1  | A1   B1   B2   A2 
    B1  | B1   A1   A2   B2 
    B2  | B2   A2   A1   B1 
    A2  | A2   B2   B1   A1 


                                 Isotopic Masses
                                 ---------------

                           S          31.972072
                           H   _1      1.007825
                           H   _2      1.007825

                       Total mass:    33.987722 amu
                       Natural abundance:  94.991 %

 Center-of-mass coordinates (a.u.):    0.000000    0.000000    0.103832


  Atoms and basis sets
  --------------------

  Number of atom types :    2
  Total number of atoms:    3

  Basis set used is "cc-pVDZ" from the basis set library.

  label    atoms   charge   prim   cont     basis
  ----------------------------------------------------------------------
  S           1   16.0000    41    18      [12s8p1d|4s3p1d]                                   
  H           2    1.0000     7     5      [4s1p|2s1p]                                        
  ----------------------------------------------------------------------
  total:      3   18.0000    55    28
  ----------------------------------------------------------------------
  Spherical harmonic basis used.

  Threshold for neglecting AO integrals:  1.00D-15


  Cartesian Coordinates (a.u.)
  ----------------------------

  Total number of coordinates:    9
  S       :     1  x   0.0000000000    2  y   0.0000000000    3  z   0.0000000000
  H   / 1 :     4  x   1.8223788375    5  y   0.0000000000    6  z   1.7508067463
  H   / 2 :     7  x  -1.8223788375    8  y   0.0000000000    9  z   1.7508067463


  Symmetry Coordinates
  --------------------

  Number of coordinates in each symmetry:     3    3    2    1

  Symmetry  A1  ( 1)

    1   S     z    3
    2   H     x    [  4  -    7 ]/2
    3   H     z    [  6  +    9 ]/2

  Symmetry  B1  ( 2)

    4   S     x    1
    5   H     x    [  4  +    7 ]/2
    6   H     z    [  6  -    9 ]/2

  Symmetry  B2  ( 3)

    7   S     y    2
    8   H     y    [  5  +    8 ]/2

  Symmetry  A2  ( 4)

    9   H     y    [  5  -    8 ]/2


   Interatomic separations (in Angstrom):
   --------------------------------------

            S           H   _1      H   _2
            ------      ------      ------
 S     :    0.000000
 H   _1:    1.337300    0.000000
 H   _2:    1.337300    1.928723    0.000000


  Max    interatomic separation is    1.9287 Angstrom (    3.6448 Bohr)
  between atoms    3 and    2, "H   _2" and "H   _1".

  Min HX interatomic separation is    1.3373 Angstrom (    2.5271 Bohr)


  Bond distances (Angstrom):
  --------------------------

                  atom 1     atom 2       distance
                  ------     ------       --------
  bond distance:  H   _1     S            1.337300
  bond distance:  H   _2     S            1.337300


  Bond angles (degrees):
  ----------------------

                  atom 1     atom 2     atom 3         angle
                  ------     ------     ------         -----
  bond angle:     H   _1     S          H   _2        92.295




 Principal moments of inertia (u*A**2) and principal axes
 --------------------------------------------------------

   IA       1.627581          1.000000    0.000000    0.000000
   IB       1.874540          0.000000    0.000000    1.000000
   IC       3.502121          0.000000    1.000000    0.000000


 Rotational constants
 --------------------

 The molecule is planar.

               A                   B                   C

         310509.3346         269601.6100         144306.5629 MHz
           10.357477            8.992942            4.813549 cm-1


@  Nuclear repulsion energy :   12.936949454995 Hartree


  Symmetry Orbitals
  -----------------

  Number of orbitals in each symmetry:          13    8    5    2


  Symmetry  A1 ( 1)

    1     S        1s         1
    2     S        1s         2
    3     S        1s         3
    4     S        1s         4
    5     S        2pz        7
    6     S        2pz       10
    7     S        2pz       13
    8     S        3d0       16
    9     S        3d2+      18
   10     H        1s        19 +   20
   11     H        1s        21 +   22
   12     H        2px       23 -   24
   13     H        2pz       27 +   28


  Symmetry  B1 ( 2)

   14     S        2px        5
   15     S        2px        8
   16     S        2px       11
   17     S        3d1+      17
   18     H        1s        19 -   20
   19     H        1s        21 -   22
   20     H        2px       23 +   24
   21     H        2pz       27 -   28


  Symmetry  B2 ( 3)

   22     S        2py        6
   23     S        2py        9
   24     S        2py       12
   25     S        3d1-      15
   26     H        2py       25 +   26


  Symmetry  A2 ( 4)

   27     S        3d2-      14
   28     H        2py       25 -   26

  Symmetries of electric field:  B1 (2)  B2 (3)  A1 (1)

  Symmetries of magnetic field:  B2 (3)  B1 (2)  A2 (4)


                     .---------------------------------------.
                     | Starting in Integral Section (HERMIT) |
                     `---------------------------------------'



    *************************************************************************
    ****************** Output from HERMIT input processing ******************
    *************************************************************************


 Default print level:        1

 * Nuclear model: Point charge

 Calculation of one- and two-electron Hamiltonian integrals.

 The following one-electron property integrals are calculated as requested:
          - overlap integrals
          - dipole length integrals
          - traceless quadrupole moment integrals
          - second moment integrals
          - electronic kinetic energy
          - mass velocity integrals
          - 1-electron Darwin integrals
          - Cartesien electric field gradient integrals
          - small component dipole length integrals for DPT
          - small component potential energy for DPT

 Center of mass  (bohr):      0.000000000000      0.000000000000      0.103832013754
 Operator center (bohr):      0.000000000000      0.000000000000      0.000000000000
 Gauge origin    (bohr):      0.000000000000      0.000000000000      0.000000000000
 Dipole origin   (bohr):      0.000000000000      0.000000000000    100.000000000000


     ************************************************************************
     ************************** Output from HERINT **************************
     ************************************************************************


 Threshold for neglecting two-electron integrals:  1.00D-15
 Number of two-electron integrals written:       20351 ( 24.6% )
 Megabytes written:                              0.234

 >>>> Total CPU  time used in HERMIT:   0.11 seconds
 >>>> Total wall time used in HERMIT:   0.11 seconds


                        .----------------------------------.
                        | End of Integral Section (HERMIT) |
                        `----------------------------------'



                   .--------------------------------------------.
                   | Starting in Wave Function Section (SIRIUS) |
                   `--------------------------------------------'


 *** Output from Huckel module :

     Using EWMO model:          F
     Using EHT  model:          T
     Number of Huckel orbitals each symmetry:    8    4    3    1

 Huckel EHT eigenvalues for symmetry :  1
          -92.015373      -9.030916      -6.689759      -1.091292      -0.536591
           -0.240124      -0.055556      -0.046848

 Huckel EHT eigenvalues for symmetry :  2
           -6.689879      -0.612599      -0.259266      -0.030065

 Huckel EHT eigenvalues for symmetry :  3
           -6.688000      -0.426300      -0.055556

 Huckel EHT eigenvalues for symmetry :  4
           -0.055556

 **********************************************************************
 *SIRIUS* a direct, restricted step, second order MCSCF program       *
 **********************************************************************

 
     Date and time (Linux)  : Sun Sep  8 21:16:22 2013
     Host name              : lpqlx131.ups-tlse.fr                    

 Title lines from ".mol" input file:
     First-order relativistic corrections                                    
                                                                             

 Print level on unit LUPRI =   2 is   0
 Print level on unit LUW4  =   2 is   5

@    (Integral direct) CC calculation.

@    This is a combination run starting with
@              a restricted, closed shell Hartree-Fock calculation


@  The molecule is placed in a static field.
@  Field strength (a.u.)          Field operator
@  ---------------------------------------------
@      0.10000000                      ZDIPLEN 
@  ---------------------------------------------

 Initial molecular orbitals are obtained according to
 ".MOSTART EHT   " input option

     Wave function specification
     ============================

     For the specification of the Coupled Cluster: see later.

@    For the wave function of type :      >>> CC <<<
@    Number of closed shell electrons          18
@    Number of electrons in active shells       0
@    Total charge of the molecule               0

@    Spin multiplicity and 2 M_S                1         0
     Total number of symmetries                 4
@    Reference state symmetry                   1

     Orbital specifications
     ======================
     Abelian symmetry species          All |    1    2    3    4
                                       --- |  ---  ---  ---  ---
     Total number of orbitals           28 |   13    8    5    2
     Number of basis functions          28 |   13    8    5    2

      ** Automatic occupation of RHF orbitals **

      -- Initial occupation of symmetries is determined from extended Huckel guess.           
      -- Initial occupation of symmetries is :
@    Occupied SCF orbitals               9 |    5    2    2    0

     Maximum number of Fock   iterations      0
     Maximum number of DIIS   iterations     60
     Maximum number of QC-SCF iterations     60
     Threshold for SCF convergence     1.00D-10


 Changes of defaults for CC:
 ---------------------------

 -Calculation with finite fields:
    Field strength:   0.100000Field Label:  ZDIPLEN 

 Electric field:      0.00000000    0.00000000    0.10000000
 Total norm:          0.10000000
Center of charge:    0.00000000    0.00000000    0.19453408
Charge correction to interaction with electric field:   -0.35016135

 -Dipole moment calculated
 -Traceless quadrupole moment calculated
 -Electric field gradient calculated
 -Relativistic corrections to energy calculated
 -Electronic second moment of charge calculated
 -Relativistic two-electron Darwin term calculated
 -First-order DPT energy corrections calculated
  


 >>>>> DIIS optimization of Hartree-Fock <<<<<

 C1-DIIS algorithm; max error vectors =   10

 Automatic occupation of symmetries with  18 electrons.

 Iter     Total energy    Error norm  Delta(E)    SCF occupation
 -----------------------------------------------------------------------------
     (Precalculated two-electron integrals are transformed to P-supermatrix elements.
      Threshold for discarding integrals :  1.00D-15 )
@  1  -578.280584273       1.52D+00  -5.78D+02     5   2   2   0
      Virial theorem: -V/T =      2.452486
@      MULPOP S       0.17; H   _1 -0.09; H   _2 -0.09; 
 -----------------------------------------------------------------------------
@  2  -578.458315944       3.49D-01  -1.78D-01     5   2   2   0
      Virial theorem: -V/T =      2.448971
@      MULPOP S      -0.61; H   _1  0.31; H   _2  0.31; 
 -----------------------------------------------------------------------------
@  3  -578.472409252       1.03D-01  -1.41D-02     5   2   2   0
      Virial theorem: -V/T =      2.451861
@      MULPOP S      -0.71; H   _1  0.35; H   _2  0.35; 
 -----------------------------------------------------------------------------
@  4  -578.473741329       2.30D-02  -1.33D-03     5   2   2   0
      Virial theorem: -V/T =      2.451317
@      MULPOP S      -0.77; H   _1  0.38; H   _2  0.38; 
 -----------------------------------------------------------------------------
@  5  -578.473838847       2.48D-03  -9.75D-05     5   2   2   0
      Virial theorem: -V/T =      2.451369
@      MULPOP S      -0.78; H   _1  0.39; H   _2  0.39; 
 -----------------------------------------------------------------------------
@  6  -578.473839730       4.78D-04  -8.82D-07     5   2   2   0
      Virial theorem: -V/T =      2.451374
@      MULPOP S      -0.78; H   _1  0.39; H   _2  0.39; 
 -----------------------------------------------------------------------------
@  7  -578.473839760       1.04D-04  -3.03D-08     5   2   2   0
      Virial theorem: -V/T =      2.451373
@      MULPOP S      -0.78; H   _1  0.39; H   _2  0.39; 
 -----------------------------------------------------------------------------
@  8  -578.473839762       1.63D-05  -1.76D-09     5   2   2   0
      Virial theorem: -V/T =      2.451373
@      MULPOP S      -0.78; H   _1  0.39; H   _2  0.39; 
 -----------------------------------------------------------------------------
@  9  -578.473839762       1.44D-06  -4.42D-11     5   2   2   0
      Virial theorem: -V/T =      2.451373
@      MULPOP S      -0.78; H   _1  0.39; H   _2  0.39; 
 -----------------------------------------------------------------------------
@ 10  -578.473839762       2.33D-07   0.00D+00     5   2   2   0
      Virial theorem: -V/T =      2.451373
@      MULPOP S      -0.78; H   _1  0.39; H   _2  0.39; 
 -----------------------------------------------------------------------------
@ 11  -578.473839762       3.70D-08  -1.14D-13     5   2   2   0
      Virial theorem: -V/T =      2.451373
@      MULPOP S      -0.78; H   _1  0.39; H   _2  0.39; 
 -----------------------------------------------------------------------------
@ 12  -578.473839762       6.49D-09  -1.14D-13     5   2   2   0
      Virial theorem: -V/T =      2.451373
@      MULPOP S      -0.78; H   _1  0.39; H   _2  0.39; 
 -----------------------------------------------------------------------------
@ 13  -578.473839762       5.38D-10   3.41D-13     5   2   2   0
      Virial theorem: -V/T =      2.451373
@      MULPOP S      -0.78; H   _1  0.39; H   _2  0.39; 
 -----------------------------------------------------------------------------
@ 14  -578.473839762       1.06D-10  -2.27D-13     5   2   2   0
      Virial theorem: -V/T =      2.451373
@      MULPOP S      -0.78; H   _1  0.39; H   _2  0.39; 
 -----------------------------------------------------------------------------
@ 15  -578.473839762       1.52D-11   0.00D+00     5   2   2   0

@ *** DIIS converged in  15 iterations !
@     Converged SCF energy, gradient:   -578.473839761818    1.52D-11
    - total time used in SIRFCK :              0.00 seconds


 *** SCF orbital energy analysis ***

 Only the five lowest virtual orbital energies printed in each symmetry.

 Number of electrons :   18
 Orbital occupations :    5    2    2    0

 Sym       Hartree-Fock orbital energies

  1   -101.92701596   -18.93179770   -16.61430597   -10.94042000   -10.48923980
        -9.71810236    -9.36624373    -9.33605301    -9.23883504    -9.02587804

  2    -16.61509637   -10.52911877    -9.75542116    -9.44404635    -9.15243774
        -8.67906229    -8.28860481

  3    -16.61211960   -10.35794076    -9.28526201    -9.18809637    -8.15867972


  4     -9.19567248    -8.26154876

    E(LUMO) :    -9.75542116 au (symmetry 2)
  - E(HOMO) :   -10.35794076 au (symmetry 3)
  ------------------------------------------
    gap     :     0.60251959 au

 >>> Writing SIRIFC interface file <<<

 >>>> CPU and wall time for SCF :       0.010       0.010


                       .-----------------------------------.
                       | >>> Final results from SIRIUS <<< |
                       `-----------------------------------'


@    Spin multiplicity:           1
@    Spatial symmetry:            1
@    Total charge of molecule:    0

 The molecule is placed in a static field.
 Field strength (a.u.)          Field operator
 ---------------------          --------------
    0.10000000                      ZDIPLEN 


@    Final HF energy:            -578.473839761818                 
@    Nuclear repulsion:            12.936949454995
@    Electronic energy:          -591.410789216814

@    Final gradient norm:           0.000000000015

 
     Date and time (Linux)  : Sun Sep  8 21:16:22 2013
     Host name              : lpqlx131.ups-tlse.fr                    

 (Only coefficients >0.0100 are printed.)

 Molecular orbitals for symmetry species  1
 ------------------------------------------

    Orbital         1        2        3        4        5        6        7
   1 S   :1s     1.0000   0.0002   0.0000  -0.0016   0.0065  -0.0042  -0.0239
   2 S   :1s     0.0001   1.0020  -0.0010  -0.0186   0.0431  -0.0520  -0.1809
   3 S   :1s     0.0002   0.0062   0.0011   0.8605  -0.0786  -0.6881  -0.5853
   4 S   :1s    -0.0003  -0.0081  -0.0016  -0.0131  -0.1611  -0.7170   0.7834
   5 S   :2pz    0.0000   0.0017   1.0000  -0.0029  -0.0208   0.0467   0.1574
   6 S   :2pz    0.0001   0.0024  -0.0003   0.0818   0.7582   0.1330   1.4672
   7 S   :2pz   -0.0001  -0.0036  -0.0007  -0.1021   0.1111  -1.1304  -1.6879
   8 S   :3d0    0.0000   0.0002  -0.0001   0.0050  -0.0116   0.0401   0.1667
   9 S   :3d2+   0.0000   0.0004   0.0000   0.0133   0.0333   0.0749   0.2038
  10 H   :1s    -0.0001  -0.0008   0.0008   0.2728   0.3440   0.3842   0.6002
  11 H   :1s     0.0001   0.0030  -0.0001  -0.1232  -0.2261   0.8118  -0.6985
  12 H   :2px    0.0000   0.0006  -0.0002  -0.0191  -0.0118  -0.0060  -0.0416
  13 H   :2pz    0.0000   0.0006  -0.0002  -0.0202  -0.0161  -0.0042  -0.0045

 Molecular orbitals for symmetry species  2
 ------------------------------------------

    Orbital         1        2        3        4
   1 S   :2px    1.0000  -0.0174   0.0369  -0.1128
   2 S   :2px    0.0004   0.7414  -0.1926  -1.1240
   3 S   :2px   -0.0012  -0.0100  -1.0442   0.9640
   4 S   :3d1+   0.0000   0.0644   0.2349  -0.2205
   5 H   :1s     0.0007   0.4573   0.6238  -0.6632
   6 H   :1s    -0.0000  -0.2289   0.5098   1.2465
   7 H   :2px   -0.0001  -0.0092   0.0045   0.0175
   8 H   :2pz   -0.0002  -0.0270  -0.0095   0.0188

 Molecular orbitals for symmetry species  3
 ------------------------------------------

    Orbital         1        2        3        4
   1 S   :2py    0.9999  -0.0079  -0.2147  -0.0317
   2 S   :2py   -0.0026   0.9104  -2.0297  -0.3007
   3 S   :2py    0.0012   0.0934   2.2489   0.2974
   4 S   :3d1-  -0.0001  -0.0290  -0.1210   0.9220
   5 H   :2py    0.0001   0.0122  -0.0510   0.1227

 Molecular orbitals for symmetry species  4
 ------------------------------------------

    Orbital         1        2
   1 S   :3d2-   0.9218  -0.5169
   2 H   :2py    0.1355   0.7380



 >>>> Total CPU  time used in SIRIUS :      0.01 seconds
 >>>> Total wall time used in SIRIUS :      0.01 seconds

 
     Date and time (Linux)  : Sun Sep  8 21:16:22 2013
     Host name              : lpqlx131.ups-tlse.fr                    


                     .---------------------------------------.
                     | End of Wave Function Section (SIRIUS) |
                     `---------------------------------------'



                    .------------------------------------------.
                    | Starting in Coupled Cluster Section (CC) |
                    `------------------------------------------'

  

 *******************************************************************************
 *******************************************************************************
 *                                                                             *
 *                                                                             *
 *                    START OF COUPLED CLUSTER CALCULATION                     *
 *                                                                             *
 *                                                                             *
 *******************************************************************************
 *******************************************************************************



 CCR12 ANSATZ =   0

 CCR12 APPROX =   0

   

 *******************************************************************
 *                                                                 *
 *<<<<<<<<<<                                             >>>>>>>>>>*
 *<<<<<<<<<< OUTPUT FROM COUPLED CLUSTER ENERGY PROGRAM  >>>>>>>>>>*
 *<<<<<<<<<<                                             >>>>>>>>>>*
 *                                                                 *
 *******************************************************************


             The Direct Coupled Cluster Energy Program
             -----------------------------------------


          Number of t1 amplitudes                 :        58
          Number of t2 amplitudes                 :      4022
          Total number of amplitudes in ccsd      :      4080



          CCS CALC. - NO WAVEFUNCTION OPTIMIZATION
   

 *******************************************************************
 *                                                                 *
 *<<<<<<<<<<<<< OUTPUT FROM COUPLED CLUSTER RESPONSE  >>>>>>>>>>>>>*
 *                                                                 *
 *<<<<<<<<<<    CALCULATION OF FIRST ORDER PROPERTIES    >>>>>>>>>>*
 *                                                                 *
 *******************************************************************



                         +-------------------------------+
                         ! Coupled Cluster model is: CCS !
                         +-------------------------------+

  


             +--------------------------------------------------------+
             !   Relaxed  CCS    First-order one-electron properties: !
             +--------------------------------------------------------+



                            +-------------------------+
                            !  Electric Dipole Moment !
                            +-------------------------+



                          Total Molecular Dipole Moment
                          -----------------------------

                 au               Debye          C m (/(10**-30)

      z      2.04564167         5.19950216        17.34367232




                          +-----------------------------+
                          !  Electric Quadrupole Moment !
                          +-----------------------------+



                        Total Molecular quadrupole moment
                        ---------------------------------

                    X              Y              Z

               Column   1     Column   2     Column   3
       1     8.985683D+04   0.000000D+00   0.000000D+00
       2     0.000000D+00   8.985045D+04   0.000000D+00
       3     0.000000D+00   0.000000D+00  -1.797073D+05
    ==== End of matrix output ====


                      +-------------------------------------+
                      !  Electronic second moment of charge !
                      +-------------------------------------+

                    X              Y              Z

               Column   1     Column   2     Column   3
       1     1.495581D+01   0.000000D+00   0.000000D+00
       2     0.000000D+00   1.256887D+01   0.000000D+00
       3     0.000000D+00   0.000000D+00   1.797239D+05
    ==== End of matrix output ====

 Alfa**2 Invariant:                    **************
 Beta**2 Invariant:                    **************

 Isotropic Property:                       ********** a.u.
 Property anisotropy invariant:            ********** a.u.


                           +---------------------------+
                           !  Electric Field Gradients !
                           +---------------------------+



      *********************************************************************
      **************** ABACUS - Nuclear Quadrupole moments ****************
      *********************************************************************


Total non-diagonalized EFG Tensor   S     

               Column   1     Column   2     Column   3
       1       1.20326197     0.00000000     0.00000000
       2       0.00000000    -1.68902513     0.00000000
       3       0.00000000     0.00000000     0.48576316
    ==== End of matrix output ====

Total non-diagonalized EFG Tensor   H   _1

               Column   1     Column   2     Column   3
       1       0.10828639     0.00000000     0.16332050
       2       0.00000000    -0.13263254     0.00000000
       3       0.16332050     0.00000000     0.02434615
    ==== End of matrix output ====

Total non-diagonalized EFG Tensor   H   _2

               Column   1     Column   2     Column   3
       1       0.10828639     0.00000000    -0.16332050
       2       0.00000000    -0.13263254     0.00000000
       3      -0.16332050     0.00000000     0.02434615
    ==== End of matrix output ====
 String on input: "S       "
 String on input: "S       "
 String on input: "H   _1  "
 String on input: "H__1    "
 String on input: "H   _2  "
 String on input: "H__2    "

EFG Principal axis                  S     

               Column   1     Column   2     Column   3
       1       1.00000000     0.00000000     0.00000000
       2       0.00000000     1.00000000     0.00000000
       3       0.00000000     0.00000000     1.00000000
    ==== End of matrix output ====

EFG Principal axis                  H   _1

               Column   1     Column   2     Column   3
       1       0.79021933     0.00000000    -0.61282413
       2       0.00000000     1.00000000     0.00000000
       3       0.61282413     0.00000000     0.79021933
    ==== End of matrix output ====

EFG Principal axis                  H   _2

               Column   1     Column   2     Column   3
       1       0.79021933     0.00000000     0.61282413
       2       0.00000000     1.00000000     0.00000000
       3      -0.61282413     0.00000000     0.79021933
    ==== End of matrix output ====


                         Nuclear quadrupole moment for S
                         -------------------------------

          Spin     :  1.5          Quadrupole moment:-.06780000
                            au           MHz        Gauss
 S      33    Vx =       0.485763    -7.738504    -2.764493
 S      33    Vy =       1.203262   -19.168699    -6.847800
 S      33    Vz =      -1.689025    26.907204     9.612293
                 Asymmetry constant eta:      0.424801
                 Auxiliary value au  1/T  0.139027D-02


                       Nuclear quadrupole moment for H   _1
                       ------------------------------------

          Spin     :  1.0          Quadrupole moment:0.00286000
                            au           MHz        Gauss
 H   _1  2    Vx =      -0.102311    -0.068753    -0.024561
 H   _1  2    Vy =      -0.132633    -0.089129    -0.031840
 H   _1  2    Vz =       0.234943     0.157882     0.056401
                 Asymmetry constant eta:      0.129060
                 Auxiliary value au  1/T  0.170253D-06


                       Nuclear quadrupole moment for H   _2
                       ------------------------------------

          Spin     :  1.0          Quadrupole moment:0.00286000
                            au           MHz        Gauss
 H   _2  2    Vx =      -0.102311    -0.068753    -0.024561
 H   _2  2    Vy =      -0.132633    -0.089129    -0.031840
 H   _2  2    Vz =       0.234943     0.157882     0.056401
                 Asymmetry constant eta:      0.129060
                 Auxiliary value au  1/T  0.170253D-06


            +---------------------------------------------------------+
            !  First-order DPT corrections to the ground-state energy !
            +---------------------------------------------------------+

  
         DPTFLD:     -0.106118497920    (ZDIPLEN )
         ------ 
  
  
         DPTFLD:     -0.106118497920    (TOTAL   )
         ------ 
  
  
         DPTONE:     -2.098268677077
         ------ 
  
         DPTREO:      0.727005656793
         ------ 

 Number of two-electron spin-orbit integrals written:     11308 (24.9%)

 Number of two-electron spin-orbit integrals written:     23259 (22.7%)
 >>>  Time used in TWOINT     is   0.14 seconds

 Number of two-electron spin-orbit integrals written:     12435 (21.9%)

 Number of two-electron spin-orbit integrals written:     12668 (27.9%)

 Number of two-electron spin-orbit integrals written:     17420 (25.5%)
  
         DPTTWO:      0.368308228026
         ------ 
  
         Total first-order DPT correction:     -1.109073290178
         --------------------------------


           +------------------------------------------------------------+
           !  Pauli relativistic corrections to the ground-state energy !
           +------------------------------------------------------------+

  
         1-elec. Darwin term:      3.472152659
         ------------------- 
  
         Mass-Velocity term:      -4.547062871
         ------------------  
  
         Mass-Velocity + 1-elec. Darwin terms:      -1.074910212
         ------------------------------------ 

 Number of two-electron spin-orbit integrals written:     11308 (24.9%)

 Number of two-electron spin-orbit integrals written:     23223 (22.7%)

 Number of two-electron spin-orbit integrals written:     12365 (21.8%)

 Number of two-electron spin-orbit integrals written:     12668 (27.9%)

 Number of two-electron spin-orbit integrals written:     17420 (25.5%)
  
         2-elec. Darwin term:      -0.034106429
         ------------------- 
  
         Total relativistic correction:      -1.109016641
         ----------------------------- 


 CCR12 ANSATZ =   0

 CCR12 APPROX =   0

   

 *******************************************************************
 *                                                                 *
 *<<<<<<<<<<                                             >>>>>>>>>>*
 *<<<<<<<<<< OUTPUT FROM COUPLED CLUSTER ENERGY PROGRAM  >>>>>>>>>>*
 *<<<<<<<<<<                                             >>>>>>>>>>*
 *                                                                 *
 *******************************************************************


             The Direct Coupled Cluster Energy Program
             -----------------------------------------


          Number of t1 amplitudes                 :        58
          Number of t2 amplitudes                 :      4022
          Total number of amplitudes in ccsd      :      4080

 Iter.  1: Coupled cluster MP2   energy :    -578.6247428975402727
 Iter.  1: Coupled cluster CCSD  energy :    -578.6391426803013474
 Iter.  2: Coupled cluster CCSD  energy :    -578.6437164355158984
 Iter.  3: Coupled cluster CCSD  energy :    -578.6438232598256945
 Iter.  4: Coupled cluster CCSD  energy :    -578.6438439062766292
 Iter.  5: Coupled cluster CCSD  energy :    -578.6438367053726779
 Iter.  6: Coupled cluster CCSD  energy :    -578.6438366407280682
 Iter.  7: Coupled cluster CCSD  energy :    -578.6438368489566528
 Iter.  8: Coupled cluster CCSD  energy :    -578.6438367518524046
 Iter.  9: Coupled cluster CCSD  energy :    -578.6438367495132979
 Iter. 10: Coupled cluster CCSD  energy :    -578.6438367474704592
 Iter. 11: Coupled cluster CCSD  energy :    -578.6438367475698215

 CCSD  energy converged to within   0.10D-09 is         -578.643836747570
 Final 2-norm of the CC vector function:  3.19892718D-08





             +-------------------------------------------------------+
             ! Final results from the Coupled Cluster energy program !
             +-------------------------------------------------------+



            Total SCF   energy:                  -578.4738397618

            Total MP2   energy:                  -578.6247428975

            Total CCSD  energy:                  -578.6438367476




                   +--------------------------------------------+
                   ! Calculating singlet intermediates for CCLR !
                   +--------------------------------------------+



            E-intermediates calculated 
            Fock-intermediate calculated 
            Gamma-intermediate calculated 
            BF-intermediate calculated 
            C-intermediate calculated 
            D-intermediate calculated 


   

 *******************************************************************
 *                                                                 *
 *<<<<<<<<<<<<< OUTPUT FROM COUPLED CLUSTER RESPONSE  >>>>>>>>>>>>>*
 *                                                                 *
 *<<<<<<<<<<    CALCULATION OF FIRST ORDER PROPERTIES    >>>>>>>>>>*
 *                                                                 *
 *******************************************************************



                         +--------------------------------+
                         ! Coupled Cluster model is: CCSD !
                         +--------------------------------+

 RPA: call cceq_str
 RPA: exit cceq_str


                  Constructing right-hand-side for CCSD-kappa-0
                  ---------------------------------------------

 CC_FOP> Norm of RHS vector:   3.9801163841836054E-005


                      Solving for orbital relaxation vector
                      -------------------------------------


 Integral transformation: Total CPU and WALL times (sec)       0.006       0.006

   Equations converged to residual less than:  0.000000
 CCFOP: call CC_D1AO to recalc the 1e Density


                            +--------------------------+
                            ! CCSD Natural Occupations !
                            +--------------------------+

  
   Symmetry block number:  1
   ---------------------
  
   1.99999978   1.99990422   1.99976576   1.97918277   1.95591900
   0.02622488   0.01308208   0.01100683   0.00958207   0.00224061
   0.00059099   0.00056006   0.00008429
  
   Sum in this symmetry class:   9.998143
  
   Symmetry block number:  2
   ---------------------
  
   1.99975437   1.95477694   0.03439415   0.00919771   0.00253463
   0.00097396   0.00059409   0.00006638
  
   Sum in this symmetry class:   4.002292
  
   Symmetry block number:  3
   ---------------------
  
   1.99982181   1.95802042   0.01443111   0.01093211   0.00079267
  
   Sum in this symmetry class:   3.983998
  
   Symmetry block number:  4
   ---------------------
  
   0.01454988   0.00101641
  
   Sum in this symmetry class:   0.015566
  
  
   Total Sum of natural occupation numbers:  18.000000
  
   Dynamical correlation move: 0.152855 electrons
  


             +--------------------------------------------------------+
             !   Relaxed CCSD    First-order one-electron properties: !
             +--------------------------------------------------------+



                            +-------------------------+
                            !  Electric Dipole Moment !
                            +-------------------------+



                          Total Molecular Dipole Moment
                          -----------------------------

                 au               Debye          C m (/(10**-30)

      z      2.00550399         5.09748236        17.00337092




                          +-----------------------------+
                          !  Electric Quadrupole Moment !
                          +-----------------------------+



                        Total Molecular quadrupole moment
                        ---------------------------------

                    X              Y              Z

               Column   1     Column   2     Column   3
       1     8.985271D+04   0.000000D+00   0.000000D+00
       2     0.000000D+00   8.984659D+04   0.000000D+00
       3     0.000000D+00   0.000000D+00  -1.796993D+05
    ==== End of matrix output ====


                      +-------------------------------------+
                      !  Electronic second moment of charge !
                      +-------------------------------------+

                    X              Y              Z

               Column   1     Column   2     Column   3
       1     1.501772D+01   0.000000D+00   0.000000D+00
       2     0.000000D+00   1.245032D+01   0.000000D+00
       3     0.000000D+00   0.000000D+00   1.797158D+05
    ==== End of matrix output ====

 Alfa**2 Invariant:                    **************
 Beta**2 Invariant:                    **************

 Isotropic Property:                       ********** a.u.
 Property anisotropy invariant:            ********** a.u.


                           +---------------------------+
                           !  Electric Field Gradients !
                           +---------------------------+



      *********************************************************************
      **************** ABACUS - Nuclear Quadrupole moments ****************
      *********************************************************************


Total non-diagonalized EFG Tensor   S     

               Column   1     Column   2     Column   3
       1       1.21415499     0.00000000     0.00000000
       2       0.00000000    -1.75737864     0.00000000
       3       0.00000000     0.00000000     0.54322365
    ==== End of matrix output ====

Total non-diagonalized EFG Tensor   H   _1

               Column   1     Column   2     Column   3
       1       0.10801704     0.00000000     0.16984653
       2       0.00000000    -0.13635068     0.00000000
       3       0.16984653     0.00000000     0.02833364
    ==== End of matrix output ====

Total non-diagonalized EFG Tensor   H   _2

               Column   1     Column   2     Column   3
       1       0.10801704     0.00000000    -0.16984653
       2       0.00000000    -0.13635068     0.00000000
       3      -0.16984653     0.00000000     0.02833364
    ==== End of matrix output ====
 String on input: "S       "
 String on input: "S       "
 String on input: "H   _1  "
 String on input: "H__1    "
 String on input: "H   _2  "
 String on input: "H__2    "

EFG Principal axis                  S     

               Column   1     Column   2     Column   3
       1       1.00000000     0.00000000     0.00000000
       2       0.00000000     1.00000000     0.00000000
       3       0.00000000     0.00000000     1.00000000
    ==== End of matrix output ====

EFG Principal axis                  H   _1

               Column   1     Column   2     Column   3
       1       0.78370136     0.00000000    -0.62113781
       2       0.00000000     1.00000000     0.00000000
       3       0.62113781     0.00000000     0.78370136
    ==== End of matrix output ====

EFG Principal axis                  H   _2

               Column   1     Column   2     Column   3
       1       0.78370136     0.00000000     0.62113781
       2       0.00000000     1.00000000     0.00000000
       3      -0.62113781     0.00000000     0.78370136
    ==== End of matrix output ====


                         Nuclear quadrupole moment for S
                         -------------------------------

          Spin     :  1.5          Quadrupole moment:-.06780000
                            au           MHz        Gauss
 S      33    Vx =       0.543224    -8.653885    -3.091502
 S      33    Vy =       1.214155   -19.342232    -6.909793
 S      33    Vz =      -1.757379    27.996117    10.001295
                 Asymmetry constant eta:      0.381780
                 Auxiliary value au  1/T  0.148865D-02


                       Nuclear quadrupole moment for H   _1
                       ------------------------------------

          Spin     :  1.0          Quadrupole moment:0.00286000
                            au           MHz        Gauss
 H   _1  2    Vx =      -0.106282    -0.071421    -0.025514
 H   _1  2    Vy =      -0.136351    -0.091628    -0.032733
 H   _1  2    Vz =       0.242632     0.163049     0.058247
                 Asymmetry constant eta:      0.123929
                 Auxiliary value au  1/T  0.181501D-06


                       Nuclear quadrupole moment for H   _2
                       ------------------------------------

          Spin     :  1.0          Quadrupole moment:0.00286000
                            au           MHz        Gauss
 H   _2  2    Vx =      -0.106282    -0.071421    -0.025514
 H   _2  2    Vy =      -0.136351    -0.091628    -0.032733
 H   _2  2    Vz =       0.242632     0.163049     0.058247
                 Asymmetry constant eta:      0.123929
                 Auxiliary value au  1/T  0.181501D-06


            +---------------------------------------------------------+
            !  First-order DPT corrections to the ground-state energy !
            +---------------------------------------------------------+

  
         DPTFLD:     -0.106140228702    (ZDIPLEN )
         ------ 
  
  
         DPTFLD:     -0.106140228702    (TOTAL   )
         ------ 
  
  
         DPTONE:     -2.098168060049
         ------ 
  
         DPTREO:      0.727075802332
         ------ 

 Number of two-electron spin-orbit integrals written:     11308 (24.9%)

 Number of two-electron spin-orbit integrals written:     23259 (22.7%)
 >>>  Time used in TWOINT     is   0.13 seconds

 Number of two-electron spin-orbit integrals written:     12435 (21.9%)

 Number of two-electron spin-orbit integrals written:     12668 (27.9%)

 Number of two-electron spin-orbit integrals written:     17420 (25.5%)
  
         DPTTWO:      0.368216477333
         ------ 
  
         Total first-order DPT correction:     -1.109016009086
         --------------------------------


           +------------------------------------------------------------+
           !  Pauli relativistic corrections to the ground-state energy !
           +------------------------------------------------------------+

  
         1-elec. Darwin term:      3.472219982
         ------------------- 
  
         Mass-Velocity term:      -4.547100057
         ------------------  
  
         Mass-Velocity + 1-elec. Darwin terms:      -1.074880075
         ------------------------------------ 

 Number of two-electron spin-orbit integrals written:     11308 (24.9%)

 Number of two-electron spin-orbit integrals written:     23223 (22.7%)

 Number of two-electron spin-orbit integrals written:     12365 (21.8%)

 Number of two-electron spin-orbit integrals written:     12668 (27.9%)

 Number of two-electron spin-orbit integrals written:     17420 (25.5%)
  
         2-elec. Darwin term:      -0.034092399
         ------------------- 
  
         Total relativistic correction:      -1.108972474
         ----------------------------- 


 CCR12 ANSATZ =   0

 CCR12 APPROX =   0

   

 *******************************************************************
 *                                                                 *
 *<<<<<<<<<<                                             >>>>>>>>>>*
 *<<<<<<<<<< OUTPUT FROM COUPLED CLUSTER ENERGY PROGRAM  >>>>>>>>>>*
 *<<<<<<<<<<                                             >>>>>>>>>>*
 *                                                                 *
 *******************************************************************


             The Direct Coupled Cluster Energy Program
             -----------------------------------------


          Number of t1 amplitudes                 :        58
          Number of t2 amplitudes                 :      4022
          Total number of amplitudes in ccsd      :      4080

 Iter.  1: Coupled cluster RSTAR energy :    -578.6438367475698215
 Iter.  1: Coupled cluster CCSD  energy :    -578.6438367476760050
 Iter.  2: Coupled cluster CCSD  energy :    -578.6438367476993108

 CCSD  energy converged to within   0.10D-09 is         -578.643836747699
 Final 2-norm of the CC vector function:  3.46680776D-09





             +-------------------------------------------------------+
             ! Final results from the Coupled Cluster energy program !
             +-------------------------------------------------------+



            Total SCF   energy:                  -578.4738397618

            Total RSTAR energy:                  -578.6438367476

            Total CCSD  energy:                  -578.6438367477


                     Perturbative triples corrections
                     --------------------------------

            The E4 doubles and triples:            -0.0032756364
            The E5 singles and triples:             0.0000412625

            Total energy CCSD(T):                -578.6470711216




                   +--------------------------------------------+
                   ! Calculating singlet intermediates for CCLR !
                   +--------------------------------------------+



            E-intermediates calculated 
            Fock-intermediate calculated 
            Gamma-intermediate calculated 
            BF-intermediate calculated 
            C-intermediate calculated 
            D-intermediate calculated 


   

 *******************************************************************
 *                                                                 *
 *<<<<<<<<<<<<< OUTPUT FROM COUPLED CLUSTER RESPONSE  >>>>>>>>>>>>>*
 *                                                                 *
 *<<<<<<<<<<    CALCULATION OF FIRST ORDER PROPERTIES    >>>>>>>>>>*
 *                                                                 *
 *******************************************************************



                        +----------------------------------+
                        ! Coupled Cluster model is CCSD(T) !
                        +----------------------------------+

 RPA: call cceq_str
 Vector nr.  1 of symmetry  1 found on file - RESTART SUCCESS
 Start vector is a CCSD      L0  vector
 RPA: exit cceq_str


                      Constructing RHS for CCSD(T)-kapbar-0
                      -------------------------------------



                                Inside ccpt_den()
                                -----------------

 CC_DEN_PTFC: ZKDIA before TWO electron part  0.20481526871380717     


                    Construct part of rhs for CCSD(T)-kappa-0
                    -----------------------------------------

 CC_DEN_PTFC using CCETACOR
 CC_DEN_PTFC: ZKDIA before CCETACOR   1.8642746009481770E-006
 CC_FOP> Norm of RHS vector:   1.3917157584764032E-006


                      Solving for orbital relaxation vector
                      -------------------------------------


 Integral transformation: Total CPU and WALL times (sec)       0.006       0.006

   Equations converged to residual less than:  0.000000
 CCFOP: call CC_D1AO to recalc the 1e Density


                            +--------------------------+
                            ! CCSD Natural Occupations !
                            +--------------------------+

  
   Symmetry block number:  1
   ---------------------
  
   1.99999978   1.99990223   1.99975917   1.97865737   1.95378835
   0.02758882   0.01360658   0.01130486   0.00981874   0.00229242
   0.00060230   0.00057269   0.00008582
  
   Sum in this symmetry class:   9.997979
  
   Symmetry block number:  2
   ---------------------
  
   1.99974755   1.95233531   0.03679627   0.00942864   0.00260043
   0.00098324   0.00061728   0.00006849
  
   Sum in this symmetry class:   4.002577
  
   Symmetry block number:  3
   ---------------------
  
   1.99981626   1.95654152   0.01492010   0.01123955   0.00080544
  
   Sum in this symmetry class:   3.983323
  
   Symmetry block number:  4
   ---------------------
  
   0.01508418   0.00103659
  
   Sum in this symmetry class:   0.016121
  
  
   Total Sum of natural occupation numbers:  18.000000
  
   Dynamical correlation move: 0.159452 electrons
  


             +--------------------------------------------------------+
             !   Relaxed CCSD(T) First-order one-electron properties: !
             +--------------------------------------------------------+



                            +-------------------------+
                            !  Electric Dipole Moment !
                            +-------------------------+



                          Total Molecular Dipole Moment
                          -----------------------------

                 au               Debye          C m (/(10**-30)

      z      2.00226660         5.08925375        16.97592322




                          +-----------------------------+
                          !  Electric Quadrupole Moment !
                          +-----------------------------+



                        Total Molecular quadrupole moment
                        ---------------------------------

                    X              Y              Z

               Column   1     Column   2     Column   3
       1     8.985238D+04   0.000000D+00   0.000000D+00
       2     0.000000D+00   8.984628D+04   0.000000D+00
       3     0.000000D+00   0.000000D+00  -1.796987D+05
    ==== End of matrix output ====


                      +-------------------------------------+
                      !  Electronic second moment of charge !
                      +-------------------------------------+

                    X              Y              Z

               Column   1     Column   2     Column   3
       1     1.502320D+01   0.000000D+00   0.000000D+00
       2     0.000000D+00   1.244688D+01   0.000000D+00
       3     0.000000D+00   0.000000D+00   1.797152D+05
    ==== End of matrix output ====

 Alfa**2 Invariant:                    **************
 Beta**2 Invariant:                    **************

 Isotropic Property:                       ********** a.u.
 Property anisotropy invariant:            ********** a.u.


                           +---------------------------+
                           !  Electric Field Gradients !
                           +---------------------------+



      *********************************************************************
      **************** ABACUS - Nuclear Quadrupole moments ****************
      *********************************************************************


Total non-diagonalized EFG Tensor   S     

               Column   1     Column   2     Column   3
       1       1.21163151     0.00000000     0.00000000
       2       0.00000000    -1.75901769     0.00000000
       3       0.00000000     0.00000000     0.54738617
    ==== End of matrix output ====

Total non-diagonalized EFG Tensor   H   _1

               Column   1     Column   2     Column   3
       1       0.10801353     0.00000000     0.17029117
       2       0.00000000    -0.13664893     0.00000000
       3       0.17029117     0.00000000     0.02863541
    ==== End of matrix output ====

Total non-diagonalized EFG Tensor   H   _2

               Column   1     Column   2     Column   3
       1       0.10801353     0.00000000    -0.17029117
       2       0.00000000    -0.13664893     0.00000000
       3      -0.17029117     0.00000000     0.02863541
    ==== End of matrix output ====
 String on input: "S       "
 String on input: "S       "
 String on input: "H   _1  "
 String on input: "H__1    "
 String on input: "H   _2  "
 String on input: "H__2    "

EFG Principal axis                  S     

               Column   1     Column   2     Column   3
       1       1.00000000     0.00000000     0.00000000
       2       0.00000000     1.00000000     0.00000000
       3       0.00000000     0.00000000     1.00000000
    ==== End of matrix output ====

EFG Principal axis                  H   _1

               Column   1     Column   2     Column   3
       1       0.78325684     0.00000000    -0.62169825
       2       0.00000000     1.00000000     0.00000000
       3       0.62169825     0.00000000     0.78325684
    ==== End of matrix output ====

EFG Principal axis                  H   _2

               Column   1     Column   2     Column   3
       1       0.78325684     0.00000000     0.62169825
       2       0.00000000     1.00000000     0.00000000
       3      -0.62169825     0.00000000     0.78325684
    ==== End of matrix output ====


                         Nuclear quadrupole moment for S
                         -------------------------------

          Spin     :  1.5          Quadrupole moment:-.06780000
                            au           MHz        Gauss
 S      33    Vx =       0.547386    -8.720197    -3.115191
 S      33    Vy =       1.211632   -19.302031    -6.895432
 S      33    Vz =      -1.759018    28.022228    10.010623
                 Asymmetry constant eta:      0.377623
                 Auxiliary value au  1/T  0.148994D-02


                       Nuclear quadrupole moment for H   _1
                       ------------------------------------

          Spin     :  1.0          Quadrupole moment:0.00286000
                            au           MHz        Gauss
 H   _1  2    Vx =      -0.106531    -0.071589    -0.025574
 H   _1  2    Vy =      -0.136649    -0.091828    -0.032805
 H   _1  2    Vz =       0.243180     0.163416     0.058379
                 Asymmetry constant eta:      0.123852
                 Auxiliary value au  1/T  0.182319D-06


                       Nuclear quadrupole moment for H   _2
                       ------------------------------------

          Spin     :  1.0          Quadrupole moment:0.00286000
                            au           MHz        Gauss
 H   _2  2    Vx =      -0.106531    -0.071589    -0.025574
 H   _2  2    Vy =      -0.136649    -0.091828    -0.032805
 H   _2  2    Vz =       0.243180     0.163416     0.058379
                 Asymmetry constant eta:      0.123852
                 Auxiliary value au  1/T  0.182319D-06


            +---------------------------------------------------------+
            !  First-order DPT corrections to the ground-state energy !
            +---------------------------------------------------------+

  
         DPTFLD:     -0.106141061791    (ZDIPLEN )
         ------ 
 Effective 1-e density in AO basis All:    31.786567012787359     
  
  
         DPTFLD:     -0.106141061791    (TOTAL   )
         ------ 
  
  
         DPTONE:     -2.098164962735
         ------ 
  
         DPTREO:      0.727082293429
         ------ 

 Number of two-electron spin-orbit integrals written:     11308 (24.9%)

 Number of two-electron spin-orbit integrals written:     23259 (22.7%)
 >>>  Time used in TWOINT     is   0.13 seconds

 Number of two-electron spin-orbit integrals written:     12435 (21.9%)

 Number of two-electron spin-orbit integrals written:     12668 (27.9%)

 Number of two-electron spin-orbit integrals written:     17420 (25.5%)
  
         DPTTWO:      0.368208087072
         ------ 
  
         Total first-order DPT correction:     -1.109015644024
         --------------------------------


           +------------------------------------------------------------+
           !  Pauli relativistic corrections to the ground-state energy !
           +------------------------------------------------------------+

  
         1-elec. Darwin term:      3.472233366
         ------------------- 
  
         Mass-Velocity term:      -4.547113948
         ------------------  
  
         Mass-Velocity + 1-elec. Darwin terms:      -1.074880582
         ------------------------------------ 

 Number of two-electron spin-orbit integrals written:     11308 (24.9%)

 Number of two-electron spin-orbit integrals written:     23223 (22.7%)

 Number of two-electron spin-orbit integrals written:     12365 (21.8%)

 Number of two-electron spin-orbit integrals written:     12668 (27.9%)

 Number of two-electron spin-orbit integrals written:     17420 (25.5%)
  
         2-elec. Darwin term:      -0.034091956
         ------------------- 
  
         Total relativistic correction:      -1.108972538
         ----------------------------- 
  

 *******************************************************************************
 *******************************************************************************
 *                                                                             *
 *                                                                             *
 *                   SUMMARY OF COUPLED CLUSTER CALCULATION                    *
 *                                                                             *
 *                                                                             *
 *******************************************************************************
 *******************************************************************************

                                                                                
            Total SCF   energy:                  -578.4738397618                
                                                                                
                                                                                
            Total SCF   energy:                  -578.4738397618                
            Total MP2   energy:                  -578.6247428975                
            Total CCSD  energy:                  -578.6438367476                
                                                                                
                                                                                
            Total SCF   energy:                  -578.4738397618                
            Total RSTAR energy:                  -578.6438367476                
            Total CCSD  energy:                  -578.6438367477                
                                                                                
                                                                                
                     Perturbative triples corrections                           
                     --------------------------------                           
                                                                                
            The E4 doubles and triples:            -0.0032756364                
            The E5 singles and triples:             0.0000412625                
                                                                                
            Total energy CCSD(T):                -578.6470711216                
  

 *******************************************************************************
 *******************************************************************************
 *                                                                             *
 *                                                                             *
 *                      END OF COUPLED CLUSTER CALCULATION                     *
 *                                                                             *
 *                                                                             *
 *******************************************************************************
 *******************************************************************************


 >>>> CPU and wall time for CC :       4.018       4.290

 
     Date and time (Linux)  : Sun Sep  8 21:16:26 2013
     Host name              : lpqlx131.ups-tlse.fr                    


                      .-------------------------------------.
                      | End of Coupled Cluster Section (CC) |
                      `-------------------------------------'


 Center of mass dipole origin  :    0.000000    0.000000    0.103832

 Center of mass gauge origin   :    0.000000    0.000000    0.103832


                 .------------------------------------------------.
                 | Starting in Static Property Section (ABACUS) - |
                 `------------------------------------------------'


 
     Date and time (Linux)  : Sun Sep  8 21:16:26 2013
     Host name              : lpqlx131.ups-tlse.fr                    


   ***************************************************************************
   ************************ FINAL RESULTS from ABACUS ************************
   ***************************************************************************


 
     Date and time (Linux)  : Sun Sep  8 21:16:26 2013
     Host name              : lpqlx131.ups-tlse.fr                    


                             Molecular geometry (au)
                             -----------------------

 S          0.0000000000            0.0000000000            0.0000000000
 H   _1     1.8223788375            0.0000000000            1.7508067463
 H   _2    -1.8223788375            0.0000000000            1.7508067463





                        Molecular wave function and energy
                        ----------------------------------

     Spin multiplicity  1     State number       1     Total charge       0

     Total energy       -578.4738397618 au (Hartrees)
                        -15741.07390917 eV
                          -1518782.8321 kJ/mol


                             Relativistic corrections
                             ------------------------

     Darwin correction:                          3.4721526587 au
     Mass-velocity correction:                  -4.5470628707 au

     Total relativistic correction:             -1.0749102120 au (0.1858%)
     Non-relativistic + relativistic energy:  -579.5487499738 au




                                  Dipole moment
                                  -------------

                 au               Debye          C m (/(10**-30)
              2.045642           5.199502          17.343672


                             Dipole moment components
                             ------------------------

                 au               Debye          C m (/(10**-30)

      z      2.04564167         5.19950216        17.34367232


   Units:   1 a.u. =   2.54175 Debye 
            1 a.u. =   8.47835 (10**-30) C m (SI)




   Interatomic separations (in Angstrom):
   --------------------------------------

            S           H   _1      H   _2
            ------      ------      ------
 S     :    0.000000
 H   _1:    1.337300    0.000000
 H   _2:    1.337300    1.928723    0.000000


  Max    interatomic separation is    1.9287 Angstrom (    3.6448 Bohr)
  between atoms    3 and    2, "H   _2" and "H   _1".

  Min HX interatomic separation is    1.3373 Angstrom (    2.5271 Bohr)


  Bond distances (Angstrom):
  --------------------------

                  atom 1     atom 2       distance
                  ------     ------       --------
  bond distance:  H   _1     S            1.337300
  bond distance:  H   _2     S            1.337300


  Bond angles (degrees):
  ----------------------

                  atom 1     atom 2     atom 3         angle
                  ------     ------     ------         -----
  bond angle:     H   _1     S          H   _2        92.295




 CPU time statistics for ABACUS
 ------------------------------




 >>>> Total CPU  time used in ABACUS:   0.01 seconds
 >>>> Total wall time used in ABACUS:   0.02 seconds


                   .-------------------------------------------.
                   | End of Static Property Section (ABACUS) - |
                   `-------------------------------------------'

 >>>> Total CPU  time used in DALTON:   4.17 seconds
 >>>> Total wall time used in DALTON:   4.44 seconds

 
     Date and time (Linux)  : Sun Sep  8 21:16:26 2013
     Host name              : lpqlx131.ups-tlse.fr                    
