

     ************************************************************************
     *************** Dalton - An Electronic Structure Program ***************
     ************************************************************************

    This is output from DALTON 2014.0
   ----------------------------------------------------------------------------
    NOTE:
     
    Dalton is an experimental code for the evaluation of molecular
    properties using (MC)SCF, DFT, CI, and CC wave functions.
    The authors accept no responsibility for the performance of
    the code or for the correctness of the results.
     
    The code (in whole or part) is provided under a licence and
    is not to be reproduced for further distribution without
    the written permission of the authors or their representatives.
     
    See the home page "http://daltonprogram.org" for further information.
     
    If results obtained with this code are published,
    the appropriate citations would be both of:
     
       K. Aidas, C. Angeli, K. L. Bak, V. Bakken, R. Bast,
       L. Boman, O. Christiansen, R. Cimiraglia, S. Coriani,
       J. Cukras, P. Dahle, E. K. Dalskov, U. Ekstroem,
       T. Enevoldsen, J. J. Eriksen, P. Ettenhuber, B. Fernandez,
       L. Ferrighi, H. Fliegl, L. Frediani, K. Hald, A. Halkier,
       C. Haettig, H. Heiberg, T. Helgaker, A. C. Hennum,
       H. Hettema, E. Hjertenaes, S. Hoest, I.-M. Hoeyvik,
       M. F. Iozzi, B. Jansik, H. J. Aa. Jensen, D. Jonsson,
       P. Joergensen, M. Kaminski, J. Kauczor, S. Kirpekar,
       T. Kjaergaard, W. Klopper, S. Knecht, R. Kobayashi, H. Koch,
       J. Kongsted, A. Krapp, K. Kristensen, A. Ligabue,
       O. B. Lutnaes, J. I. Melo, K. V. Mikkelsen, R. H. Myhre,
       C. Neiss, C. B. Nielsen, P. Norman, J. Olsen,
       J. M. H. Olsen, A. Osted, M. J. Packer, F. Pawlowski,
       T. B. Pedersen, P. F. Provasi, S. Reine, Z. Rinkevicius,
       T. A. Ruden, K. Ruud, V. Rybkin, P. Salek, C. C. M. Samson,
       A. Sanchez de Meras, T. Saue, S. P. A. Sauer,
       B. Schimmelpfennig, K. Sneskov, A. H. Steindal,
       K. O. Sylvester-Hvid, P. R. Taylor, A. M. Teale,
       E. I. Tellgren, D. P. Tew, A. J. Thorvaldsen, L. Thoegersen,
       O. Vahtras, M. A. Watson, D. J. D. Wilson, M. Ziolkowski
       and H. Agren,
       "The Dalton quantum chemistry program system",
       WIREs Comput. Mol. Sci. 2013. (doi: 10.1002/wcms.1172)
    
    and
    
       Dalton, a Molecular Electronic Structure Program,
       Release DALTON2014.0 (2014), see http://daltonprogram.org
   ----------------------------------------------------------------------------

    Authors in alphabetical order (major contribution(s) in parenthesis):

  Kestutis Aidas,           Vilnius University,           Lithuania   (QM/MM)
  Celestino Angeli,         University of Ferrara,        Italy       (NEVPT2)
  Keld L. Bak,              UNI-C,                        Denmark     (AOSOPPA, non-adiabatic coupling, magnetic properties)
  Vebjoern Bakken,          University of Oslo,           Norway      (DALTON; geometry optimizer, symmetry detection)
  Radovan Bast,             KTH Stockholm,                Sweden      (DALTON installation and execution frameworks)
  Pablo Baudin,             University of Valencia,       Spain       (Cholesky excitation energies)
  Linus Boman,              NTNU,                         Norway      (Cholesky decomposition and subsystems)
  Ove Christiansen,         Aarhus University,            Denmark     (CC module)
  Renzo Cimiraglia,         University of Ferrara,        Italy       (NEVPT2)
  Sonia Coriani,            University of Trieste,        Italy       (CC module, MCD in RESPONS)
  Janusz Cukras,            University of Trieste,        Italy       (MChD in RESPONS)
  Paal Dahle,               University of Oslo,           Norway      (Parallelization)
  Erik K. Dalskov,          UNI-C,                        Denmark     (SOPPA)
  Thomas Enevoldsen,        Univ. of Southern Denmark,    Denmark     (SOPPA)
  Janus J. Eriksen,         Aarhus University,            Denmark     (Polarizable embedding model, TDA)
  Berta Fernandez,          U. of Santiago de Compostela, Spain       (doublet spin, ESR in RESPONS)
  Lara Ferrighi,            Aarhus University,            Denmark     (PCM Cubic response)
  Heike Fliegl,             University of Oslo,           Norway      (CCSD(R12))
  Luca Frediani,            UiT The Arctic U. of Norway,  Norway      (PCM)
  Bin Gao,                  UiT The Arctic U. of Norway,  Norway      (Gen1Int library)
  Christof Haettig,         Ruhr-University Bochum,       Germany     (CC module)
  Kasper Hald,              Aarhus University,            Denmark     (CC module)
  Asger Halkier,            Aarhus University,            Denmark     (CC module)
  Erik D. Hedegaard,        Univ. of Southern Denmark,    Denmark     (Polarizable embedding model, QM/MM)
  Hanne Heiberg,            University of Oslo,           Norway      (geometry analysis, selected one-electron integrals)
  Trygve Helgaker,          University of Oslo,           Norway      (DALTON; ABACUS, ERI, DFT modules, London, and much more)
  Alf Christian Hennum,     University of Oslo,           Norway      (Parity violation)
  Hinne Hettema,            University of Auckland,       New Zealand (quadratic response in RESPONS; SIRIUS supersymmetry)
  Eirik Hjertenaes,         NTNU,                         Norway      (Cholesky decomposition)
  Maria Francesca Iozzi,    University of Oslo,           Norway      (RPA)
  Brano Jansik              Technical Univ. of Ostrava    Czech Rep.  (DFT cubic response)
  Hans Joergen Aa. Jensen,  Univ. of Southern Denmark,    Denmark     (DALTON; SIRIUS, RESPONS, ABACUS modules, London, and much more)
  Dan Jonsson,              UiT The Arctic U. of Norway,  Norway      (cubic response in RESPONS module)
  Poul Joergensen,          Aarhus University,            Denmark     (RESPONS, ABACUS, and CC modules)
  Maciej Kaminski,          University of Warsaw,         Poland      (CPPh in RESPONS)
  Joanna Kauczor,           Linkoeping University,        Sweden      (Complex polarization propagator (CPP) module)
  Sheela Kirpekar,          Univ. of Southern Denmark,    Denmark     (Mass-velocity & Darwin integrals)
  Wim Klopper,              KIT Karlsruhe,                Germany     (R12 code in CC, SIRIUS, and ABACUS modules)
  Stefan Knecht,            ETH Zurich,                   Switzerland (Parallel CI and MCSCF)
  Rika Kobayashi,           Australian National Univ.,    Australia   (DIIS in CC, London in MCSCF)
  Henrik Koch,              NTNU,                         Norway      (CC module, Cholesky decomposition)
  Jacob Kongsted,           Univ. of Southern Denmark,    Denmark     (Polarizable embedding model, QM/MM)
  Andrea Ligabue,           University of Modena,         Italy       (CTOCD, AOSOPPA)
  Nanna H. List             Univ. of Southern Denmark,    Denmark     (Polarizable embedding model)
  Ola B. Lutnaes,           University of Oslo,           Norway      (DFT Hessian)
  Juan I. Melo,             University of Buenos Aires,   Argentina   (LRESC, Relativistic Effects on NMR Shieldings)
  Kurt V. Mikkelsen,        University of Copenhagen,     Denmark     (MC-SCRF and QM/MM)
  Rolf H. Myhre,            NTNU,                         Norway      (Cholesky, subsystems and ECC2)
  Christian Neiss,          Univ. Erlangen-Nuernberg,     Germany     (CCSD(R12))
  Christian B. Nielsen,     University of Copenhagen,     Denmark     (QM/MM)
  Patrick Norman,           Linkoeping University,        Sweden      (Cubic response and complex response in RESPONS)
  Jeppe Olsen,              Aarhus University,            Denmark     (SIRIUS CI/density modules)
  Jogvan Magnus H. Olsen,   Univ. of Southern Denmark,    Denmark     (Polarizable embedding model, QM/MM)
  Anders Osted,             Copenhagen University,        Denmark     (QM/MM)
  Martin J. Packer,         University of Sheffield,      UK          (SOPPA)
  Filip Pawlowski,          Kazimierz Wielki University,  Poland      (CC3)
  Morten N. Pedersen,       Univ. of Southern Denmark,    Denmark     (Polarizable embedding model)
  Thomas B. Pedersen,       University of Oslo,           Norway      (Cholesky decomposition)
  Patricio F. Provasi,      University of Northeastern,   Argentina   (Analysis of coupling constants in localized orbitals)
  Zilvinas Rinkevicius,     KTH Stockholm,                Sweden      (open-shell DFT, ESR)
  Elias Rudberg,            KTH Stockholm,                Sweden      (DFT grid and basis info)
  Torgeir A. Ruden,         University of Oslo,           Norway      (Numerical derivatives in ABACUS)
  Kenneth Ruud,             UiT The Arctic U. of Norway,  Norway      (DALTON; ABACUS magnetic properties and much more)
  Pawel Salek,              KTH Stockholm,                Sweden      (DALTON; DFT code)
  Claire C. M. Samson       University of Karlsruhe       Germany     (Boys localization, r12 integrals in ERI)
  Alfredo Sanchez de Meras, University of Valencia,       Spain       (CC module, Cholesky decomposition)
  Trond Saue,               Paul Sabatier University,     France      (direct Fock matrix construction)
  Stephan P. A. Sauer,      University of Copenhagen,     Denmark     (SOPPA(CCSD), SOPPA prop., AOSOPPA, vibrational g-factors)
  Bernd Schimmelpfennig,    Forschungszentrum Karlsruhe,  Germany     (AMFI module)
  Kristian Sneskov,         Aarhus University,            Denmark     (Polarizable embedding model, QM/MM)
  Arnfinn H. Steindal,      UiT The Arctic U. of Norway,  Norway      (parallel QM/MM, Polarizable embedding model)
  Casper Steinmann,         Univ. of Southern Denmark,    Denmark     (QFIT, Polarizable embedding model)
  K. O. Sylvester-Hvid,     University of Copenhagen,     Denmark     (MC-SCRF)
  Peter R. Taylor,          VLSCI/Univ. of Melbourne,     Australia   (Symmetry handling ABACUS, integral transformation)
  Andrew M. Teale,          University of Nottingham,     England     (DFT-AC, DFT-D)
  David P. Tew,             University of Bristol,        England     (CCSD(R12))
  Olav Vahtras,             KTH Stockholm,                Sweden      (triplet response, spin-orbit, ESR, TDDFT, open-shell DFT)
  David J. Wilson,          La Trobe University,          Australia   (DFT Hessian and DFT magnetizabilities)
  Hans Agren,               KTH Stockholm,                Sweden      (SIRIUS module, RESPONS, MC-SCRF solvation model)
 --------------------------------------------------------------------------------

     Date and time (Linux)  : Fri Jan 16 10:34:00 2015
     Host name              : adm-106152.local                        

 * Work memory size             :    64000000 =  488.28 megabytes.

 * Directories for basis set searches:
   1) /Users/hjj/progs/gitDalton/build_dal14_ompi49_openblas/test_energy_localize_selected_failed_2015-01-16T08_36-24996
   2) /Users/hjj/progs/gitDalton/build_dal14_ompi49_openblas/basis


Compilation information
-----------------------

 Who compiled             | hjj
 Host                     | adm-106152.local
 System                   | Darwin-14.0.0
 CMake generator          | Unix Makefiles
 Processor                | x86_64
 64-bit integers          | OFF
 MPI                      | ON
 Fortran compiler         | /opt/local/bin/mpif90
 Fortran compiler version | GNU Fortran (MacPorts gcc49 4.9.2_1) 4.9.2
 C compiler               | /opt/local/bin/mpicc
 C compiler version       | gcc-mp-4.9 (MacPorts gcc49 4.9.2_1) 4.9.2
 C++ compiler             | /opt/local/bin/mpicxx
 C++ compiler version     | unknown
 BLAS                     | /opt/local/lib/libopenblas.dylib
 LAPACK                   | /usr/lib/liblapack.dylib
 Static linking           | OFF
 Last Git revision        | a396abc43ca0cd5e9cb1a6c5526e29bdf0126872
 Configuration time       | 2015-01-16 00:07:47.821477

 * MPI run using 4 processes.


   Content of the .dal input file
 ----------------------------------

**DALTON                                          
.RUN WAVE                                         
**INTEGRALS                                       
.NOSUP                                            
.DIPLEN                                           
**WAVE FUNCTION                                   
.HF                                               
*ORBITAL                                          
.LOCALIZE                                         
SELECT                                            
 6                                                
 1 2 3 4 5 6                                      
.NOSUPSYM                                         
**END OF INPUT                                    


   Content of the .mol file
 ----------------------------

BASIS                                                                          
STO-3G                                                                         
Test1 i test-suite: Geometrioptimering med symmetri, med beregning av          
egenskaper i foerste og siste punkt. Generelt kontraherte basissett            
    2    0                                                                     
        6.    6                                                                
C1     2.62337000000000    -0.00000000000000     0.00000000000000              
C2     1.31168500000000     2.27190506352598     0.00000000000000              
C3    -1.31168500000000     2.27190506352598     0.00000000000000              
C4    -2.62337000000000     0.00000000000000     0.00000000000000              
C5    -1.31168500000000    -2.27190506352598     0.00000000000000              
C6     1.31168500000000    -2.27190506352598     0.00000000000000              
        1.    6                                                                
H1     4.65135000000000    -0.00000000000000     0.00000000000000              
H2     2.32567500000000     4.02818726189275     0.00000000000000              
H3    -2.32567500000000     4.02818726189275     0.00000000000000              
H4    -4.65135000000000     0.00000000000000     0.00000000000000              
H5    -2.32567500000000    -4.02818726189275     0.00000000000000              
H6     2.32567500000000    -4.02818726189275     0.00000000000000              


       *******************************************************************
       *********** Output from DALTON general input processing ***********
       *******************************************************************

 --------------------------------------------------------------------------------
   Overall default print level:    0
   Print level for DALTON.STAT:    1

    Parallel calculation using MPI
    AO-direct calculation (in sections where implemented)
    HERMIT 1- and 2-electron integral sections will be executed
    "Old" integral transformation used (limited to max 255 basis functions)
    Wave function sections will be executed (SIRIUS module)
 --------------------------------------------------------------------------------


   ****************************************************************************
   *************** Output of molecule and basis set information ***************
   ****************************************************************************


    The two title cards from your ".mol" input:
    ------------------------------------------------------------------------
 1: Test1 i test-suite: Geometrioptimering med symmetri, med beregning av   
 2: egenskaper i foerste og siste punkt. Generelt kontraherte basissett     
    ------------------------------------------------------------------------



@ WARNING - deprecated old .mol fixed format input has been detected:
    2    0                                                                      
@ WARNING - this input format may not be supported in future releases.




  Atomic type no.    1
  --------------------
  Nuclear charge:   6.00000
  Number of symmetry independent centers:    6
  Number of basis sets to read;    2
  Basis set file used for this atomic type with Z =   6 :
     "/Users/hjj/progs/gitDalton/build_dal14_ompi49_openblas/basis/STO-3G"

  Atomic type no.    2
  --------------------
  Nuclear charge:   1.00000
  Number of symmetry independent centers:    6
  Number of basis sets to read;    2
  Basis set file used for this atomic type with Z =   1 :
     "/Users/hjj/progs/gitDalton/build_dal14_ompi49_openblas/basis/STO-3G"


                         SYMGRP: Point group information
                         -------------------------------

@    Point group: C1 


                                 Isotopic Masses
                                 ---------------

                           C1         12.000000
                           C2         12.000000
                           C3         12.000000
                           C4         12.000000
                           C5         12.000000
                           C6         12.000000
                           H1          1.007825
                           H2          1.007825
                           H3          1.007825
                           H4          1.007825
                           H5          1.007825
                           H6          1.007825

                       Total mass:    78.046950 amu
                       Natural abundance:  93.495 %

 Center-of-mass coordinates (a.u.):    0.000000    0.000000    0.000000


  Atoms and basis sets
  --------------------

  Number of atom types :    2
  Total number of atoms:   12

  Basis set used is "STO-3G" from the basis set library.

  label    atoms   charge   prim   cont     basis
  ----------------------------------------------------------------------
  C6          6    6.0000    15     5      [6s3p|2s1p]                                        
  H6          6    1.0000     3     1      [3s|1s]                                            
  ----------------------------------------------------------------------
  total:     12   42.0000   108    36
  ----------------------------------------------------------------------

  Threshold for neglecting AO integrals:  1.00D-12


  Cartesian Coordinates (a.u.)
  ----------------------------

  Total number of coordinates:   36
  C1      :     1  x   2.6233700000    2  y  -0.0000000000    3  z   0.0000000000
  C2      :     4  x   1.3116850000    5  y   2.2719050635    6  z   0.0000000000
  C3      :     7  x  -1.3116850000    8  y   2.2719050635    9  z   0.0000000000
  C4      :    10  x  -2.6233700000   11  y   0.0000000000   12  z   0.0000000000
  C5      :    13  x  -1.3116850000   14  y  -2.2719050635   15  z   0.0000000000
  C6      :    16  x   1.3116850000   17  y  -2.2719050635   18  z   0.0000000000
  H1      :    19  x   4.6513500000   20  y  -0.0000000000   21  z   0.0000000000
  H2      :    22  x   2.3256750000   23  y   4.0281872619   24  z   0.0000000000
  H3      :    25  x  -2.3256750000   26  y   4.0281872619   27  z   0.0000000000
  H4      :    28  x  -4.6513500000   29  y   0.0000000000   30  z   0.0000000000
  H5      :    31  x  -2.3256750000   32  y  -4.0281872619   33  z   0.0000000000
  H6      :    34  x   2.3256750000   35  y  -4.0281872619   36  z   0.0000000000


   Interatomic separations (in Angstrom):
   --------------------------------------

            C1          C2          C3          C4          C5          C6    
            ------      ------      ------      ------      ------      ------
 C1    :    0.000000
 C2    :    1.388228    0.000000
 C3    :    2.404481    1.388228    0.000000
 C4    :    2.776455    2.404481    1.388228    0.000000
 C5    :    2.404481    2.776455    2.404481    1.388228    0.000000
 C6    :    1.388228    2.404481    2.776455    2.404481    1.388228    0.000000
 H1    :    1.073161    2.137438    3.376770    3.849616    3.376770    2.137438
 H2    :    2.137438    1.073161    2.137438    3.376770    3.849616    3.376770
 H3    :    3.376770    2.137438    1.073161    2.137438    3.376770    3.849616
 H4    :    3.849616    3.376770    2.137438    1.073161    2.137438    3.376770
 H5    :    3.376770    3.849616    3.376770    2.137438    1.073161    2.137438
 H6    :    2.137438    3.376770    3.849616    3.376770    2.137438    1.073161

            H1          H2          H3          H4          H5          H6    
            ------      ------      ------      ------      ------      ------
 H1    :    0.000000
 H2    :    2.461388    0.000000
 H3    :    4.263250    2.461388    0.000000
 H4    :    4.922777    4.263250    2.461388    0.000000
 H5    :    4.263250    4.922777    4.263250    2.461388    0.000000
 H6    :    2.461388    4.263250    4.922777    4.263250    2.461388    0.000000


  Max    interatomic separation is    4.9228 Angstrom (    9.3027 Bohr)
  between atoms   11 and    8, "H5    " and "H2    ".

  Min HX interatomic separation is    1.0732 Angstrom (    2.0280 Bohr)

  Min YX interatomic separation is    1.3882 Angstrom (    2.6234 Bohr)


  Bond distances (Angstrom):
  --------------------------

                  atom 1     atom 2       distance
                  ------     ------       --------
  bond distance:  C2         C1           1.388228
  bond distance:  C3         C2           1.388228
  bond distance:  C4         C3           1.388228
  bond distance:  C5         C4           1.388228
  bond distance:  C6         C1           1.388228
  bond distance:  C6         C5           1.388228
  bond distance:  H1         C1           1.073161
  bond distance:  H2         C2           1.073161
  bond distance:  H3         C3           1.073161
  bond distance:  H4         C4           1.073161
  bond distance:  H5         C5           1.073161
  bond distance:  H6         C6           1.073161


  Bond angles (degrees):
  ----------------------

                  atom 1     atom 2     atom 3         angle
                  ------     ------     ------         -----
  bond angle:     C2         C1         C6           120.000
  bond angle:     C2         C1         H1           120.000
  bond angle:     C6         C1         H1           120.000
  bond angle:     C1         C2         C3           120.000
  bond angle:     C1         C2         H2           120.000
  bond angle:     C3         C2         H2           120.000
  bond angle:     C2         C3         C4           120.000
  bond angle:     C2         C3         H3           120.000
  bond angle:     C4         C3         H3           120.000
  bond angle:     C3         C4         C5           120.000
  bond angle:     C3         C4         H4           120.000
  bond angle:     C5         C4         H4           120.000
  bond angle:     C4         C5         C6           120.000
  bond angle:     C4         C5         H5           120.000
  bond angle:     C6         C5         H5           120.000
  bond angle:     C1         C6         C5           120.000
  bond angle:     C1         C6         H6           120.000
  bond angle:     C5         C6         H6           120.000




 Principal moments of inertia (u*A**2) and principal axes
 --------------------------------------------------------

   IA      87.695854          1.000000    0.000000    0.000000
   IB      87.695854          0.000000    1.000000    0.000000
   IC     175.391708          0.000000    0.000000    1.000000


 Rotational constants
 --------------------

@    The molecule is planar.

               A                   B                   C

           5762.8609           5762.8609           2881.4304 MHz
            0.192228            0.192228            0.096114 cm-1


@  Nuclear repulsion energy :  204.624364126512 Hartree


                     .---------------------------------------.
                     | Starting in Integral Section (HERMIT) |
                     `---------------------------------------'



 ***************************************************************************************
 ****************** Output from **INTEGRALS input processing (HERMIT) ******************
 ***************************************************************************************



    *************************************************************************
    ****************** Output from HERMIT input processing ******************
    *************************************************************************


 Default print level:        1

 * Nuclear model: Point charge

 Calculation of one-electron Hamiltonian integrals.

 The following one-electron property integrals are calculated as requested:
          - overlap integrals
          - dipole length integrals

 Center of mass  (bohr):      0.000000000000      0.000000000000      0.000000000000
 Operator center (bohr):      0.000000000000      0.000000000000      0.000000000000
 Gauge origin    (bohr):      0.000000000000      0.000000000000      0.000000000000
 Dipole origin   (bohr):      0.000000000000      0.000000000000      0.000000000000


     ************************************************************************
     ************************** Output from HERINT **************************
     ************************************************************************

 >>>> Total CPU  time used in HERMIT:   0.05 seconds
 >>>> Total wall time used in HERMIT:   0.06 seconds


                        .----------------------------------.
                        | End of Integral Section (HERMIT) |
                        `----------------------------------'



                   .--------------------------------------------.
                   | Starting in Wave Function Section (SIRIUS) |
                   `--------------------------------------------'


 *** Output from Huckel module :

     Using EWMO model:          T
     Using EHT  model:          F
     Number of Huckel orbitals each symmetry:   36

 EWMO - Energy Weighted Maximum Overlap - is a Huckel type method,
        which normally is better than Extended Huckel Theory.
 Reference: Linderberg and Ohrn, Propagators in Quantum Chemistry (Wiley, 1973)

 Huckel EWMO eigenvalues for symmetry :  1
          -11.365606     -11.354823     -11.354823     -11.347865     -11.347865
          -11.344151      -1.929902      -1.445875      -1.445875      -0.995841
           -0.995841      -0.907530      -0.808879      -0.655840      -0.549627
           -0.549627      -0.519364      -0.477113      -0.477113      -0.403009
           -0.403009      -0.248603      -0.248603      -0.181089      -0.135907
           -0.118691      -0.118691      -0.118618      -0.118618      -0.118409
           -0.099444      -0.099444      -0.093259      -0.093259      -0.082396
           -0.072592

 **********************************************************************
 *SIRIUS* a direct, restricted step, second order MCSCF program       *
 **********************************************************************

 
     Date and time (Linux)  : Fri Jan 16 10:34:00 2015
     Host name              : adm-106152.local                        

 Title lines from ".mol" input file:
     Test1 i test-suite: Geometrioptimering med symmetri, med beregning av   
     egenskaper i foerste og siste punkt. Generelt kontraherte basissett     

 Print level on unit LUPRI =   2 is   0
 Print level on unit LUW4  =   2 is   5

@    Restricted, closed shell Hartree-Fock calculation.
 Fock matrices are calculated directly and in parallel without use of integrals on disk.

 Initial molecular orbitals are obtained according to
 ".MOSTART EWMO  " input option

     Wave function specification
     ============================
@    Wave function type        >>> HF <<<
@    Number of closed shell electrons          42
@    Number of electrons in active shells       0
@    Total charge of the molecule               0

@    Spin multiplicity and 2 M_S                1         0
@    Total number of symmetries                 1 (point group: C1 )
@    Reference state symmetry                   1 (irrep name : A  )

     Orbital specifications
     ======================
     Abelian symmetry species          All |    1
                                           |  A  
                                       --- |  ---
@    Occupied SCF orbitals              21 |   21
     Secondary orbitals                 15 |   15
     Total number of orbitals           36 |   36
     Number of basis functions          36 |   36

     Optimization information
     ========================
@    Number of configurations                 1
@    Number of orbital rotations            315
     ------------------------------------------
@    Total number of variables              316

     Maximum number of Fock   iterations      0
     Maximum number of DIIS   iterations     60
     Maximum number of QC-SCF iterations     60
     Threshold for SCF convergence     1.00D-05


 ***********************************************
 ***** DIIS acceleration of SCF iterations *****
 ***********************************************

 C1-DIIS algorithm; max error vectors =    8

 Iter      Total energy        Error norm    Delta(E)  DIIS dim.
 -----------------------------------------------------------------------------
   1  Screening settings (-IFTHRS, JTDIIS, DIFDEN, times)   -7    1    T  1.23D-01  1.24D-01
@  1    -227.750617213        1.35714D+00   -2.28D+02    1
      Virial theorem: -V/T =      2.009076
@      MULPOP C1      0.15; C2      0.15; C3      0.15; C4      0.15; C5      0.15; C6      0.15; H1     -0.15; H2     -0.15; H3     -0.15; H4     -0.15; 
@             H5     -0.15; H6     -0.15; 
 -----------------------------------------------------------------------------
   2  Screening settings (-IFTHRS, JTDIIS, DIFDEN, times)   -7    2    T  1.25D-01  1.26D-01
@  2    -227.889618018        1.24559D-01   -1.39D-01    2
      Virial theorem: -V/T =      2.007597
@      MULPOP C1     -0.07; C2     -0.07; C3     -0.07; C4     -0.07; C5     -0.07; C6     -0.07; H1      0.07; H2      0.07; H3      0.07; H4      0.07; 
@             H5      0.07; H6      0.07; 
 -----------------------------------------------------------------------------
   3  Screening settings (-IFTHRS, JTDIIS, DIFDEN, times)  -11    3    F  1.24D-01  1.26D-01
@  3    -227.890840996        1.63468D-02   -1.22D-03    3
      Virial theorem: -V/T =      2.007979
@      MULPOP C1     -0.06; C2     -0.06; C3     -0.06; C4     -0.06; C5     -0.06; C6     -0.06; H1      0.06; H2      0.06; H3      0.06; H4      0.06; 
@             H5      0.06; H6      0.06; 
 -----------------------------------------------------------------------------
   4  Screening settings (-IFTHRS, JTDIIS, DIFDEN, times)  -11    4    T  1.26D-01  1.27D-01
@  4    -227.890868244        1.87044D-03   -2.72D-05    4
      Virial theorem: -V/T =      2.007964
@      MULPOP C1     -0.06; C2     -0.06; C3     -0.06; C4     -0.06; C5     -0.06; C6     -0.06; H1      0.06; H2      0.06; H3      0.06; H4      0.06; 
@             H5      0.06; H6      0.06; 
 -----------------------------------------------------------------------------
   5  Screening settings (-IFTHRS, JTDIIS, DIFDEN, times)  -11    5    T  1.23D-01  1.23D-01
@  5    -227.890868637        1.86356D-04   -3.93D-07    5
      Virial theorem: -V/T =      2.007964
@      MULPOP C1     -0.06; C2     -0.06; C3     -0.06; C4     -0.06; C5     -0.06; C6     -0.06; H1      0.06; H2      0.06; H3      0.06; H4      0.06; 
@             H5      0.06; H6      0.06; 
 -----------------------------------------------------------------------------
   6  Screening settings (-IFTHRS, JTDIIS, DIFDEN, times)  -11    6    T  1.18D-01  1.18D-01
@  6    -227.890868641        7.13430D-06   -3.91D-09    6

@ *** DIIS converged in   6 iterations !
@     Converged SCF energy, gradient:   -227.890868640943    7.13D-06
    - total time used in SIRFCK :              0.00 seconds


 *** SCF orbital energy analysis ***

 Number of electrons :   42
 Orbital occupations :   21

 Sym       Hartree-Fock orbital energies

1 A     -11.02915330   -11.02915330   -11.02914222   -11.02875937   -11.02875937
        -11.02859695    -1.09510767    -0.95888753    -0.95888753    -0.77107214
         -0.77107213    -0.66821227    -0.59833166    -0.55705448    -0.53809192
         -0.53809192    -0.46027407    -0.43556581    -0.43556581    -0.28245795
         -0.28245795     0.26993321     0.26993321     0.50756386     0.58876895
          0.65767058     0.65767058     0.73682792     0.74713814     0.74713814
          0.89572795     0.89572795     0.90643638     0.90643638     1.09619766
          1.16538789

    E(LUMO) :     0.26993321 au (symmetry 1)
  - E(HOMO) :    -0.28245795 au (symmetry 1)
  ------------------------------------------
    gap     :     0.55239116 au

 >>> Writing SIRIFC interface file


                         ********************************
                         ***** Orbital localization *****
                         ********************************



   Boys orbital localization
   -------------------------

   Localization of orbitals, symmetry    1

   Input orbitals   1   2   3   4   5   6

               Column   1     Column   2     Column   3     Column   4     Column   5
       1       0.56184162    -0.11257276     0.40539686    -0.49671307     0.28485343
       2       0.01659781    -0.00332560     0.00924585    -0.02184295     0.01252642
       3       0.00053440    -0.00010707     0.00156104     0.00166338    -0.00095391
       4       0.00074414     0.00371394    -0.00000000    -0.00195517    -0.00340934
       6       0.18342994    -0.54285550     0.40539686     0.49504684     0.28773943
       7       0.00541885    -0.01603692     0.00924585     0.02176968     0.01265334
       8      -0.00302044    -0.00130825     0.00078052     0.00088148    -0.00342445
       9       0.00194531     0.00015910     0.00135190    -0.00242319     0.00086447
      11      -0.37841168    -0.43028274     0.40539686     0.00166623    -0.57259285
      12      -0.01117896    -0.01271132     0.00924585     0.00007327    -0.02517976
      13      -0.00228327     0.00237092    -0.00078052    -0.00340083    -0.00096865
      14      -0.00173386     0.00089627     0.00135190    -0.00196991     0.00165488
      16      -0.56184162     0.11257276     0.40539686    -0.49671307     0.28485343
      17      -0.01659781     0.00332560     0.00924585    -0.02184295     0.01252642
      18       0.00053440    -0.00010707    -0.00156104    -0.00166338     0.00095391
      19       0.00074414     0.00371394     0.00000000     0.00195517     0.00340934
      21      -0.18342994     0.54285550     0.40539686     0.49504684     0.28773943
      22      -0.00541885     0.01603692     0.00924585     0.02176968     0.01265334
      23      -0.00302044    -0.00130825    -0.00078052    -0.00088148     0.00342445
      24       0.00194531     0.00015910    -0.00135190     0.00242319    -0.00086447
      26       0.37841168     0.43028274     0.40539686     0.00166623    -0.57259285
      27       0.01117896     0.01271132     0.00924585     0.00007327    -0.02517976
      28      -0.00228327     0.00237092     0.00078052     0.00340083     0.00096865
      29      -0.00173386     0.00089627    -0.00135190     0.00196991    -0.00165488
      31      -0.00378737     0.00075885    -0.00285806     0.00351154    -0.00201379
      32      -0.00123650     0.00365939    -0.00285806    -0.00349976    -0.00203419
      33       0.00255087     0.00290053    -0.00285806    -0.00001178     0.00404798
      34       0.00378737    -0.00075885    -0.00285806     0.00351154    -0.00201379
      35       0.00123650    -0.00365939    -0.00285806    -0.00349976    -0.00203419
      36      -0.00255087    -0.00290053    -0.00285806    -0.00001178     0.00404798

               Column   6
       1      -0.40473209
       2      -0.02116009
       3       0.00244668
       6       0.40473209
       7       0.02116009
       8      -0.00122334
       9      -0.00211889
      11      -0.40473209
      12      -0.02116009
      13      -0.00122334
      14       0.00211889
      16       0.40473209
      17       0.02116009
      18       0.00244668
      21      -0.40473209
      22      -0.02116009
      23      -0.00122334
      24      -0.00211889
      26       0.40473209
      27       0.02116009
      28      -0.00122334
      29       0.00211889
      31       0.00296389
      32      -0.00296389
      33       0.00296389
      34      -0.00296389
      35       0.00296389
      36      -0.00296389
    ==== End of matrix output ====

    Iter:      Boys sum Gradient norm   Hessian sig
       0:    0.00000000    0.00000000    ( 11  4)
       1:    6.88154725    4.86587850    (  9  6)
       2:   13.76292591    6.88134922    (  8  7)
       3:   17.20354365   12.19274701    (  5 10)
       4:   21.45398866   12.15103416    (  4 11)
       5:   25.70443367   12.00194919    (  3 12)
       6:   28.64881633   10.27479759    (  3 12)
       7:   31.96225484   10.82288198    (  2 13)
       8:   34.90663751    8.87127323    (  2 13)
       9:   38.22007602    9.51634944    (  1 14)
      10:   39.06211185    7.78728214    (  1 14)
      11:   39.90414769    5.54230772    (  1 14)
      12:   40.28658859    5.21297077    (  1 14)
      13:   40.66902948    4.86137236    (  1 14)
      14:   40.93068753    3.62549373    (  0 15)
      15:   41.19234558    1.62955777    (  0 15)
      16:   41.21662533    1.28755429    (  0 15)
      17:   41.24090509    0.81248607    (  0 15)
      18:   41.28771481    0.09213487    (  0 15)
      19:   41.28832278    0.00012062    (  0 15)
      20:   41.28832278    0.00000000    (  0 15)

   Output orbitals

               Column   1     Column   2     Column   3     Column   4     Column   5
       1      -0.00002646    -0.99214835     0.00003287     0.00039065    -0.00039065
       2      -0.00025777    -0.03672399    -0.00009957    -0.00724616     0.00724616
       3      -0.00003464     0.00115396     0.00021441     0.00234701    -0.00234701
       4       0.00007121    -0.00000000    -0.00000000     0.00385897     0.00385897
       6      -0.00003287    -0.00039065     0.00002646     0.00002646    -0.99214835
       7       0.00009957     0.00724616     0.00025777     0.00025777    -0.03672399
       8      -0.00010721     0.00216846    -0.00004435     0.00007899     0.00057698
       9      -0.00018568    -0.00396206     0.00006560    -0.00000561     0.00099936
      11      -0.00002646    -0.00002646     0.00039065     0.00003287    -0.00039065
      12      -0.00025777    -0.00025777    -0.00724616    -0.00009957     0.00724616
      13       0.00007899    -0.00004435     0.00216846    -0.00010721     0.00451547
      14       0.00000561    -0.00006560     0.00396206     0.00018568    -0.00010309
      16      -0.00039065    -0.00003287     0.99214835     0.00002646    -0.00002646
      17       0.00724616     0.00009957     0.03672399     0.00025777    -0.00025777
      18       0.00234701     0.00021441     0.00115396    -0.00003464     0.00003464
      19      -0.00385897    -0.00000000    -0.00000000    -0.00007121    -0.00007121
      21      -0.99214835    -0.00002646     0.00039065     0.00039065    -0.00003287
      22      -0.03672399    -0.00025777    -0.00724616    -0.00724616     0.00009957
      23      -0.00057698    -0.00004435     0.00216846    -0.00451547     0.00010721
      24      -0.00099936     0.00006560    -0.00396206    -0.00010309     0.00018568
      26      -0.00039065    -0.00039065     0.00002646     0.99214835    -0.00002646
      27       0.00724616     0.00724616     0.00025777     0.03672399    -0.00025777
      28      -0.00451547     0.00216846    -0.00004435    -0.00057698    -0.00007899
      29       0.00010309     0.00396206    -0.00006560     0.00099936    -0.00000561
      31       0.00009320     0.00694401    -0.00006381     0.00009671    -0.00009671
      32       0.00006381    -0.00009671    -0.00009320    -0.00009320     0.00694401
      33       0.00009320     0.00009320     0.00009671    -0.00006381    -0.00009671
      34      -0.00009671     0.00006381    -0.00694401    -0.00009320     0.00009320
      35       0.00694401     0.00009320     0.00009671     0.00009671     0.00006381
      36      -0.00009671    -0.00009671    -0.00009320    -0.00694401     0.00009320

               Column   6
       1      -0.00002646
       2      -0.00025777
       3      -0.00003464
       4      -0.00007121
       6      -0.00039065
       7       0.00724616
       8      -0.00451547
       9      -0.00010309
      11      -0.99214835
      12      -0.03672399
      13      -0.00057698
      14       0.00099936
      16      -0.00039065
      17       0.00724616
      18       0.00234701
      19       0.00385897
      21      -0.00002646
      22      -0.00025777
      23       0.00007899
      24      -0.00000561
      26      -0.00003287
      27       0.00009957
      28      -0.00010721
      29       0.00018568
      31       0.00009320
      32      -0.00009671
      33       0.00694401
      34      -0.00009671
      35       0.00009320
      36       0.00006381
    ==== End of matrix output ====

 >>>> CPU and wall time for SCF :       0.750       0.759


                       .-----------------------------------.
                       | >>> Final results from SIRIUS <<< |
                       `-----------------------------------'


@    Spin multiplicity:           1
@    Spatial symmetry:            1 ( irrep  A   in C1  )
@    Total charge of molecule:    0

@    Final HF energy:            -227.890868640943                 
@    Nuclear repulsion:           204.624364126512
@    Electronic energy:          -432.515232767455

@    Final gradient norm:           0.000007134295

 
     Date and time (Linux)  : Fri Jan 16 10:34:00 2015
     Host name              : adm-106152.local                        

File label for MO orbitals:  16Jan15   FOCKDIIS

 (Only coefficients >0.0100 are printed.)

 Molecular orbitals for symmetry species 1  (A  )
 ------------------------------------------------

    Orbital         1        2        3        4        5        6        7
   1 C1  :1s    -0.0000  -0.9921   0.0000   0.0004  -0.0004  -0.0000   0.1049
   2 C1  :1s    -0.0003  -0.0367  -0.0001  -0.0072   0.0072  -0.0003  -0.2636
   3 C1  :2px   -0.0000   0.0012   0.0002   0.0023  -0.0023  -0.0000   0.0619
   6 C2  :1s    -0.0000  -0.0004   0.0000   0.0000  -0.9921  -0.0004   0.1049
   7 C2  :1s     0.0001   0.0072   0.0003   0.0003  -0.0367   0.0072  -0.2636
   8 C2  :2px   -0.0001   0.0022  -0.0000   0.0001   0.0006  -0.0045   0.0309
   9 C2  :2py   -0.0002  -0.0040   0.0001  -0.0000   0.0010  -0.0001   0.0536
  11 C3  :1s    -0.0000  -0.0000   0.0004   0.0000  -0.0004  -0.9921   0.1049
  12 C3  :1s    -0.0003  -0.0003  -0.0072  -0.0001   0.0072  -0.0367  -0.2636
  13 C3  :2px    0.0001  -0.0000   0.0022  -0.0001   0.0045  -0.0006  -0.0309
  14 C3  :2py    0.0000  -0.0001   0.0040   0.0002  -0.0001   0.0010   0.0536
  16 C4  :1s    -0.0004  -0.0000   0.9921   0.0000  -0.0000  -0.0004   0.1049
  17 C4  :1s     0.0072   0.0001   0.0367   0.0003  -0.0003   0.0072  -0.2636
  18 C4  :2px    0.0023   0.0002   0.0012  -0.0000   0.0000   0.0023  -0.0619
  21 C5  :1s    -0.9921  -0.0000   0.0004   0.0004  -0.0000  -0.0000   0.1049
  22 C5  :1s    -0.0367  -0.0003  -0.0072  -0.0072   0.0001  -0.0003  -0.2636
  23 C5  :2px   -0.0006  -0.0000   0.0022  -0.0045   0.0001   0.0001  -0.0309
  24 C5  :2py   -0.0010   0.0001  -0.0040  -0.0001   0.0002  -0.0000  -0.0536
  26 C6  :1s    -0.0004  -0.0004   0.0000   0.9921  -0.0000  -0.0000   0.1049
  27 C6  :1s     0.0072   0.0072   0.0003   0.0367  -0.0003   0.0001  -0.2636
  28 C6  :2px   -0.0045   0.0022  -0.0000  -0.0006  -0.0001  -0.0001   0.0309
  29 C6  :2py    0.0001   0.0040  -0.0001   0.0010  -0.0000   0.0002  -0.0536
  31 H1  :1s     0.0001   0.0069  -0.0001   0.0001  -0.0001   0.0001  -0.0474
  32 H2  :1s     0.0001  -0.0001  -0.0001  -0.0001   0.0069  -0.0001  -0.0474
  33 H3  :1s     0.0001   0.0001   0.0001  -0.0001  -0.0001   0.0069  -0.0474
  34 H4  :1s    -0.0001   0.0001  -0.0069  -0.0001   0.0001  -0.0001  -0.0474
  35 H5  :1s     0.0069   0.0001   0.0001   0.0001   0.0001   0.0001  -0.0474
  36 H6  :1s    -0.0001  -0.0001  -0.0001  -0.0069   0.0001   0.0001  -0.0474

    Orbital         8        9       10       11       12       13       14
   1 C1  :1s     0.1441   0.0276  -0.0689   0.0912  -0.0089   0.0653  -0.0000
   2 C1  :1s    -0.3863  -0.0739   0.2015  -0.2668   0.0362  -0.2178   0.0000
   3 C1  :2px    0.0263   0.0050   0.0515  -0.0682   0.2343  -0.1647  -0.0000
   4 C1  :2py   -0.0246   0.1284   0.1841   0.1391   0.0000  -0.0000  -0.3321
   6 C2  :1s     0.0959  -0.1110  -0.0445  -0.1053  -0.0089  -0.0653   0.0000
   7 C2  :1s    -0.2572   0.2976   0.1303   0.3079   0.0362   0.2178  -0.0000
   8 C2  :2px   -0.0769  -0.0841   0.2007  -0.0385   0.1172   0.0824  -0.2876
   9 C2  :2py    0.0646   0.0252  -0.0774   0.1132   0.2029   0.1427   0.1661
  11 C3  :1s    -0.0482  -0.1386   0.1134   0.0141  -0.0089   0.0653  -0.0000
  12 C3  :1s     0.1292   0.3715  -0.3318  -0.0411   0.0362  -0.2178   0.0000
  13 C3  :2px   -0.1025   0.0498   0.0179   0.2036  -0.1172   0.0824   0.2876
  14 C3  :2py   -0.0693  -0.0004  -0.0877   0.1054   0.2029  -0.1427   0.1661
  16 C4  :1s    -0.1441  -0.0276  -0.0689   0.0912  -0.0089  -0.0653   0.0000
  17 C4  :1s     0.3863   0.0739   0.2015  -0.2668   0.0362   0.2178  -0.0000
  18 C4  :2px    0.0263   0.0050  -0.0515   0.0682  -0.2343  -0.1647  -0.0000
  19 C4  :2py   -0.0246   0.1284  -0.1841  -0.1391  -0.0000   0.0000  -0.3321
  21 C5  :1s    -0.0959   0.1110  -0.0445  -0.1053  -0.0089   0.0653  -0.0000
  22 C5  :1s     0.2572  -0.2976   0.1303   0.3079   0.0362  -0.2178   0.0000
  23 C5  :2px   -0.0769  -0.0841  -0.2007   0.0385  -0.1172   0.0824  -0.2876
  24 C5  :2py    0.0646   0.0252   0.0774  -0.1132  -0.2029   0.1427   0.1661
  26 C6  :1s     0.0482   0.1386   0.1134   0.0141  -0.0089  -0.0653   0.0000
  27 C6  :1s    -0.1292  -0.3715  -0.3318  -0.0411   0.0362   0.2178  -0.0000
  28 C6  :2px   -0.1025   0.0498  -0.0179  -0.2036   0.1172   0.0824   0.2876
  29 C6  :2py   -0.0693  -0.0004   0.0877  -0.1054  -0.2029  -0.1427   0.1661
  31 H1  :1s    -0.1078  -0.0206   0.1078  -0.1428   0.1744  -0.2318   0.0000
  32 H2  :1s    -0.0718   0.0831   0.0697   0.1648   0.1744   0.2318  -0.0000
  33 H3  :1s     0.0360   0.1037  -0.1776  -0.0220   0.1744  -0.2318   0.0000
  34 H4  :1s     0.1078   0.0206   0.1078  -0.1428   0.1744   0.2318  -0.0000
  35 H5  :1s     0.0718  -0.0831   0.0697   0.1648   0.1744  -0.2318   0.0000
  36 H6  :1s    -0.0360  -0.1037  -0.1776  -0.0220   0.1744   0.2318  -0.0000

    Orbital        15       16       17       18       19       20       21
   1 C1  :1s    -0.0195  -0.0190   0.0000   0.0040  -0.0070   0.0000  -0.0000
   2 C1  :1s     0.0617   0.0600  -0.0000  -0.0089   0.0155  -0.0000   0.0000
   3 C1  :2px   -0.2653  -0.2579   0.0000   0.1410  -0.2449   0.0000   0.0000
   4 C1  :2py   -0.0716   0.0736   0.0000  -0.2906  -0.1673   0.0000  -0.0000
   5 C1  :2pz   -0.0000   0.0000   0.3335   0.0000  -0.0000  -0.4156  -0.3311
   6 C2  :1s     0.0067  -0.0264  -0.0000   0.0040   0.0069  -0.0000   0.0000
   7 C2  :1s    -0.0211   0.0834   0.0000  -0.0090  -0.0155   0.0000  -0.0000
   8 C2  :2px    0.1316  -0.1576  -0.0000  -0.1806   0.2678   0.0000  -0.0000
   9 C2  :2py    0.0288  -0.3233   0.0000   0.2677   0.1278  -0.0000   0.0000
  10 C2  :2pz   -0.0000   0.0000   0.3335  -0.0000  -0.0000  -0.4945   0.1944
  11 C3  :1s     0.0262  -0.0074   0.0000  -0.0080   0.0000  -0.0000  -0.0000
  12 C3  :1s    -0.0828   0.0234  -0.0000   0.0179  -0.0000   0.0000  -0.0000
  13 C3  :2px   -0.1538   0.1360  -0.0000   0.1409  -0.2906  -0.0000   0.0000
  14 C3  :2py    0.3223  -0.0379  -0.0000  -0.2449  -0.1674  -0.0000   0.0000
  15 C3  :2pz   -0.0000   0.0000   0.3335  -0.0000  -0.0000  -0.0789   0.5254
  16 C4  :1s     0.0195   0.0190   0.0000   0.0040  -0.0070   0.0000  -0.0000
  17 C4  :1s    -0.0617  -0.0600  -0.0000  -0.0089   0.0155  -0.0000   0.0000
  18 C4  :2px   -0.2653  -0.2579  -0.0000  -0.1410   0.2449   0.0000   0.0000
  19 C4  :2py   -0.0716   0.0736  -0.0000   0.2906   0.1673   0.0000  -0.0000
  20 C4  :2pz   -0.0000   0.0000   0.3335  -0.0000   0.0000   0.4156   0.3311
  21 C5  :1s    -0.0067   0.0264  -0.0000   0.0040   0.0069  -0.0000   0.0000
  22 C5  :1s     0.0211  -0.0834   0.0000  -0.0090  -0.0155   0.0000  -0.0000
  23 C5  :2px    0.1316  -0.1576  -0.0000   0.1806  -0.2678   0.0000   0.0000
  24 C5  :2py    0.0288  -0.3233   0.0000  -0.2677  -0.1278  -0.0000   0.0000
  25 C5  :2pz    0.0000  -0.0000   0.3335   0.0000   0.0000   0.4945  -0.1944
  26 C6  :1s    -0.0262   0.0074  -0.0000  -0.0080   0.0000   0.0000   0.0000
  27 C6  :1s     0.0828  -0.0234   0.0000   0.0179  -0.0000   0.0000  -0.0000
  28 C6  :2px   -0.1538   0.1360   0.0000  -0.1409   0.2906   0.0000  -0.0000
  29 C6  :2py    0.3223  -0.0379   0.0000   0.2449   0.1674  -0.0000  -0.0000
  30 C6  :2pz    0.0000  -0.0000   0.3335  -0.0000  -0.0000   0.0789  -0.5254
  31 H1  :1s    -0.2017  -0.1961   0.0000   0.1481  -0.2573   0.0000  -0.0000
  32 H2  :1s     0.0690  -0.2727   0.0000   0.1488   0.2569  -0.0000   0.0000
  33 H3  :1s     0.2707  -0.0766   0.0000  -0.2969   0.0004  -0.0000  -0.0000
  34 H4  :1s     0.2017   0.1961   0.0000   0.1481  -0.2573   0.0000   0.0000
  35 H5  :1s    -0.0690   0.2727  -0.0000   0.1488   0.2569   0.0000   0.0000
  36 H6  :1s    -0.2707   0.0766  -0.0000  -0.2969   0.0004   0.0000  -0.0000

    Orbital        22       23       24       25       26       27       28
   1 C1  :1s    -0.0000   0.0000   0.0000  -0.0528   0.0016   0.0290  -0.1205
   2 C1  :1s     0.0000  -0.0000  -0.0000   0.3396  -0.0107  -0.1929   0.7645
   3 C1  :2px   -0.0000  -0.0000  -0.0000   0.3178  -0.0310  -0.5572   0.0657
   4 C1  :2py   -0.0000   0.0000   0.0000  -0.0000   0.3353  -0.0187   0.0000
   5 C1  :2pz    0.5259  -0.3979  -0.5240   0.0000  -0.0000   0.0000  -0.0000
   6 C2  :1s     0.0000   0.0000   0.0000  -0.0528  -0.0243   0.0159   0.1205
   7 C2  :1s    -0.0000  -0.0000  -0.0000   0.3396   0.1617  -0.1057  -0.7645
   8 C2  :2px    0.0000  -0.0000  -0.0000   0.1589   0.0743  -0.3962  -0.0328
   9 C2  :2py    0.0000   0.0000   0.0000   0.2753   0.4964  -0.1240  -0.0569
  10 C2  :2pz   -0.6075  -0.2565   0.5240  -0.0000   0.0000  -0.0000   0.0000
  11 C3  :1s    -0.0000   0.0000  -0.0000  -0.0528  -0.0259  -0.0131  -0.1205
  12 C3  :1s     0.0000   0.0000   0.0000   0.3396   0.1724   0.0871   0.7645
  13 C3  :2px    0.0000   0.0000   0.0000  -0.1589  -0.1178  -0.3855  -0.0328
  14 C3  :2py    0.0000  -0.0000  -0.0000   0.2753   0.5071   0.0682   0.0569
  15 C3  :2pz    0.0816   0.6544  -0.5240   0.0000  -0.0000   0.0000   0.0000
  16 C4  :1s    -0.0000  -0.0000  -0.0000  -0.0528  -0.0016  -0.0290   0.1205
  17 C4  :1s     0.0000   0.0000   0.0000   0.3396   0.0107   0.1929  -0.7645
  18 C4  :2px   -0.0000  -0.0000  -0.0000  -0.3178  -0.0310  -0.5572   0.0657
  19 C4  :2py   -0.0000  -0.0000  -0.0000  -0.0000   0.3353  -0.0187  -0.0000
  20 C4  :2pz    0.5259  -0.3979   0.5240  -0.0000   0.0000  -0.0000  -0.0000
  21 C5  :1s     0.0000  -0.0000  -0.0000  -0.0528   0.0243  -0.0159  -0.1205
  22 C5  :1s    -0.0000   0.0000   0.0000   0.3396  -0.1617   0.1057   0.7645
  23 C5  :2px    0.0000  -0.0000  -0.0000  -0.1589   0.0743  -0.3962  -0.0328
  24 C5  :2py   -0.0000  -0.0000  -0.0000  -0.2753   0.4964  -0.1240  -0.0569
  25 C5  :2pz   -0.6075  -0.2565  -0.5240   0.0000  -0.0000   0.0000  -0.0000
  26 C6  :1s     0.0000  -0.0000  -0.0000  -0.0528   0.0259   0.0131   0.1205
  27 C6  :1s    -0.0000   0.0000   0.0000   0.3396  -0.1724  -0.0871  -0.7645
  28 C6  :2px   -0.0000   0.0000   0.0000   0.1589  -0.1178  -0.3855  -0.0328
  29 C6  :2py   -0.0000   0.0000   0.0000  -0.2753   0.5071   0.0682   0.0569
  30 C6  :2pz    0.0816   0.6544   0.5240  -0.0000   0.0000  -0.0000   0.0000
  31 H1  :1s    -0.0000   0.0000   0.0000  -0.5169   0.0365   0.6565  -0.4545
  32 H2  :1s     0.0000   0.0000   0.0000  -0.5169  -0.5503   0.3599   0.4545
  33 H3  :1s     0.0000   0.0000   0.0000  -0.5169  -0.5868  -0.2966  -0.4545
  34 H4  :1s    -0.0000  -0.0000  -0.0000  -0.5169  -0.0365  -0.6565   0.4545
  35 H5  :1s    -0.0000  -0.0000  -0.0000  -0.5169   0.5503  -0.3599  -0.4545
  36 H6  :1s     0.0000  -0.0000  -0.0000  -0.5169   0.5868   0.2966   0.4545

    Orbital        29       30       31
   1 C1  :1s    -0.1514  -0.0620  -0.0249
   2 C1  :1s     0.9900   0.4053   0.1826
   3 C1  :2px   -0.0465  -0.0191  -0.7851
   4 C1  :2py   -0.1650   0.4029   0.0599
   6 C2  :1s     0.0220   0.1622   0.0185
   7 C2  :1s    -0.1440  -1.0601  -0.1355
   8 C2  :2px   -0.3702   0.0757   0.1564
   9 C2  :2py    0.2216   0.0138   0.5823
  11 C3  :1s     0.1294  -0.1002   0.0064
  12 C3  :1s    -0.8461   0.6547  -0.0471
  13 C3  :2px    0.2109   0.3136   0.0854
  14 C3  :2py    0.1677   0.1455   0.2832
  16 C4  :1s    -0.1514  -0.0620  -0.0249
  17 C4  :1s     0.9900   0.4053   0.1826
  18 C4  :2px    0.0465   0.0191   0.7851
  19 C4  :2py    0.1650  -0.4029  -0.0599
  21 C5  :1s     0.0220   0.1622   0.0185
  22 C5  :1s    -0.1440  -1.0601  -0.1355
  23 C5  :2px    0.3702  -0.0757  -0.1564
  24 C5  :2py   -0.2216  -0.0138  -0.5823
  26 C6  :1s     0.1294  -0.1002   0.0064
  27 C6  :1s    -0.8461   0.6547  -0.0471
  28 C6  :2px   -0.2109  -0.3136  -0.0854
  29 C6  :2py   -0.1677  -0.1455  -0.2832
  31 H1  :1s    -0.4322  -0.1769   0.5485
  32 H2  :1s     0.0629   0.4627  -0.4070
  33 H3  :1s     0.3693  -0.2858  -0.1415
  34 H4  :1s    -0.4322  -0.1769   0.5485
  35 H5  :1s     0.0629   0.4627  -0.4070
  36 H6  :1s     0.3693  -0.2858  -0.1415



 >>>> Total CPU  time used in SIRIUS :      0.76 seconds
 >>>> Total wall time used in SIRIUS :      0.78 seconds

 
     Date and time (Linux)  : Fri Jan 16 10:34:00 2015
     Host name              : adm-106152.local                        

 NOTE:    1 warnings have been issued.
 Check output, result, and error files for "WARNING".


                     .---------------------------------------.
                     | End of Wave Function Section (SIRIUS) |
                     `---------------------------------------'

 >>>> Total CPU  time used in DALTON:   0.81 seconds
 >>>> Total wall time used in DALTON:   0.86 seconds

 
     Date and time (Linux)  : Fri Jan 16 10:34:00 2015
     Host name              : adm-106152.local                        
