

     ************************************************************************
     *************** Dalton - An Electronic Structure Program ***************
     ************************************************************************

    This is output from DALTON (Release Dalton2013 patch 0)
   ----------------------------------------------------------------------------
    NOTE:
     
    Dalton is an experimental code for the evaluation of molecular
    properties using (MC)SCF, DFT, CI, and CC wave functions.
    The authors accept no responsibility for the performance of
    the code or for the correctness of the results.
     
    The code (in whole or part) is provided under a licence and
    is not to be reproduced for further distribution without
    the written permission of the authors or their representatives.
     
    See the home page "http://daltonprogram.org" for further information.
     
    If results obtained with this code are published,
    the appropriate citations would be both of:
     
       K. Aidas, C. Angeli, K. L. Bak, V. Bakken, R. Bast,
       L. Boman, O. Christiansen, R. Cimiraglia, S. Coriani,
       P. Dahle, E. K. Dalskov, U. Ekstroem, T. Enevoldsen,
       J. J. Eriksen, P. Ettenhuber, B. Fernandez, L. Ferrighi,
       H. Fliegl, L. Frediani, K. Hald, A. Halkier, C. Haettig,
       H. Heiberg, T. Helgaker, A. C. Hennum, H. Hettema,
       E. Hjertenaes, S. Hoest, I.-M. Hoeyvik, M. F. Iozzi,
       B. Jansik, H. J. Aa. Jensen, D. Jonsson, P. Joergensen,
       J. Kauczor, S. Kirpekar, T. Kjaergaard, W. Klopper,
       S. Knecht, R. Kobayashi, H. Koch, J. Kongsted, A. Krapp,
       K. Kristensen, A. Ligabue, O. B. Lutnaes, J. I. Melo,
       K. V. Mikkelsen, R. H. Myhre, C. Neiss, C. B. Nielsen,
       P. Norman, J. Olsen, J. M. H. Olsen, A. Osted,
       M. J. Packer, F. Pawlowski, T. B. Pedersen, P. F. Provasi,
       S. Reine, Z. Rinkevicius, T. A. Ruden, K. Ruud, V. Rybkin,
       P. Salek, C. C. M. Samson, A. Sanchez de Meras, T. Saue,
       S. P. A. Sauer, B. Schimmelpfennig, K. Sneskov,
       A. H. Steindal, K. O. Sylvester-Hvid, P. R. Taylor,
       A. M. Teale, E. I. Tellgren, D. P. Tew, A. J. Thorvaldsen,
       L. Thoegersen, O. Vahtras, M. A. Watson, D. J. D. Wilson,
       M. Ziolkowski and H. Agren.
       The Dalton quantum chemistry program system.
       WIREs Comput. Mol. Sci. 2013. doi: 10.1002/wcms.1172
    
    and
    
       Dalton, a Molecular Electronic Structure Program,
       Release DALTON2013.0 (2013), see http://daltonprogram.org
   ----------------------------------------------------------------------------

    Authors in alphabetical order (major contribution(s) in parenthesis):

  Kestutis Aidas,           Vilnius University,           Lithuania   (QM/MM)
  Celestino Angeli,         University of Ferrara,        Italy       (NEVPT2)
  Keld L. Bak,              UNI-C,                        Denmark     (AOSOPPA, non-adiabatic coupling, magnetic properties)
  Vebjoern Bakken,          University of Oslo,           Norway      (DALTON; geometry optimizer, symmetry detection)
  Radovan Bast,             KTH Stockholm                 Sweden      (DALTON installation and execution frameworks)
  Linus Boman,              NTNU,                         Norway      (Cholesky decomposition and subsystems)
  Ove Christiansen,         Aarhus University,            Denmark     (CC module)
  Renzo Cimiraglia,         University of Ferrara,        Italy       (NEVPT2)
  Sonia Coriani,            University of Trieste,        Italy       (CC module, MCD in RESPONS)
  Paal Dahle,               University of Oslo,           Norway      (Parallelization)
  Erik K. Dalskov,          UNI-C,                        Denmark     (SOPPA)
  Thomas Enevoldsen,        Univ. of Southern Denmark,    Denmark     (SOPPA)
  Janus J. Eriksen,         Aarhus University,            Denmark     (PE-MP2/SOPPA, TDA)
  Berta Fernandez,          U. of Santiago de Compostela, Spain       (doublet spin, ESR in RESPONS)
  Lara Ferrighi,            Aarhus University,            Denmark     (PCM Cubic response)
  Heike Fliegl,             University of Oslo,           Norway      (CCSD(R12))
  Luca Frediani,            UiT The Arctic U. of Norway,  Norway      (PCM)
  Bin Gao,                  UiT The Arctic U. of Norway,  Norway      (Gen1Int library)
  Christof Haettig,         Ruhr-University Bochum,       Germany     (CC module)
  Kasper Hald,              Aarhus University,            Denmark     (CC module)
  Asger Halkier,            Aarhus University,            Denmark     (CC module)
  Hanne Heiberg,            University of Oslo,           Norway      (geometry analysis, selected one-electron integrals)
  Trygve Helgaker,          University of Oslo,           Norway      (DALTON; ABACUS, ERI, DFT modules, London, and much more)
  Alf Christian Hennum,     University of Oslo,           Norway      (Parity violation)
  Hinne Hettema,            University of Auckland,       New Zealand (quadratic response in RESPONS; SIRIUS supersymmetry)
  Eirik Hjertenaes,         NTNU,                         Norway      (Cholesky decomposition)
  Maria Francesca Iozzi,    University of Oslo,           Norway      (RPA)
  Brano Jansik              Technical Univ. of Ostrava    Czech Rep.  (DFT cubic response)
  Hans Joergen Aa. Jensen,  Univ. of Southern Denmark,    Denmark     (DALTON; SIRIUS, RESPONS, ABACUS modules, London, and much more)
  Dan Jonsson,              UiT The Arctic U. of Norway,  Norway      (cubic response in RESPONS module)
  Poul Joergensen,          Aarhus University,            Denmark     (RESPONS, ABACUS, and CC modules)
  Joanna Kauczor,           Linkoeping University,        Sweden      (Complex polarization propagator (CPP) module)
  Sheela Kirpekar,          Univ. of Southern Denmark,    Denmark     (Mass-velocity & Darwin integrals)
  Wim Klopper,              KIT Karlsruhe,                Germany     (R12 code in CC, SIRIUS, and ABACUS modules)
  Stefan Knecht,            ETH Zurich,                   Switzerland (Parallel CI and MCSCF)
  Rika Kobayashi,           Australian National Univ.,    Australia   (DIIS in CC, London in MCSCF)
  Henrik Koch,              NTNU,                         Norway      (CC module, Cholesky decomposition)
  Jacob Kongsted,           Univ. of Southern Denmark,    Denmark     (Polarizable embedding, QM/MM)
  Andrea Ligabue,           University of Modena,         Italy       (CTOCD, AOSOPPA)
  Ola B. Lutnaes,           University of Oslo,           Norway      (DFT Hessian)
  Juan I. Melo,             University of Buenos Aires,   Argentina   (LRESC, Relativistic Effects on NMR Shieldings)
  Kurt V. Mikkelsen,        University of Copenhagen,     Denmark     (MC-SCRF and QM/MM)
  Rolf H. Myhre,            NTNU,                         Norway      (Cholesky, subsystems and ECC2)
  Christian Neiss,          Univ. Erlangen-Nuernberg,     Germany     (CCSD(R12))
  Christian B. Nielsen,     University of Copenhagen,     Denmark     (QM/MM)
  Patrick Norman,           Linkoeping University,        Sweden      (Cubic response and complex response in RESPONS)
  Jeppe Olsen,              Aarhus University,            Denmark     (SIRIUS CI/density modules)
  Jogvan Magnus H. Olsen,   Univ. of Southern Denmark,    Denmark     (Polarizable embedding, PE library, QM/MM)
  Anders Osted,             Copenhagen University,        Denmark     (QM/MM)
  Martin J. Packer,         University of Sheffield,      UK          (SOPPA)
  Filip Pawlowski,          Kazimierz Wielki University   Poland      (CC3)
  Thomas B. Pedersen,       University of Oslo,           Norway      (Cholesky decomposition)
  Patricio F. Provasi,      University of Northeastern,   Argentina   (Analysis of coupling constants in localized orbitals)
  Zilvinas Rinkevicius,     KTH Stockholm,                Sweden      (open-shell DFT, ESR)
  Elias Rudberg,            KTH Stockholm,                Sweden      (DFT grid and basis info)
  Torgeir A. Ruden,         University of Oslo,           Norway      (Numerical derivatives in ABACUS)
  Kenneth Ruud,             UiT The Arctic U. of Norway,  Norway      (DALTON; ABACUS magnetic properties and  much more)
  Pawel Salek,              KTH Stockholm,                Sweden      (DALTON; DFT code)
  Claire C. M. Samson       University of Karlsruhe       Germany     (Boys localization, r12 integrals in ERI)
  Alfredo Sanchez de Meras, University of Valencia,       Spain       (CC module, Cholesky decomposition)
  Trond Saue,               Paul Sabatier University,     France      (direct Fock matrix construction)
  Stephan P. A. Sauer,      University of Copenhagen,     Denmark     (SOPPA(CCSD), SOPPA prop., AOSOPPA, vibrational g-factors)
  Bernd Schimmelpfennig,    Forschungszentrum Karlsruhe,  Germany     (AMFI module)
  Kristian Sneskov,         Aarhus University,            Denmark     (QM/MM, PE-CC)
  Arnfinn H. Steindal,      UiT The Arctic U. of Norway,  Norway      (parallel QM/MM)
  K. O. Sylvester-Hvid,     University of Copenhagen,     Denmark     (MC-SCRF)
  Peter R. Taylor,          VLSCI/Univ. of Melbourne,     Australia   (Symmetry handling ABACUS, integral transformation)
  Andrew M. Teale,          University of Nottingham,     England     (DFT-AC, DFT-D)
  David P. Tew,             University of Bristol,        England     (CCSD(R12))
  Olav Vahtras,             KTH Stockholm,                Sweden      (triplet response, spin-orbit, ESR, TDDFT, open-shell DFT)
  David J. Wilson,          La Trobe University,          Australia   (DFT Hessian and DFT magnetizabilities)
  Hans Agren,               KTH Stockholm,                Sweden      (SIRIUS module, RESPONS, MC-SCRF solvation model)
 --------------------------------------------------------------------------------

     Date and time (Linux)  : Sun Sep  8 20:38:24 2013
     Host name              : lpqlx131.ups-tlse.fr                    

 * Work memory size             :    64000000 =  488.28 megabytes.

 * Directories for basis set searches:
   1) /home/bast/DALTON-2013.0-Source/build/test_energy_corehole
   2) /home/bast/DALTON-2013.0-Source/build/basis


Compilation information
-----------------------

 Who compiled             | bast
 Host                     | lpqlx131.ups-tlse.fr
 System                   | Linux-3.8.5-201.fc18.x86_64
 CMake generator          | Unix Makefiles
 Processor                | x86_64
 64-bit integers          | OFF
 MPI                      | OFF
 Fortran compiler         | /usr/bin/gfortran
 Fortran compiler version | GNU Fortran (GCC) 4.7.2 20121109 (Red Hat 4.7.2-8)
 C compiler               | /usr/bin/gcc
 C compiler version       | gcc (GCC) 4.7.2 20121109 (Red Hat 4.7.2-8)
 C++ compiler             | /usr/bin/g++
 C++ compiler version     | g++ (GCC) 4.7.2 20121109 (Red Hat 4.7.2-8)
 Static linking           | OFF
 Last Git revision        | f34203295a86316e27f9e7b44f9b6769c4a046c0
 Configuration time       | 2013-09-08 20:31:27.952056


   Content of the .dal input file
 ----------------------------------

**DALTON INPUT                                    
.RUN WAVE FUNCTIONS                               
**WAVE FUNCTIONS                                  
.MCSCF                                            
.WESTA                                            
*CONFIGURATION INPUT                              
.INACTIVE                                         
 2 0 0 0                                          
.RAS1 SPACE                                       
 1 0 0 0                                          
.RAS2 SPACE                                       
 4 2 2 0                                          
.RAS3 SPACE                                       
 0 0 0 0                                          
.RAS1 ELECTRONS                                   
 1 1                                              
.ELECTR                                           
 10                                               
.SYMMET                                           
 2                                                
.SPIN MULTIPLICITY                                
 1                                                
*ORBITA                                           
.MOSTART                                          
 NEWORB                                           
.REORDER                                          
 2 0 0 0                                          
 2 3 3 2                                          
.FREEZE                                           
 1 0 0 0                                          
 3                                                
*OPTIMI                                           
.NEO ALWAYS                                       
.TRACI                                            
.NO ABS                                           
.DETERM                                           
.MAX MAC                                          
 30                                               
*CI VEC                                           
.PLUS COMBINATIONS                                
.STARTHDIAGONAL                                   
**END OF INPUT                                    


   Content of the .mol file
 ----------------------------

INTGRL                                                                         
Calculation of core-hole excitations using both a frozen and a relaxed         
core orbital. This is a three step job                                         
    2    2  X  Y       1.D-15                                                  
       8.     1    3    1    1    1                                            
O   0.000000             0.000000                  2.132                       
   11    5                                                                     
15330.     0.000508   -0.000115 0.000000   0.000000  0.0                       
2299.      0.003929   -0.000895 0.000000   0.000000  0.0                       
522.4      0.020243   -0.004636 0.000000   0.000000  0.0                       
147.3      0.079181   -0.018724 0.000000   0.000000  0.0                       
47.55      0.230687   -0.058463 0.000000   0.000000  0.0                       
16.76      0.433118   -0.136463 0.000000   0.000000  0.0                       
6.207      0.350260   -0.175740 0.000000   0.000000  0.0                       
1.752      0.042728    0.160934 1.000000   0.000000  0.0                       
0.6882     -0.008154   0.603418 0.000000   0.000000  0.0                       
0.2384     0.002381    0.378765 0.000000   1.000000  0.0                       
0.073760   0.0         0.0      0.0        0.0       1.000000                  
    6    4                                                                     
34.46      0.015928    0.000000  0.000000   0.0                                
7.749      0.099740    0.000000  0.000000   0.0                                
2.280      0.310492    0.000000  0.000000   0.0                                
0.7156     0.491026    1.000000  0.000000   0.0                                
0.2140     0.336337    0.000000  1.000000   0.0                                
0.05974    0.0         0.0       0.0        1.000                              
    3    3                                                                     
2.314      1.000000    0.000000   0.0                                          
0.645      0.000000    1.000000   0.0                                          
0.214000   0.0         0.0        1.0000                                       
        6.    1    3    1    1    1                                            
C   0.        0.000000  0.000000                                               
   11    5                                                                     
8236.       0.000531 -0.000113   0.000000   0.000000  0.0                      
1235.       0.004108 -0.000878   0.000000   0.000000  0.0                      
280.8       0.021087 -0.004540   0.000000   0.000000  0.0                      
79.27       0.081853 -0.018133   0.000000   0.000000  0.0                      
25.59       0.234817 -0.055760   0.000000   0.000000  0.0                      
8.997       0.434401 -0.126895   0.000000   0.000000  0.0                      
3.319       0.346129 -0.170352   0.000000   0.000000  0.0                      
0.9059      0.039378 0.140382    1.000000   0.000000  0.0                      
0.3643     -0.008983 0.598684    0.000000   0.000000  0.0                      
0.1285      0.002385 0.395389    0.000000   1.000000  0.0                      
0.04402     0.000000 0.000000    0.000000   0.000000  1.0                      
    6    4                                                                     
18.71      0.014031    0.000000  0.000000  0.0                                 
4.133      0.086866    0.000000  0.000000  0.0                                 
1.200      0.290216    0.000000  0.000000  0.0                                 
0.3827     0.501008    1.000000  0.000000  0.0                                 
0.1209     0.343406    0.000000  1.000000  0.0                                 
0.03569    0.000000    0.000000  0.000000  1.0                                 
    3    3                                                                     
1.097      1.000000    0.000000  0.0                                           
0.318      0.000000    1.000000  0.0                                           
0.100      0.000000    0.000000  1.0                                           


       *******************************************************************
       *********** Output from DALTON general input processing ***********
       *******************************************************************

 --------------------------------------------------------------------------------
   Overall default print level:    0
   Print level for DALTON.STAT:    1

    HERMIT 1- and 2-electron integral sections will be executed
    "Old" integral transformation used (limited to max 255 basis functions)
    Wave function sections will be executed (SIRIUS module)
 --------------------------------------------------------------------------------


   ****************************************************************************
   *************** Output of molecule and basis set information ***************
   ****************************************************************************


    The two title cards from your ".mol" input:
    ------------------------------------------------------------------------
 1: Calculation of core-hole excitations using both a frozen and a relaxed  
 2: core orbital. This is a three step job                                  
    ------------------------------------------------------------------------

  Atomic type no.    1
  --------------------
  Nuclear charge:   8.00000
  Number of symmetry independent centers:    1
  Number of basis sets to read;    1

  Atomic type no.    2
  --------------------
  Nuclear charge:   6.00000
  Number of symmetry independent centers:    1
  Number of basis sets to read;    1


                         SYMGRP: Point group information
                         -------------------------------

Point group: C2v

   * The point group was generated by:

      Reflection in the yz-plane
      Reflection in the xz-plane

   * Group multiplication table

        |  E   C2z  Oxz  Oyz
   -----+--------------------
     E  |  E   C2z  Oxz  Oyz
    C2z | C2z   E   Oyz  Oxz
    Oxz | Oxz  Oyz   E   C2z
    Oyz | Oyz  Oxz  C2z   E 

   * Character table

        |  E   C2z  Oxz  Oyz
   -----+--------------------
    A1  |   1    1    1    1
    B1  |   1   -1    1   -1
    B2  |   1   -1   -1    1
    A2  |   1    1   -1   -1

   * Direct product table

        | A1   B1   B2   A2 
   -----+--------------------
    A1  | A1   B1   B2   A2 
    B1  | B1   A1   A2   B2 
    B2  | B2   A2   A1   B1 
    A2  | A2   B2   B1   A1 


                                 Isotopic Masses
                                 ---------------

                           O          15.994915
                           C          12.000000

                       Total mass:    27.994915 amu
                       Natural abundance:  98.663 %

 Center-of-mass coordinates (a.u.):    0.000000    0.000000    1.218120


  Atoms and basis sets
  --------------------

  Number of atom types :    2
  Total number of atoms:    2

  label    atoms   charge   prim   cont     basis
  ----------------------------------------------------------------------
  O           1    8.0000    44    32      [11s6p3d|5s4p3d]                                   
  C           1    6.0000    44    32      [11s6p3d|5s4p3d]                                   
  ----------------------------------------------------------------------
  total:      2   14.0000    88    64
  ----------------------------------------------------------------------
  Spherical harmonic basis used.

  Threshold for neglecting AO integrals:  1.00D-15


  Cartesian Coordinates (a.u.)
  ----------------------------

  Total number of coordinates:    6
  O       :     1  x   0.0000000000    2  y   0.0000000000    3  z   2.1320000000
  C       :     4  x   0.0000000000    5  y   0.0000000000    6  z   0.0000000000


  Symmetry Coordinates
  --------------------

  Number of coordinates in each symmetry:     2    2    2    0

  Symmetry  A1  ( 1)

    1   O     z    3
    2   C     z    6

  Symmetry  B1  ( 2)

    3   O     x    1
    4   C     x    4

  Symmetry  B2  ( 3)

    5   O     y    2
    6   C     y    5


   Interatomic separations (in Angstrom):
   --------------------------------------

            O           C     
            ------      ------
 O     :    0.000000
 C     :    1.128206    0.000000


  Max    interatomic separation is    1.1282 Angstrom (    2.1320 Bohr)
  between atoms    2 and    1, "C     " and "O     ".

  Min YX interatomic separation is    1.1282 Angstrom (    2.1320 Bohr)


  Bond distances (Angstrom):
  --------------------------

                  atom 1     atom 2       distance
                  ------     ------       --------
  bond distance:  C          O            1.128206




 Principal moments of inertia (u*A**2) and principal axes
 --------------------------------------------------------

   IA       0.000000          0.000000    0.000000    1.000000
   IB       8.726914          0.000000    1.000000    0.000000
   IC       8.726914          1.000000    0.000000    0.000000


 Rotational constants
 --------------------

 The molecule is linear.

               B =        57910.39 MHz     (    1.931683 cm-1)


@  Nuclear repulsion energy :   22.514071294559 Hartree


  Symmetry Orbitals
  -----------------

  Number of orbitals in each symmetry:          30   14   14    6


  Symmetry  A1 ( 1)

    1     O        1s         1
    2     O        1s         2
    3     O        1s         3
    4     O        1s         4
    5     O        1s         5
    6     O        2pz        8
    7     O        2pz       11
    8     O        2pz       14
    9     O        2pz       17
   10     O        3d0       20
   11     O        3d2+      22
   12     O        3d0       25
   13     O        3d2+      27
   14     O        3d0       30
   15     O        3d2+      32
   16     C        1s        33
   17     C        1s        34
   18     C        1s        35
   19     C        1s        36
   20     C        1s        37
   21     C        2pz       40
   22     C        2pz       43
   23     C        2pz       46
   24     C        2pz       49
   25     C        3d0       52
   26     C        3d2+      54
   27     C        3d0       57
   28     C        3d2+      59
   29     C        3d0       62
   30     C        3d2+      64


  Symmetry  B1 ( 2)

   31     O        2px        6
   32     O        2px        9
   33     O        2px       12
   34     O        2px       15
   35     O        3d1+      21
   36     O        3d1+      26
   37     O        3d1+      31
   38     C        2px       38
   39     C        2px       41
   40     C        2px       44
   41     C        2px       47
   42     C        3d1+      53
   43     C        3d1+      58
   44     C        3d1+      63


  Symmetry  B2 ( 3)

   45     O        2py        7
   46     O        2py       10
   47     O        2py       13
   48     O        2py       16
   49     O        3d1-      19
   50     O        3d1-      24
   51     O        3d1-      29
   52     C        2py       39
   53     C        2py       42
   54     C        2py       45
   55     C        2py       48
   56     C        3d1-      51
   57     C        3d1-      56
   58     C        3d1-      61


  Symmetry  A2 ( 4)

   59     O        3d2-      18
   60     O        3d2-      23
   61     O        3d2-      28
   62     C        3d2-      50
   63     C        3d2-      55
   64     C        3d2-      60

  Symmetries of electric field:  B1 (2)  B2 (3)  A1 (1)

  Symmetries of magnetic field:  B2 (3)  B1 (2)  A2 (4)


                     .---------------------------------------.
                     | Starting in Integral Section (HERMIT) |
                     `---------------------------------------'



    *************************************************************************
    ****************** Output from HERMIT input processing ******************
    *************************************************************************



     ************************************************************************
     ************************** Output from HERINT **************************
     ************************************************************************


 Threshold for neglecting two-electron integrals:  1.00D-15
 Number of two-electron integrals written:      474134 ( 21.9% )
 Megabytes written:                              5.434

 >>>  Time used in TWOINT     is   0.20 seconds
 >>>> Total CPU  time used in HERMIT:   0.23 seconds
 >>>> Total wall time used in HERMIT:   0.23 seconds


                        .----------------------------------.
                        | End of Integral Section (HERMIT) |
                        `----------------------------------'



                   .--------------------------------------------.
                   | Starting in Wave Function Section (SIRIUS) |
                   `--------------------------------------------'


 **********************************************************************
 *SIRIUS* a direct, restricted step, second order MCSCF program       *
 **********************************************************************

 
     Date and time (Linux)  : Sun Sep  8 20:38:24 2013
     Host name              : lpqlx131.ups-tlse.fr                    

 Title lines from ".mol" input file:
     Calculation of core-hole excitations using both a frozen and a relaxed  
     core orbital. This is a three step job                                  

 Print level on unit LUPRI =   2 is   0
 Print level on unit LUW4  =   2 is   5

@    MC-SCF optimization.
@              Type: restricted active space calculation (RAS)

 Initial molecular orbitals are obtained according to
 ".MOSTART NEWORB" input option
 and reordered as requested with .REORDER or indirectly with .CORHOL

     Wave function specification
     ============================
@    For the wave function of type :      >>> MC-SCF <<<
@    Number of closed shell electrons           4
@    Number of electrons in active shells      10
@    Total charge of the molecule               0

@    Spin multiplicity and 2 M_S                1         0
     Total number of symmetries                 4
@    Reference state symmetry                   2

Number of active orbitals in RAS1, RAS2, and RAS3 :   1   8   0

@    Minimum number of electrons in RAS1 :   1 (maximum   1 holes)
@    Maximum number of electrons in RAS1 :   1 (minimum   1 holes)

     Orbital specifications
     ======================
     Abelian symmetry species          All |    1    2    3    4
                                       --- |  ---  ---  ---  ---
@    Inactive orbitals                   2 |    2    0    0    0
@    Active orbitals in RAS1             1 |    1    0    0    0
@    Active orbitals in RAS2             8 |    4    2    2    0
@    Active orbitals                     9 |    5    2    2    0
     Secondary orbitals                 53 |   23   12   12    6
     Total number of orbitals           64 |   30   14   14    6
     Number of basis functions          64 |   30   14   14    6

     Optimization information
     ========================
@    Number of determinants                1960
@    Number of orbital rotations            194
     ------------------------------------------
@    Total number of variables             2154

     Maximum number of macro iterations      30
     Maximum number of micro iterations     720
     Threshold for MCSCF gradient      1.00D-05
     Number of initial trial vectors          1
     Number of initial CI iterations         20
     Number of simultaneous trial vectors     1

@    This calculation converges to the lowest state for the specified symmetry and spin species.

     Maximum number of NEO/NR iterations  24

@    Number of orbitals frozen with ".FREEZE"  1

     Orbital  Symmetry   No. in   Type
       no.              symmetry
         3         1         3   active   


        SIRIUS MCSCF optimization (SIROPT)
 ================================================


String information written on SIRIUS.STRINGINFO for use by WESTA program


 <<<<< Output from SIRIUS CI module (CICTL) >>>>>




 Integral transformation: Total CPU and WALL times (sec)       0.054       0.056
     (Precalculated two-electron integrals are transformed to P-supermatrix elements.
      Threshold for discarding integrals :  1.00D-15 )


 >>> SIRCI.CIST1: plus combination of all degenerate
                 configurations is used as start vectors.


 (CIST1)  8 lowest diagonal elements:

 Element no. Config.no.    Active energy      Total energy

         1 :       1393    -43.7556091682   -101.5561935649
         2 :       1034    -43.7556091682   -101.5561935649
         3 :         30    -42.9650764284   -100.7656608251
         4 :        597    -42.9650764284   -100.7656608251
         5 :       1561    -42.9620230402   -100.7626074369
         6 :       1041    -42.9620230402   -100.7626074369
         7 :       1202    -42.9492913478   -100.7498757445
         8 :       1405    -42.9492913478   -100.7498757445


 Convergence threshold for CI optimization :     0.00000500


 The requested root number is now converged.


 *** CI converged in  7 iterations.



 CI energies and residuals:
    1     -101.574321678917102       7.82D-07


 Final CI energy:     -101.574321678917102

   <<< OUTPUT FROM SIRCNO >>>    Keyword = FD+NO 


 "Occupations" of RAS pseudo-natural orbitals:

 Norm of zeroed RAS1-RAS2 block:   0.000000D+00
 Norm of zeroed RAS1-RAS3 block:   0.000000D+00
 Norm of zeroed RAS2-RAS3 block:   0.000000D+00

 Symmetry  1

   1.000000000   1.999975681   1.999802676   0.000207296   0.000019995

 Symmetry  2

   1.999837331   1.000123995

 Symmetry  3

   1.999639755   0.000393270


 <<< MACRO ITERATION  1 >>>
 --------------------------

 Integral transformation: Total CPU and WALL times (sec)       0.107       0.108

 Total MCSCF energy       :          -101.574321678917016  (MACRO    1)

 - Nuclear repulsion      :            22.514071294559098
 - Inactive energy        :           -80.314655691283875
 - Active energy          :           -43.773737282192251

 Norm of total gradient   :             2.586465712725
 -    of CI gradient      :             0.000001563703
 -    of orbital gradient :             2.586465712725

 WARNING, population analysis for RAS wave functions uses pseudo-natural orbitals,
          that is, the off-diagonal elements of the one-electron density matrix which
          couple the different RAS spaces are ignored.
      Virial theorem: -V/T =      2.047965
@      MULPOP O      -0.12; C       0.12; 

 (SIRNEO) iteration (  1,  3)
 Micro iteration termination criterion met, EVAL(ISTATE+1) = -3.29D-01

   <<< OUTPUT FROM SIRCNO >>>    Keyword = FD+NO 


 "Occupations" of RAS pseudo-natural orbitals:

 Norm of zeroed RAS1-RAS2 block:   0.000000D+00
 Norm of zeroed RAS1-RAS3 block:   0.000000D+00
 Norm of zeroed RAS2-RAS3 block:   0.000000D+00

 Symmetry  1

   1.000000000   1.999975681   1.999802676   0.000207296   0.000019995

 Symmetry  2

   1.999837331   1.000123995

 Symmetry  3

   1.999639755   0.000393270


 <<< MACRO ITERATION  2 >>>
 --------------------------

 Integral transformation: Total CPU and WALL times (sec)       0.108       0.109

 Total MCSCF energy       :          -102.057935597374183  (MACRO    2)

 - Nuclear repulsion      :            22.514071294559098
 - Inactive energy        :           -80.382432559967796
 - Active energy          :           -44.189574331965495

 Norm of total gradient   :             1.572489129781
 -    of CI gradient      :             0.093915208295
 -    of orbital gradient :             1.569682132449

 WARNING, population analysis for RAS wave functions uses pseudo-natural orbitals,
          that is, the off-diagonal elements of the one-electron density matrix which
          couple the different RAS spaces are ignored.
      Virial theorem: -V/T =      2.018331
@      MULPOP O      -0.11; C       0.11; 

 Residual norm when dim(red L) =   5
 NEO root     CSF        orbital          total
    1     0.17818939     0.07584595     0.19365966 converged

 (NEONEX) NEO vector is converged.

   <<< OUTPUT FROM SIRCNO >>>    Keyword = FD+NO 


 "Occupations" of RAS pseudo-natural orbitals:

 Norm of zeroed RAS1-RAS2 block:   0.000000D+00
 Norm of zeroed RAS1-RAS3 block:   0.000000D+00
 Norm of zeroed RAS2-RAS3 block:   0.000000D+00

 Symmetry  1

   1.000000000   1.999975681   1.999802676   0.000207296   0.000019995

 Symmetry  2

   1.999837331   1.000123995

 Symmetry  3

   1.999639755   0.000393270


 <<< MACRO ITERATION  3 >>>
 --------------------------

 Integral transformation: Total CPU and WALL times (sec)       0.111       0.112

 Total MCSCF energy       :          -102.142215773941487  (MACRO    3)

 - Nuclear repulsion      :            22.514071294559098
 - Inactive energy        :           -80.353008673697872
 - Active energy          :           -44.303278394802717

 Norm of total gradient   :             0.283028500003
 -    of CI gradient      :             0.137757917806
 -    of orbital gradient :             0.247240546626

 WARNING, population analysis for RAS wave functions uses pseudo-natural orbitals,
          that is, the off-diagonal elements of the one-electron density matrix which
          couple the different RAS spaces are ignored.
      Virial theorem: -V/T =      2.019434
@      MULPOP O      -0.28; C       0.28; 

 (SIRNEO) iteration (  3,  4)
 Micro iteration termination criterion met, EVAL(ISTATE+1) = -1.29D-02

   <<< OUTPUT FROM SIRCNO >>>    Keyword = FD+NO 


 "Occupations" of RAS pseudo-natural orbitals:

 Norm of zeroed RAS1-RAS2 block:   0.000000D+00
 Norm of zeroed RAS1-RAS3 block:   0.000000D+00
 Norm of zeroed RAS2-RAS3 block:   0.000000D+00

 Symmetry  1

   1.000000000   1.999357758   1.996634525   0.002133890   0.000217640

 Symmetry  2

   1.976691785   1.023202934

 Symmetry  3

   1.966898149   0.034863318


 <<< MACRO ITERATION  4 >>>
 --------------------------

 Integral transformation: Total CPU and WALL times (sec)       0.106       0.106

 Total MCSCF energy       :          -102.185708474407193  (MACRO    4)

 - Nuclear repulsion      :            22.514071294559098
 - Inactive energy        :           -80.386164683834693
 - Active energy          :           -44.313615085131602

 Norm of total gradient   :             0.811100836176
 -    of CI gradient      :             0.079331857833
 -    of orbital gradient :             0.807211882208

 WARNING, population analysis for RAS wave functions uses pseudo-natural orbitals,
          that is, the off-diagonal elements of the one-electron density matrix which
          couple the different RAS spaces are ignored.
      Virial theorem: -V/T =      2.016060
@      MULPOP O       0.12; C      -0.12; 

 Residual norm when dim(red L) =   5
 NEO root     CSF        orbital          total
    1     0.15497068     0.03246645     0.15833503 converged

 (NEONEX) NEO vector is converged.

   <<< OUTPUT FROM SIRCNO >>>    Keyword = FD+NO 


 "Occupations" of RAS pseudo-natural orbitals:

 Norm of zeroed RAS1-RAS2 block:   0.000000D+00
 Norm of zeroed RAS1-RAS3 block:   0.000000D+00
 Norm of zeroed RAS2-RAS3 block:   0.000000D+00

 Symmetry  1

   1.000000000   1.992795362   1.984388510   0.010778132   0.004719166

 Symmetry  2

   1.970430229   1.028938949

 Symmetry  3

   1.927476579   0.080473074


 <<< MACRO ITERATION  5 >>>
 --------------------------

 Integral transformation: Total CPU and WALL times (sec)       0.109       0.110

 Total MCSCF energy       :          -102.223753388320688  (MACRO    5)

 - Nuclear repulsion      :            22.514071294559098
 - Inactive energy        :           -80.434411901070675
 - Active energy          :           -44.303412781809115

 Norm of total gradient   :             0.638938538539
 -    of CI gradient      :             0.165567204125
 -    of orbital gradient :             0.617114217102

 WARNING, population analysis for RAS wave functions uses pseudo-natural orbitals,
          that is, the off-diagonal elements of the one-electron density matrix which
          couple the different RAS spaces are ignored.
      Virial theorem: -V/T =      2.013482
@      MULPOP O       0.12; C      -0.12; 

 Residual norm when dim(red L) =   7
 NEO root     CSF        orbital          total
    1     0.09674408     0.02127905     0.09905662 converged

 (NEONEX) NEO vector is converged.

   <<< OUTPUT FROM SIRCNO >>>    Keyword = FD+NO 


 "Occupations" of RAS pseudo-natural orbitals:

 Norm of zeroed RAS1-RAS2 block:   0.000000D+00
 Norm of zeroed RAS1-RAS3 block:   0.000000D+00
 Norm of zeroed RAS2-RAS3 block:   0.000000D+00

 Symmetry  1

   1.000000000   1.971318400   1.981515358   0.010549509   0.029160805

 Symmetry  2

   1.973073214   1.026195800

 Symmetry  3

   1.925383788   0.082803126


 <<< MACRO ITERATION  6 >>>
 --------------------------

 Integral transformation: Total CPU and WALL times (sec)       0.109       0.143

 Total MCSCF energy       :          -102.241893523750818  (MACRO    6)

 - Nuclear repulsion      :            22.514071294559098
 - Inactive energy        :           -79.981675663779086
 - Active energy          :           -44.774289154530834

 Norm of total gradient   :             2.737450885117
 -    of CI gradient      :             0.309267298043
 -    of orbital gradient :             2.719924831091

 WARNING, population analysis for RAS wave functions uses pseudo-natural orbitals,
          that is, the off-diagonal elements of the one-electron density matrix which
          couple the different RAS spaces are ignored.
      Virial theorem: -V/T =      2.013071
@      MULPOP O       0.15; C      -0.15; 

 Residual norm when dim(red L) =   5
 NEO root     CSF        orbital          total
    1     0.25043307     0.08860036     0.26564402 converged

 (NEONEX) NEO vector is converged.

   <<< OUTPUT FROM SIRCNO >>>    Keyword = FD+NO 


 "Occupations" of RAS pseudo-natural orbitals:

 Norm of zeroed RAS1-RAS2 block:   0.000000D+00
 Norm of zeroed RAS1-RAS3 block:   0.000000D+00
 Norm of zeroed RAS2-RAS3 block:   0.000000D+00

 Symmetry  1

   1.000000000   1.971318400   1.981515358   0.010549509   0.029160805

 Symmetry  2

   1.973073214   1.026195800

 Symmetry  3

   1.925383788   0.082803126


 <<< MACRO ITERATION  7 >>>
 --------------------------

 Integral transformation: Total CPU and WALL times (sec)       0.108       0.219

 Total MCSCF energy       :          -102.275240310824984  (MACRO    7)

 - Nuclear repulsion      :            22.514071294559098
 - Inactive energy        :           -79.125442670899531
 - Active energy          :           -45.663868934484547

 Norm of total gradient   :             0.256433283025
 -    of CI gradient      :             0.204821430751
 -    of orbital gradient :             0.154292612098

 WARNING, population analysis for RAS wave functions uses pseudo-natural orbitals,
          that is, the off-diagonal elements of the one-electron density matrix which
          couple the different RAS spaces are ignored.
      Virial theorem: -V/T =      2.012809
@      MULPOP O       0.13; C      -0.13; 

 Residual norm when dim(red L) =   9
 NEO root     CSF        orbital          total
    1     0.04074698     0.01163359     0.04237519 converged

 (NEONEX) NEO vector is converged.

   <<< OUTPUT FROM SIRCNO >>>    Keyword = FD+NO 


 "Occupations" of RAS pseudo-natural orbitals:

 Norm of zeroed RAS1-RAS2 block:   0.000000D+00
 Norm of zeroed RAS1-RAS3 block:   0.000000D+00
 Norm of zeroed RAS2-RAS3 block:   0.000000D+00

 Symmetry  1

   1.000000000   1.969906469   1.979580779   0.016416648   0.029117352

 Symmetry  2

   1.977854700   1.021075956

 Symmetry  3

   1.930843116   0.075204980


 <<< MACRO ITERATION  8 >>>
 --------------------------

 Integral transformation: Total CPU and WALL times (sec)       0.108       0.211

 Total MCSCF energy       :          -102.287015473264162  (MACRO    8)

 - Nuclear repulsion      :            22.514071294559098
 - Inactive energy        :           -78.076920392325590
 - Active energy          :           -46.724166375497674

 Norm of total gradient   :             0.106645651135
 -    of CI gradient      :             0.100917202764
 -    of orbital gradient :             0.034482069142

 WARNING, population analysis for RAS wave functions uses pseudo-natural orbitals,
          that is, the off-diagonal elements of the one-electron density matrix which
          couple the different RAS spaces are ignored.
      Virial theorem: -V/T =      2.012811
@      MULPOP O       0.09; C      -0.09; 

 Residual norm when dim(red L) =   8
 NEO root     CSF        orbital          total
    1     0.00905263     0.00251202     0.00939470 converged

 (NEONEX) NEO vector is converged.

   <<< OUTPUT FROM SIRCNO >>>    Keyword = FD+NO 


 "Occupations" of RAS pseudo-natural orbitals:

 Norm of zeroed RAS1-RAS2 block:   0.000000D+00
 Norm of zeroed RAS1-RAS3 block:   0.000000D+00
 Norm of zeroed RAS2-RAS3 block:   0.000000D+00

 Symmetry  1

   1.000000000   1.973165099   1.982656589   0.012614078   0.026546069

 Symmetry  2

   1.977388959   1.021687867

 Symmetry  3

   1.927686495   0.078254843


 <<< MACRO ITERATION  9 >>>
 --------------------------

 Integral transformation: Total CPU and WALL times (sec)       0.108       0.110

 Total MCSCF energy       :          -102.288268331665677  (MACRO    9)

 - Nuclear repulsion      :            22.514071294559098
 - Inactive energy        :           -78.118200787829792
 - Active energy          :           -46.684138838394986

 Norm of total gradient   :             0.010270828303
 -    of CI gradient      :             0.009731884873
 -    of orbital gradient :             0.003283341414

 WARNING, population analysis for RAS wave functions uses pseudo-natural orbitals,
          that is, the off-diagonal elements of the one-electron density matrix which
          couple the different RAS spaces are ignored.
      Virial theorem: -V/T =      2.012946
@      MULPOP O       0.10; C      -0.10; 

 Residual norm when dim(red L) =  19
 NEO root     CSF        orbital          total
    1     0.00006665     0.00002100     0.00006987 converged

 (NEONEX) NEO vector is converged.

   <<< OUTPUT FROM SIRCNO >>>    Keyword = FD+NO 


 "Occupations" of RAS pseudo-natural orbitals:

 Norm of zeroed RAS1-RAS2 block:   0.000000D+00
 Norm of zeroed RAS1-RAS3 block:   0.000000D+00
 Norm of zeroed RAS2-RAS3 block:   0.000000D+00

 Symmetry  1

   1.000000000   1.973128807   1.982488312   0.012759943   0.026470955

 Symmetry  2

   1.977401326   1.021653429

 Symmetry  3

   1.926969845   0.079127383


 <<< MACRO ITERATION 10 >>>
 --------------------------

 Integral transformation: Total CPU and WALL times (sec)       0.109       0.109

 Total MCSCF energy       :          -102.288287199405062  (MACRO   10)

 - Nuclear repulsion      :            22.514071294559098
 - Inactive energy        :           -78.118082518284169
 - Active energy          :           -46.684275975679995

 Norm of total gradient   :             0.000193682079
 -    of CI gradient      :             0.000151399463
 -    of orbital gradient :             0.000120793005

 WARNING, population analysis for RAS wave functions uses pseudo-natural orbitals,
          that is, the off-diagonal elements of the one-electron density matrix which
          couple the different RAS spaces are ignored.
      Virial theorem: -V/T =      2.012916
@      MULPOP O       0.10; C      -0.10; 

 Residual norm when dim(red L) =  11
 NEO root     CSF        orbital          total
    1     0.00000674     0.00000381     0.00000774 converged

 (NEONEX) NEO vector is converged.

   <<< OUTPUT FROM SIRCNO >>>    Keyword = FD+NO 


 "Occupations" of RAS pseudo-natural orbitals:

 Norm of zeroed RAS1-RAS2 block:   0.000000D+00
 Norm of zeroed RAS1-RAS3 block:   0.000000D+00
 Norm of zeroed RAS2-RAS3 block:   0.000000D+00

 Symmetry  1

   1.000000000   1.973134583   1.982492899   0.012752794   0.026467845

 Symmetry  2

   1.977401591   1.021652823

 Symmetry  3

   1.926971789   0.079125676


 <<< MACRO ITERATION 11 >>>
 --------------------------

 Integral transformation: Total CPU and WALL times (sec)       0.108       0.109

 Total MCSCF energy       :          -102.288287203283886  (MACRO   11)

 - Nuclear repulsion      :            22.514071294559098
 - Inactive energy        :           -78.118084515401748
 - Active energy          :           -46.684273982441233

 Norm of total gradient   :             0.000007744138
 -    of CI gradient      :             0.000006734572
 -    of orbital gradient :             0.000003823246

 WARNING, population analysis for RAS wave functions uses pseudo-natural orbitals,
          that is, the off-diagonal elements of the one-electron density matrix which
          couple the different RAS spaces are ignored.
      Virial theorem: -V/T =      2.012916
@      MULPOP O       0.10; C      -0.10; 

 (SIRSTP) Close to convergence, ratio set to one.
 Energy difference; actual and predicted:   -3.87882D-09   -3.87875D-09

 (SIRSTP) Close to convergence, ratio set to one.
 Energy difference; actual and predicted:    1.00002D+00
 Close to convergence, ratio set to one.

 *** Optimization control: MCSCF converged ***
     Number of macro iterations used           11
     Number of micro iterations used           64
     Total number of CPU seconds used         2.43

 >>>> CPU and wall time for MCSCF :       2.428       2.902


                     .----------------------------------------.
                     | >>> SIRIUS OPTIMIZATION STATISTICS <<< |
                     `----------------------------------------'


 
     Date and time (Linux)  : Sun Sep  8 20:38:27 2013
     Host name              : lpqlx131.ups-tlse.fr                    


  ITER ITMIC     EMCSCF           GRDNRM        RATIO      STPLNG
 ---------------------------------------------------------------------
    1    3   -101.574321678917   2.5864657127  0.000000   0.7386804781
    2    4   -102.057935597374   1.5724891298  0.722640   0.6935401699
    3    4   -102.142215773941   0.2830285000  0.640935   0.6986825833
    4    4   -102.185708474407   0.8111008362  0.835559   0.7107213595
    5    6   -102.223753388321   0.6389385385  0.698977   0.7378160743
    6    4   -102.241893523751   2.7374508851  0.426113   0.6944163034
    7    7   -102.275240310825   0.2564332830  0.817576   0.7434409238
    8    6   -102.287015473264   0.1066456511  0.740570   0.0716235566
    9   17   -102.288268331666   0.0102708283  1.003996   0.0194173656
   10    9   -102.288287199405   0.0001936821  0.999041   0.0001939115
   11    0   -102.288287203284   0.0000077441  1.000000   0.0000000000


  ITER  INDGCM  GCIMAX      GCINRM     INDGOM  GOBMAX      GOBNRM      GRDNRM
 ------------------------------------------------------------------------------
    1   1629   -0.000000    0.000002    171    0.802663    2.586466    2.586466
    2   1125    0.032193    0.093915    100    1.382892    1.569682    1.572489
    3   1125    0.057051    0.137758     82    0.068522    0.247241    0.283029
    4   1209    0.029104    0.079332    100    0.646954    0.807212    0.811101
    5   1585   -0.028575    0.165567     77    0.443200    0.617114    0.638939
    6   1501    0.068294    0.309267    146   -1.986616    2.719925    2.737451
    7   1409    0.036153    0.204821     54   -0.131001    0.154293    0.256433
    8   1442    0.022729    0.100917      7   -0.020927    0.034482    0.106646
    9   1036   -0.001507    0.009732     53   -0.001247    0.003283    0.010271
   10   1064   -0.000026    0.000151     77    0.000090    0.000121    0.000194
   11   1561    0.000001    0.000007     76    0.000002    0.000004    0.000008


  ITER ITMIC NCLIN NOLIN   TIMMAC    TIMITR    TIMMIC    TIMLIN    TIMMIC/ITMIC
 ------------------------------------------------------------------------------

    1     3     0     3      0.18      0.11      0.06      0.05      0.02
    2     4     0     4      0.19      0.11      0.07      0.07      0.02
    3     4     2     3      0.20      0.11      0.07      0.07      0.02
    4     4     1     3      0.19      0.11      0.07      0.06      0.02
    5     6     2     4      0.22      0.11      0.09      0.09      0.02
    6     4     0     4      0.20      0.11      0.08      0.07      0.02
    7     7     4     4      0.23      0.11      0.11      0.11      0.02
    8     6     4     3      0.22      0.11      0.10      0.09      0.02
    9    17    12     6      0.35      0.11      0.23      0.22      0.01
   10     9     6     4      0.25      0.11      0.13      0.13      0.01
   11     0     0     0      0.12      0.11      0.00      0.00


 ITER         EMY                 EACTIV              EMCSCF

    1    -80.314655691284    -43.773737282192   -101.574321678917
    2    -80.382432559968    -44.189574331965   -102.057935597374
    3    -80.353008673698    -44.303278394803   -102.142215773941
    4    -80.386164683835    -44.313615085132   -102.185708474407
    5    -80.434411901071    -44.303412781809   -102.223753388321
    6    -79.981675663779    -44.774289154531   -102.241893523751
    7    -79.125442670900    -45.663868934485   -102.275240310825
    8    -78.076920392326    -46.724166375498   -102.287015473264
    9    -78.118200787830    -46.684138838395   -102.288268331666
   10    -78.118082518284    -46.684275975680   -102.288287199405
   11    -78.118084515402    -46.684273982441   -102.288287203284


 ITER         DEPRED              DEACT               RATIO

    1      0.000000000000      0.000000000000      0.000000000000
    2     -0.669232527359     -0.483613918457      0.722639588912
    3     -0.131495757204     -0.084280176567      0.640934569748
    4     -0.052052242080     -0.043492700466      0.835558637398
    5     -0.054429405249     -0.038044913913      0.698977211662
    6     -0.042571197833     -0.018140135430      0.426112873343
    7     -0.040787365514     -0.033346787074      0.817576390476
    8     -0.015900140957     -0.011775162439      0.740569688706
    9     -0.001247872443     -0.001252858402      1.003995567535
   10     -0.000018885855     -0.000018867739      0.999040792482
   11     -0.000000003879     -0.000000003879      1.000000000000


 ITER    BETA           GAMMA             STPLNG              RTRUST

    1      1.15755477  1.00000000      0.738680478078      0.700000000000
    2      0.94454278  1.00000000      0.693540169949      0.700000000000
    3      1.72551502  1.00000000      0.698682583321      0.700000000000
    4      1.51536697  1.00000000      0.710721359538      0.700000000000
    5      1.68970129  1.00000000      0.737816074263      0.700000000000
    6      1.02482337  1.00000000      0.694416303400      0.700000000000
    7      0.58571914  1.00000000      0.743440923792      0.700000000000
    8      0.20000000  1.00000000      0.071623556598      0.700000000000
    9      0.20000000  1.00000000      0.019417365581      0.700000000000
   10      0.20000000  1.00000000      0.000193911519      0.700000000000
   11      0.00000000  0.00000000      0.000000000000      0.700000000000


 Reduced L root no.  1
 ITER         EVAL              EVEC(1)           EVEC(2)           EVEC(3)
 ----------------------------------------------------------------------------
    1   -1.035999914425    0.760037099015   -0.262994239420   -0.590029060645
    2   -0.164177627904    0.836497193074   -0.092628603696   -0.324188459076
    3   -0.126337231422    0.638428426443   -0.233479430222   -0.667568313175
    4   -0.115733250523   -0.680423754922    0.057853635381    0.664430387675
    5   -0.095171133978   -0.625705183167    0.724782318881    0.191022119276
    6   -0.056872004708    0.814746350588   -0.016623215678   -0.531774735523
    7   -0.009170721692    0.916846980068   -0.028438883343   -0.333267482526
    8   -0.000099809315    0.999897417110   -0.004067684938   -0.009723075136
    9   -0.000001510846    0.999992459404   -0.000660567425   -0.003562456888
   10   -0.000000000310    0.999999999248   -0.000009873566   -0.000022835645
   11    0.000000000000    0.000000000000    0.000000000000    0.000000000000


                       .-----------------------------------.
                       | >>> Final results from SIRIUS <<< |
                       `-----------------------------------'


@    Spin multiplicity:           1
@    Spatial symmetry:            2
@    Total charge of molecule:    0
@    State number:                1

@    Final MCSCF energy:         -102.288287203284                 
@    Nuclear repulsion:            22.514071294559
@    Electronic energy:          -124.802358497843

@    Final gradient norm:           0.000007744138

 
     Date and time (Linux)  : Sun Sep  8 20:38:27 2013
     Host name              : lpqlx131.ups-tlse.fr                    

String information written on SIRIUS.STRINGINFO for use by WESTA program

 Occupancies of natural orbitals
 -------------------------------

 Symmetry  1 -- Total occupation in this symmetry is   8.994848121

   2.000000000   2.000000000   1.000000000   1.973134583   1.982492899
   0.012752794   0.026467845

 Symmetry  2 -- Total occupation in this symmetry is   2.999054414

   1.977401591   1.021652823

 Symmetry  3 -- Total occupation in this symmetry is   2.006097464

   1.926971789   0.079125676

 Symmetry  4 -- No occupied orbitals

 (Only coefficients >0.0100 are printed.)

 Molecular orbitals for symmetry species  1
 ------------------------------------------

    Orbital         3        4        5        6        7        8        9
   1 O   :1s     0.0002  -0.0006  -0.0113   0.0243   0.0861  -0.0109  -0.0124
   2 O   :1s    -0.0019  -0.2648   0.0061   0.1651   0.7397   0.0456  -0.0489
   4 O   :1s     0.0005   0.0917  -0.1706   0.2785  -0.0548   0.7421   0.7164
   5 O   :1s     0.0018  -0.0130  -0.0627   0.2307   0.0403   4.3434   3.6433
   6 O   :2pz    0.0016   0.6040  -0.4891  -0.5223  -1.0962   0.0663   0.0286
   7 O   :2pz   -0.0005  -0.0161   0.0197  -0.0150   0.0935  -0.0108  -0.0164
   8 O   :2pz    0.0002  -0.1190   0.1292   0.1258   0.2945  -0.4946  -0.4799
   9 O   :2pz   -0.0003   0.0094   0.0163  -0.0016  -0.0077  -0.7565  -2.1549
  10 O   :3d0   -0.0002  -0.0146   0.0125   0.0113   0.0016  -0.0020  -0.0024
  12 O   :3d0    0.0006  -0.0151   0.0155   0.0473   0.0052   0.0227  -0.0071
  13 O   :3d2+   0.0000   0.0008  -0.0015  -0.0190   0.0070  -0.0000   0.0018
  14 O   :3d0   -0.0005   0.0239  -0.0111   0.0020  -0.0173   0.0735   0.1198
  15 O   :3d2+  -0.0000  -0.0012  -0.0015  -0.0241   0.0103   0.0009  -0.0067
  16 C   :1s    -0.9985  -0.0040  -0.0852   0.5118  -0.0979  -0.0152  -0.0338
  17 C   :1s     0.0026   0.2690   0.8436   0.0142  -0.6096  -0.0983  -0.2111
  18 C   :1s    -0.0019   0.0331   0.1558  -1.2461   0.0534  -0.0180  -0.0414
  19 C   :1s    -0.0025   0.2137  -0.0559   0.4406  -0.1289  -1.8983  -2.1052
  20 C   :1s    -0.0005   0.0181   0.0171  -0.0481  -0.0163  -3.0542  -2.7948
  21 C   :2pz   -0.0084  -1.1105   0.0409   0.3390  -2.1112   0.0439  -0.0132
  22 C   :2pz    0.0057   0.2860  -0.0211  -0.4777   0.7289  -0.1679  -0.1013
  23 C   :2pz    0.0018   0.3499  -0.0354  -0.4703   0.7394  -1.0446  -1.2643
  24 C   :2pz   -0.0002   0.0026   0.0024  -0.0212  -0.0030  -1.6204   0.9655
  25 C   :3d0   -0.0012  -0.0405   0.0174  -0.1774   0.0190  -0.0042  -0.0016
  26 C   :3d2+   0.0000   0.0006  -0.0014   0.1651  -0.0242   0.0024   0.0083
  27 C   :3d0    0.0004   0.0002  -0.0032  -0.1578   0.0207  -0.0702  -0.1478
  28 C   :3d2+  -0.0000   0.0028   0.0020   0.1503  -0.0412   0.0052   0.0198
  29 C   :3d0   -0.0005   0.0064  -0.0012  -0.0535   0.0021  -0.3012   0.0298
  30 C   :3d2+   0.0000   0.0017   0.0023   0.0149  -0.0069   0.0144   0.0512

 Molecular orbitals for symmetry species  2
 ------------------------------------------

    Orbital         1        2        3        4
   1 O   :2px    0.7005  -0.7586  -0.0164  -0.1676
   2 O   :2px    0.0062  -0.0126  -0.0008  -0.0054
   3 O   :2px   -0.0422  -0.0647   0.0491   0.1112
   4 O   :2px   -0.0025  -0.0745  -0.5841   2.8163
   5 O   :3d1+  -0.0126  -0.0056   0.0031  -0.0027
   6 O   :3d1+  -0.0328  -0.0059   0.0014   0.0486
   7 O   :3d1+  -0.0088  -0.0104  -0.0046  -0.2538
   8 C   :2px    0.8638   1.0012  -0.2236  -0.0532
   9 C   :2px   -0.1739  -0.0741   0.0690   0.0344
  10 C   :2px   -0.2069  -0.0194  -0.1600  -0.8849
  11 C   :2px    0.0032   0.0342   1.5559  -1.5855
  12 C   :3d1+   0.0309  -0.0076   0.0013  -0.0010
  13 C   :3d1+   0.0104  -0.0044  -0.0488  -0.0386
  14 C   :3d1+  -0.0083   0.0083   0.1761  -0.5464

 Molecular orbitals for symmetry species  3
 ------------------------------------------

    Orbital         1        2        3        4
   1 O   :2py    0.7452  -0.9367  -0.0463  -0.1312
   2 O   :2py    0.0085   0.0592  -0.0010  -0.0064
   3 O   :2py   -0.0308   0.2409   0.0288   0.1262
   4 O   :2py    0.0057   0.0056  -0.6191   2.7602
   5 O   :3d1-  -0.0131   0.0026   0.0027  -0.0018
   6 O   :3d1-  -0.0368  -0.0043   0.0007   0.0486
   7 O   :3d1-  -0.0121   0.0022  -0.0017  -0.2474
   8 C   :2py    0.7913   1.4658  -0.1570  -0.1092
   9 C   :2py   -0.1695  -0.3505   0.0546   0.0431
  10 C   :2py   -0.2175  -0.4333  -0.1254  -0.9066
  11 C   :2py   -0.0011  -0.0049   1.5634  -1.5160
  12 C   :3d1-   0.0344   0.0152   0.0000   0.0003
  13 C   :3d1-   0.0191   0.0235  -0.0469  -0.0431
  14 C   :3d1-  -0.0056   0.0039   0.1743  -0.5033

 Molecular orbitals for symmetry species  4
 ------------------------------------------

    Orbital         1        2
   1 O   :3d2-  -0.0014  -0.0416
   2 O   :3d2-  -0.0368   0.1047
   3 O   :3d2-   0.0476  -1.2750
   4 C   :3d2-  -0.0397  -0.0191
   5 C   :3d2-   0.1160  -0.0320
   6 C   :3d2-  -1.0784   0.6908

String information written on SIRIUS.STRINGINFO for use by WESTA program

 Printout of CI-coefficients abs greater than 0.05000 for root  1
 *** NOTE: this root is the reference state ***


  Printout of coefficients in interval  0.3162E+00 to 0.1000E+01
  ==============================================================

 Coefficient of determinant      1034 is      0.68020706  6.80207060E-01
 alpha-string:     2  3        6  7  8
  beta-string:  1  2  3        6     8

 Coefficient of determinant      1393 is      0.68020713  6.80207133E-01
 alpha-string:  1  2  3        6     8
  beta-string:     2  3        6  7  8


  Printout of coefficients in interval  0.1000E+00 to 0.3162E+00
  ==============================================================
   ( no coefficients )


  Printout of coefficients in interval  0.5000E-01 to 0.1000E+00
  ==============================================================

 Coefficient of determinant      1125 is     -0.06653840 -6.65384004E-02
 alpha-string:     2  3        6  7     9
  beta-string:  1  2  3           7  8

 Coefficient of determinant      1209 is     -0.09711049 -9.71104910E-02
 alpha-string:     2  3        6  7     9
  beta-string:  1  2  3        6        9

 Coefficient of determinant      1286 is     -0.05565111 -5.56511077E-02
 alpha-string:     2  3        6  7  8
  beta-string:  1  2  3           7     9

 Coefficient of determinant      1411 is     -0.05565111 -5.56511113E-02
 alpha-string:  1  2  3           7     9
  beta-string:     2  3        6  7  8

 Coefficient of determinant      1567 is     -0.06653841 -6.65384070E-02
 alpha-string:  1  2  3           7  8
  beta-string:     2  3        6  7     9

 Coefficient of determinant      1573 is     -0.09711050 -9.71105033E-02
 alpha-string:  1  2  3        6        9
  beta-string:     2  3        6  7     9

 Norm of printed part of CI vector ..      0.95927310

  Magnitude of CI coefficients
  ============================

  ( Ranges are relative to norm of vector :  1.00E+00 )

  10- 1 to 10- 0         2    0.92536339E+00    0.92536339E+00
  10- 2 to 10- 1        90    0.70060686E-01    0.99542407E+00
  10- 3 to 10- 2       376    0.44256946E-02    0.99984977E+00
  10- 4 to 10- 3       810    0.14866653E-03    0.99999843E+00
  10- 5 to 10- 4       546    0.15606650E-05    0.10000000E+01
  10- 6 to 10- 5       120    0.43339843E-08    0.10000000E+01
  10- 7 to 10- 6        12    0.45189968E-11    0.10000000E+01
  10- 8 to 10- 7         4    0.18363949E-13    0.10000000E+01
  Number of coefficients less than 10^-11 times norm is             0



 >>>> Total CPU  time used in SIRIUS :      2.44 seconds
 >>>> Total wall time used in SIRIUS :      2.91 seconds

 
     Date and time (Linux)  : Sun Sep  8 20:38:27 2013
     Host name              : lpqlx131.ups-tlse.fr                    

 NOTE:   11 warnings have been issued.
 Check output, result, and error files for "WARNING".


                     .---------------------------------------.
                     | End of Wave Function Section (SIRIUS) |
                     `---------------------------------------'

 >>>> Total CPU  time used in DALTON:   2.67 seconds
 >>>> Total wall time used in DALTON:   3.15 seconds

 
     Date and time (Linux)  : Sun Sep  8 20:38:27 2013
     Host name              : lpqlx131.ups-tlse.fr                    
