

     ************************************************************************
     *************** Dalton - An Electronic Structure Program ***************
     ************************************************************************

    This is output from DALTON (Release Dalton2013 patch 0)
   ----------------------------------------------------------------------------
    NOTE:
     
    Dalton is an experimental code for the evaluation of molecular
    properties using (MC)SCF, DFT, CI, and CC wave functions.
    The authors accept no responsibility for the performance of
    the code or for the correctness of the results.
     
    The code (in whole or part) is provided under a licence and
    is not to be reproduced for further distribution without
    the written permission of the authors or their representatives.
     
    See the home page "http://daltonprogram.org" for further information.
     
    If results obtained with this code are published,
    the appropriate citations would be both of:
     
       K. Aidas, C. Angeli, K. L. Bak, V. Bakken, R. Bast,
       L. Boman, O. Christiansen, R. Cimiraglia, S. Coriani,
       P. Dahle, E. K. Dalskov, U. Ekstroem, T. Enevoldsen,
       J. J. Eriksen, P. Ettenhuber, B. Fernandez, L. Ferrighi,
       H. Fliegl, L. Frediani, K. Hald, A. Halkier, C. Haettig,
       H. Heiberg, T. Helgaker, A. C. Hennum, H. Hettema,
       E. Hjertenaes, S. Hoest, I.-M. Hoeyvik, M. F. Iozzi,
       B. Jansik, H. J. Aa. Jensen, D. Jonsson, P. Joergensen,
       J. Kauczor, S. Kirpekar, T. Kjaergaard, W. Klopper,
       S. Knecht, R. Kobayashi, H. Koch, J. Kongsted, A. Krapp,
       K. Kristensen, A. Ligabue, O. B. Lutnaes, J. I. Melo,
       K. V. Mikkelsen, R. H. Myhre, C. Neiss, C. B. Nielsen,
       P. Norman, J. Olsen, J. M. H. Olsen, A. Osted,
       M. J. Packer, F. Pawlowski, T. B. Pedersen, P. F. Provasi,
       S. Reine, Z. Rinkevicius, T. A. Ruden, K. Ruud, V. Rybkin,
       P. Salek, C. C. M. Samson, A. Sanchez de Meras, T. Saue,
       S. P. A. Sauer, B. Schimmelpfennig, K. Sneskov,
       A. H. Steindal, K. O. Sylvester-Hvid, P. R. Taylor,
       A. M. Teale, E. I. Tellgren, D. P. Tew, A. J. Thorvaldsen,
       L. Thoegersen, O. Vahtras, M. A. Watson, D. J. D. Wilson,
       M. Ziolkowski and H. Agren.
       The Dalton quantum chemistry program system.
       WIREs Comput. Mol. Sci. 2013. doi: 10.1002/wcms.1172
    
    and
    
       Dalton, a Molecular Electronic Structure Program,
       Release DALTON2013.0 (2013), see http://daltonprogram.org
   ----------------------------------------------------------------------------

    Authors in alphabetical order (major contribution(s) in parenthesis):

  Kestutis Aidas,           Vilnius University,           Lithuania   (QM/MM)
  Celestino Angeli,         University of Ferrara,        Italy       (NEVPT2)
  Keld L. Bak,              UNI-C,                        Denmark     (AOSOPPA, non-adiabatic coupling, magnetic properties)
  Vebjoern Bakken,          University of Oslo,           Norway      (DALTON; geometry optimizer, symmetry detection)
  Radovan Bast,             KTH Stockholm                 Sweden      (DALTON installation and execution frameworks)
  Linus Boman,              NTNU,                         Norway      (Cholesky decomposition and subsystems)
  Ove Christiansen,         Aarhus University,            Denmark     (CC module)
  Renzo Cimiraglia,         University of Ferrara,        Italy       (NEVPT2)
  Sonia Coriani,            University of Trieste,        Italy       (CC module, MCD in RESPONS)
  Paal Dahle,               University of Oslo,           Norway      (Parallelization)
  Erik K. Dalskov,          UNI-C,                        Denmark     (SOPPA)
  Thomas Enevoldsen,        Univ. of Southern Denmark,    Denmark     (SOPPA)
  Janus J. Eriksen,         Aarhus University,            Denmark     (PE-MP2/SOPPA, TDA)
  Berta Fernandez,          U. of Santiago de Compostela, Spain       (doublet spin, ESR in RESPONS)
  Lara Ferrighi,            Aarhus University,            Denmark     (PCM Cubic response)
  Heike Fliegl,             University of Oslo,           Norway      (CCSD(R12))
  Luca Frediani,            UiT The Arctic U. of Norway,  Norway      (PCM)
  Bin Gao,                  UiT The Arctic U. of Norway,  Norway      (Gen1Int library)
  Christof Haettig,         Ruhr-University Bochum,       Germany     (CC module)
  Kasper Hald,              Aarhus University,            Denmark     (CC module)
  Asger Halkier,            Aarhus University,            Denmark     (CC module)
  Hanne Heiberg,            University of Oslo,           Norway      (geometry analysis, selected one-electron integrals)
  Trygve Helgaker,          University of Oslo,           Norway      (DALTON; ABACUS, ERI, DFT modules, London, and much more)
  Alf Christian Hennum,     University of Oslo,           Norway      (Parity violation)
  Hinne Hettema,            University of Auckland,       New Zealand (quadratic response in RESPONS; SIRIUS supersymmetry)
  Eirik Hjertenaes,         NTNU,                         Norway      (Cholesky decomposition)
  Maria Francesca Iozzi,    University of Oslo,           Norway      (RPA)
  Brano Jansik              Technical Univ. of Ostrava    Czech Rep.  (DFT cubic response)
  Hans Joergen Aa. Jensen,  Univ. of Southern Denmark,    Denmark     (DALTON; SIRIUS, RESPONS, ABACUS modules, London, and much more)
  Dan Jonsson,              UiT The Arctic U. of Norway,  Norway      (cubic response in RESPONS module)
  Poul Joergensen,          Aarhus University,            Denmark     (RESPONS, ABACUS, and CC modules)
  Joanna Kauczor,           Linkoeping University,        Sweden      (Complex polarization propagator (CPP) module)
  Sheela Kirpekar,          Univ. of Southern Denmark,    Denmark     (Mass-velocity & Darwin integrals)
  Wim Klopper,              KIT Karlsruhe,                Germany     (R12 code in CC, SIRIUS, and ABACUS modules)
  Stefan Knecht,            ETH Zurich,                   Switzerland (Parallel CI and MCSCF)
  Rika Kobayashi,           Australian National Univ.,    Australia   (DIIS in CC, London in MCSCF)
  Henrik Koch,              NTNU,                         Norway      (CC module, Cholesky decomposition)
  Jacob Kongsted,           Univ. of Southern Denmark,    Denmark     (Polarizable embedding, QM/MM)
  Andrea Ligabue,           University of Modena,         Italy       (CTOCD, AOSOPPA)
  Ola B. Lutnaes,           University of Oslo,           Norway      (DFT Hessian)
  Juan I. Melo,             University of Buenos Aires,   Argentina   (LRESC, Relativistic Effects on NMR Shieldings)
  Kurt V. Mikkelsen,        University of Copenhagen,     Denmark     (MC-SCRF and QM/MM)
  Rolf H. Myhre,            NTNU,                         Norway      (Cholesky, subsystems and ECC2)
  Christian Neiss,          Univ. Erlangen-Nuernberg,     Germany     (CCSD(R12))
  Christian B. Nielsen,     University of Copenhagen,     Denmark     (QM/MM)
  Patrick Norman,           Linkoeping University,        Sweden      (Cubic response and complex response in RESPONS)
  Jeppe Olsen,              Aarhus University,            Denmark     (SIRIUS CI/density modules)
  Jogvan Magnus H. Olsen,   Univ. of Southern Denmark,    Denmark     (Polarizable embedding, PE library, QM/MM)
  Anders Osted,             Copenhagen University,        Denmark     (QM/MM)
  Martin J. Packer,         University of Sheffield,      UK          (SOPPA)
  Filip Pawlowski,          Kazimierz Wielki University   Poland      (CC3)
  Thomas B. Pedersen,       University of Oslo,           Norway      (Cholesky decomposition)
  Patricio F. Provasi,      University of Northeastern,   Argentina   (Analysis of coupling constants in localized orbitals)
  Zilvinas Rinkevicius,     KTH Stockholm,                Sweden      (open-shell DFT, ESR)
  Elias Rudberg,            KTH Stockholm,                Sweden      (DFT grid and basis info)
  Torgeir A. Ruden,         University of Oslo,           Norway      (Numerical derivatives in ABACUS)
  Kenneth Ruud,             UiT The Arctic U. of Norway,  Norway      (DALTON; ABACUS magnetic properties and  much more)
  Pawel Salek,              KTH Stockholm,                Sweden      (DALTON; DFT code)
  Claire C. M. Samson       University of Karlsruhe       Germany     (Boys localization, r12 integrals in ERI)
  Alfredo Sanchez de Meras, University of Valencia,       Spain       (CC module, Cholesky decomposition)
  Trond Saue,               Paul Sabatier University,     France      (direct Fock matrix construction)
  Stephan P. A. Sauer,      University of Copenhagen,     Denmark     (SOPPA(CCSD), SOPPA prop., AOSOPPA, vibrational g-factors)
  Bernd Schimmelpfennig,    Forschungszentrum Karlsruhe,  Germany     (AMFI module)
  Kristian Sneskov,         Aarhus University,            Denmark     (QM/MM, PE-CC)
  Arnfinn H. Steindal,      UiT The Arctic U. of Norway,  Norway      (parallel QM/MM)
  K. O. Sylvester-Hvid,     University of Copenhagen,     Denmark     (MC-SCRF)
  Peter R. Taylor,          VLSCI/Univ. of Melbourne,     Australia   (Symmetry handling ABACUS, integral transformation)
  Andrew M. Teale,          University of Nottingham,     England     (DFT-AC, DFT-D)
  David P. Tew,             University of Bristol,        England     (CCSD(R12))
  Olav Vahtras,             KTH Stockholm,                Sweden      (triplet response, spin-orbit, ESR, TDDFT, open-shell DFT)
  David J. Wilson,          La Trobe University,          Australia   (DFT Hessian and DFT magnetizabilities)
  Hans Agren,               KTH Stockholm,                Sweden      (SIRIUS module, RESPONS, MC-SCRF solvation model)
 --------------------------------------------------------------------------------

     Date and time (Linux)  : Sun Sep  8 20:38:23 2013
     Host name              : lpqlx131.ups-tlse.fr                    

 * Work memory size             :    64000000 =  488.28 megabytes.

 * Directories for basis set searches:
   1) /home/bast/DALTON-2013.0-Source/build/test_energy_corehole
   2) /home/bast/DALTON-2013.0-Source/build/basis


Compilation information
-----------------------

 Who compiled             | bast
 Host                     | lpqlx131.ups-tlse.fr
 System                   | Linux-3.8.5-201.fc18.x86_64
 CMake generator          | Unix Makefiles
 Processor                | x86_64
 64-bit integers          | OFF
 MPI                      | OFF
 Fortran compiler         | /usr/bin/gfortran
 Fortran compiler version | GNU Fortran (GCC) 4.7.2 20121109 (Red Hat 4.7.2-8)
 C compiler               | /usr/bin/gcc
 C compiler version       | gcc (GCC) 4.7.2 20121109 (Red Hat 4.7.2-8)
 C++ compiler             | /usr/bin/g++
 C++ compiler version     | g++ (GCC) 4.7.2 20121109 (Red Hat 4.7.2-8)
 Static linking           | OFF
 Last Git revision        | f34203295a86316e27f9e7b44f9b6769c4a046c0
 Configuration time       | 2013-09-08 20:31:27.952056


   Content of the .dal input file
 ----------------------------------

**DALTON INPUT                                    
.RUN WAVE FUNCTIONS                               
**WAVE FUNCTIONS                                  
.HF                                               
*SCF INPUT                                        
.DOUBLY OCCUPIED                                  
   5 1 1 0                                        
.THRESHOLD                                        
  1.D-04                                          
.NONCANONICAL                                     
*OPTIMIZATION                                     
.NEO ALWAYS                                       
.DETERMIN                                         
**END OF INPUT                                    


   Content of the .mol file
 ----------------------------

INTGRL                                                                         
Calculation of core-hole excitations using both a frozen and a relaxed         
core orbital. This is a three step job                                         
    2    2  X  Y       1.D-15                                                  
       8.     1    3    1    1    1                                            
O   0.000000             0.000000                  2.132                       
   11    5                                                                     
15330.     0.000508   -0.000115 0.000000   0.000000  0.0                       
2299.      0.003929   -0.000895 0.000000   0.000000  0.0                       
522.4      0.020243   -0.004636 0.000000   0.000000  0.0                       
147.3      0.079181   -0.018724 0.000000   0.000000  0.0                       
47.55      0.230687   -0.058463 0.000000   0.000000  0.0                       
16.76      0.433118   -0.136463 0.000000   0.000000  0.0                       
6.207      0.350260   -0.175740 0.000000   0.000000  0.0                       
1.752      0.042728    0.160934 1.000000   0.000000  0.0                       
0.6882     -0.008154   0.603418 0.000000   0.000000  0.0                       
0.2384     0.002381    0.378765 0.000000   1.000000  0.0                       
0.073760   0.0         0.0      0.0        0.0       1.000000                  
    6    4                                                                     
34.46      0.015928    0.000000  0.000000   0.0                                
7.749      0.099740    0.000000  0.000000   0.0                                
2.280      0.310492    0.000000  0.000000   0.0                                
0.7156     0.491026    1.000000  0.000000   0.0                                
0.2140     0.336337    0.000000  1.000000   0.0                                
0.05974    0.0         0.0       0.0        1.000                              
    3    3                                                                     
2.314      1.000000    0.000000   0.0                                          
0.645      0.000000    1.000000   0.0                                          
0.214000   0.0         0.0        1.0000                                       
        6.    1    3    1    1    1                                            
C   0.        0.000000  0.000000                                               
   11    5                                                                     
8236.       0.000531 -0.000113   0.000000   0.000000  0.0                      
1235.       0.004108 -0.000878   0.000000   0.000000  0.0                      
280.8       0.021087 -0.004540   0.000000   0.000000  0.0                      
79.27       0.081853 -0.018133   0.000000   0.000000  0.0                      
25.59       0.234817 -0.055760   0.000000   0.000000  0.0                      
8.997       0.434401 -0.126895   0.000000   0.000000  0.0                      
3.319       0.346129 -0.170352   0.000000   0.000000  0.0                      
0.9059      0.039378 0.140382    1.000000   0.000000  0.0                      
0.3643     -0.008983 0.598684    0.000000   0.000000  0.0                      
0.1285      0.002385 0.395389    0.000000   1.000000  0.0                      
0.04402     0.000000 0.000000    0.000000   0.000000  1.0                      
    6    4                                                                     
18.71      0.014031    0.000000  0.000000  0.0                                 
4.133      0.086866    0.000000  0.000000  0.0                                 
1.200      0.290216    0.000000  0.000000  0.0                                 
0.3827     0.501008    1.000000  0.000000  0.0                                 
0.1209     0.343406    0.000000  1.000000  0.0                                 
0.03569    0.000000    0.000000  0.000000  1.0                                 
    3    3                                                                     
1.097      1.000000    0.000000  0.0                                           
0.318      0.000000    1.000000  0.0                                           
0.100      0.000000    0.000000  1.0                                           


       *******************************************************************
       *********** Output from DALTON general input processing ***********
       *******************************************************************

 --------------------------------------------------------------------------------
   Overall default print level:    0
   Print level for DALTON.STAT:    1

    HERMIT 1- and 2-electron integral sections will be executed
    "Old" integral transformation used (limited to max 255 basis functions)
    Wave function sections will be executed (SIRIUS module)
 --------------------------------------------------------------------------------


   ****************************************************************************
   *************** Output of molecule and basis set information ***************
   ****************************************************************************


    The two title cards from your ".mol" input:
    ------------------------------------------------------------------------
 1: Calculation of core-hole excitations using both a frozen and a relaxed  
 2: core orbital. This is a three step job                                  
    ------------------------------------------------------------------------

  Atomic type no.    1
  --------------------
  Nuclear charge:   8.00000
  Number of symmetry independent centers:    1
  Number of basis sets to read;    2

  Atomic type no.    2
  --------------------
  Nuclear charge:   6.00000
  Number of symmetry independent centers:    1
  Number of basis sets to read;    2


                         SYMGRP: Point group information
                         -------------------------------

Point group: C2v

   * The point group was generated by:

      Reflection in the yz-plane
      Reflection in the xz-plane

   * Group multiplication table

        |  E   C2z  Oxz  Oyz
   -----+--------------------
     E  |  E   C2z  Oxz  Oyz
    C2z | C2z   E   Oyz  Oxz
    Oxz | Oxz  Oyz   E   C2z
    Oyz | Oyz  Oxz  C2z   E 

   * Character table

        |  E   C2z  Oxz  Oyz
   -----+--------------------
    A1  |   1    1    1    1
    B1  |   1   -1    1   -1
    B2  |   1   -1   -1    1
    A2  |   1    1   -1   -1

   * Direct product table

        | A1   B1   B2   A2 
   -----+--------------------
    A1  | A1   B1   B2   A2 
    B1  | B1   A1   A2   B2 
    B2  | B2   A2   A1   B1 
    A2  | A2   B2   B1   A1 


                                 Isotopic Masses
                                 ---------------

                           O          15.994915
                           C          12.000000

                       Total mass:    27.994915 amu
                       Natural abundance:  98.663 %

 Center-of-mass coordinates (a.u.):    0.000000    0.000000    1.218120


  Atoms and basis sets
  --------------------

  Number of atom types :    2
  Total number of atoms:    2

  label    atoms   charge   prim   cont     basis
  ----------------------------------------------------------------------
  O           1    8.0000    44    32      [11s6p3d|5s4p3d]                                   
  C           1    6.0000    44    32      [11s6p3d|5s4p3d]                                   
  ----------------------------------------------------------------------
  total:      2   14.0000    88    64
  ----------------------------------------------------------------------
  Spherical harmonic basis used.

  Threshold for neglecting AO integrals:  1.00D-15


  Cartesian Coordinates (a.u.)
  ----------------------------

  Total number of coordinates:    6
  O       :     1  x   0.0000000000    2  y   0.0000000000    3  z   2.1320000000
  C       :     4  x   0.0000000000    5  y   0.0000000000    6  z   0.0000000000


  Symmetry Coordinates
  --------------------

  Number of coordinates in each symmetry:     2    2    2    0

  Symmetry  A1  ( 1)

    1   O     z    3
    2   C     z    6

  Symmetry  B1  ( 2)

    3   O     x    1
    4   C     x    4

  Symmetry  B2  ( 3)

    5   O     y    2
    6   C     y    5


   Interatomic separations (in Angstrom):
   --------------------------------------

            O           C     
            ------      ------
 O     :    0.000000
 C     :    1.128206    0.000000


  Max    interatomic separation is    1.1282 Angstrom (    2.1320 Bohr)
  between atoms    2 and    1, "C     " and "O     ".

  Min YX interatomic separation is    1.1282 Angstrom (    2.1320 Bohr)


  Bond distances (Angstrom):
  --------------------------

                  atom 1     atom 2       distance
                  ------     ------       --------
  bond distance:  C          O            1.128206




 Principal moments of inertia (u*A**2) and principal axes
 --------------------------------------------------------

   IA       0.000000          0.000000    0.000000    1.000000
   IB       8.726914          0.000000    1.000000    0.000000
   IC       8.726914          1.000000    0.000000    0.000000


 Rotational constants
 --------------------

 The molecule is linear.

               B =        57910.39 MHz     (    1.931683 cm-1)


@  Nuclear repulsion energy :   22.514071294559 Hartree


  Symmetry Orbitals
  -----------------

  Number of orbitals in each symmetry:          30   14   14    6


  Symmetry  A1 ( 1)

    1     O        1s         1
    2     O        1s         2
    3     O        1s         3
    4     O        1s         4
    5     O        1s         5
    6     O        2pz        8
    7     O        2pz       11
    8     O        2pz       14
    9     O        2pz       17
   10     O        3d0       20
   11     O        3d2+      22
   12     O        3d0       25
   13     O        3d2+      27
   14     O        3d0       30
   15     O        3d2+      32
   16     C        1s        33
   17     C        1s        34
   18     C        1s        35
   19     C        1s        36
   20     C        1s        37
   21     C        2pz       40
   22     C        2pz       43
   23     C        2pz       46
   24     C        2pz       49
   25     C        3d0       52
   26     C        3d2+      54
   27     C        3d0       57
   28     C        3d2+      59
   29     C        3d0       62
   30     C        3d2+      64


  Symmetry  B1 ( 2)

   31     O        2px        6
   32     O        2px        9
   33     O        2px       12
   34     O        2px       15
   35     O        3d1+      21
   36     O        3d1+      26
   37     O        3d1+      31
   38     C        2px       38
   39     C        2px       41
   40     C        2px       44
   41     C        2px       47
   42     C        3d1+      53
   43     C        3d1+      58
   44     C        3d1+      63


  Symmetry  B2 ( 3)

   45     O        2py        7
   46     O        2py       10
   47     O        2py       13
   48     O        2py       16
   49     O        3d1-      19
   50     O        3d1-      24
   51     O        3d1-      29
   52     C        2py       39
   53     C        2py       42
   54     C        2py       45
   55     C        2py       48
   56     C        3d1-      51
   57     C        3d1-      56
   58     C        3d1-      61


  Symmetry  A2 ( 4)

   59     O        3d2-      18
   60     O        3d2-      23
   61     O        3d2-      28
   62     C        3d2-      50
   63     C        3d2-      55
   64     C        3d2-      60

  Symmetries of electric field:  B1 (2)  B2 (3)  A1 (1)

  Symmetries of magnetic field:  B2 (3)  B1 (2)  A2 (4)


                     .---------------------------------------.
                     | Starting in Integral Section (HERMIT) |
                     `---------------------------------------'



    *************************************************************************
    ****************** Output from HERMIT input processing ******************
    *************************************************************************



     ************************************************************************
     ************************** Output from HERINT **************************
     ************************************************************************


 Threshold for neglecting two-electron integrals:  1.00D-15
 Number of two-electron integrals written:      474134 ( 21.9% )
 Megabytes written:                              5.434

 >>>  Time used in TWOINT     is   0.20 seconds
 >>>> Total CPU  time used in HERMIT:   0.23 seconds
 >>>> Total wall time used in HERMIT:   0.24 seconds


                        .----------------------------------.
                        | End of Integral Section (HERMIT) |
                        `----------------------------------'



                   .--------------------------------------------.
                   | Starting in Wave Function Section (SIRIUS) |
                   `--------------------------------------------'


 *** Output from Huckel module :

     Using EWMO model:          T
     Using EHT  model:          F
     Number of Huckel orbitals each symmetry:    6    2    2    0

 EWMO - Energy Weighted Maximum Overlap - is a Huckel type method,
        which normally is better than Extended Huckel Theory.
 Reference: Linderberg and Ohrn, Propagators in Quantum Chemistry (Wiley, 1973)

 Huckel EWMO eigenvalues for symmetry :  1
          -20.685999     -11.349525      -1.578830      -0.796795      -0.456115
           -0.137637

 Huckel EWMO eigenvalues for symmetry :  2
           -0.717188      -0.305912

 Huckel EWMO eigenvalues for symmetry :  3
           -0.717188      -0.305912

 **********************************************************************
 *SIRIUS* a direct, restricted step, second order MCSCF program       *
 **********************************************************************

 
     Date and time (Linux)  : Sun Sep  8 20:38:23 2013
     Host name              : lpqlx131.ups-tlse.fr                    

 Title lines from ".mol" input file:
     Calculation of core-hole excitations using both a frozen and a relaxed  
     core orbital. This is a three step job                                  

 Print level on unit LUPRI =   2 is   0
 Print level on unit LUW4  =   2 is   5

@    Restricted, closed shell Hartree-Fock calculation.

 Initial molecular orbitals are obtained according to
 ".MOSTART EWMO  " input option

     Wave function specification
     ============================
@    For the wave function of type :      >>> HF <<<
@    Number of closed shell electrons          14
@    Number of electrons in active shells       0
@    Total charge of the molecule               0

@    Spin multiplicity and 2 M_S                1         0
     Total number of symmetries                 4
@    Reference state symmetry                   1

     Orbital specifications
     ======================
     Abelian symmetry species          All |    1    2    3    4
                                       --- |  ---  ---  ---  ---
@    Occupied SCF orbitals               7 |    5    1    1    0
     Secondary orbitals                 57 |   25   13   13    6
     Total number of orbitals           64 |   30   14   14    6
     Number of basis functions          64 |   30   14   14    6

     Optimization information
     ========================
@    Number of determinants                   1
@    Number of orbital rotations            151
     ------------------------------------------
@    Total number of variables              152

     Maximum number of Fock   iterations      0
     Maximum number of DIIS   iterations     60
     Maximum number of QC-SCF iterations     60
     Threshold for SCF convergence     1.00D-04


 >>>>> DIIS optimization of Hartree-Fock <<<<<

 C1-DIIS algorithm; max error vectors =   10

 Iter      Total energy        Error norm    Delta(E)  DIIS dim.
 -----------------------------------------------------------------------------
     (Precalculated two-electron integrals are transformed to P-supermatrix elements.
      Threshold for discarding integrals :  1.00D-15 )
@  1    -112.496973834        6.25335D+00   -1.12D+02    1
      Virial theorem: -V/T =      2.006207
@      MULPOP O      -0.23; C       0.23; 
 -----------------------------------------------------------------------------
@  2    -112.763748331        5.68889D-01   -2.67D-01    2
      Virial theorem: -V/T =      1.996635
@      MULPOP O      -0.12; C       0.12; 
 -----------------------------------------------------------------------------
@  3    -112.776907306        1.38665D-01   -1.32D-02    3
      Virial theorem: -V/T =      2.001375
@      MULPOP O      -0.26; C       0.26; 
 -----------------------------------------------------------------------------
@  4    -112.777838444        6.02607D-02   -9.31D-04    4
      Virial theorem: -V/T =      2.001559
@      MULPOP O      -0.22; C       0.22; 
 -----------------------------------------------------------------------------
@  5    -112.778027160        2.60852D-02   -1.89D-04    5
      Virial theorem: -V/T =      2.000968
@      MULPOP O      -0.24; C       0.24; 
 -----------------------------------------------------------------------------
@  6    -112.778062073        3.05018D-03   -3.49D-05    6
      Virial theorem: -V/T =      2.001193
@      MULPOP O      -0.24; C       0.24; 
 -----------------------------------------------------------------------------
@  7    -112.778062952        4.66085D-04   -8.79D-07    7
      Virial theorem: -V/T =      2.001195
@      MULPOP O      -0.24; C       0.24; 
 -----------------------------------------------------------------------------
@  8    -112.778062976        1.08380D-04   -2.35D-08    8
      Virial theorem: -V/T =      2.001197
@      MULPOP O      -0.24; C       0.24; 
 -----------------------------------------------------------------------------
@  9    -112.778062977        8.68672D-06   -1.22D-09    9

@ *** DIIS converged in   9 iterations !
@     Converged SCF energy, gradient:   -112.778062976745    8.69D-06
    - total time used in SIRFCK :              0.00 seconds


 *** SCF orbital energy analysis ***

 Only the five lowest virtual orbital energies printed in each symmetry.

 Number of electrons :   14
 Orbital occupations :    5    1    1    0

 Sym       Hartree-Fock orbital energies

  1    -20.66795341   -11.36287124    -1.52514322    -0.80636925    -0.55550899
         0.06996052     0.08808692     0.18649706     0.27383655     0.29789690

  2     -0.64038191     0.07039964     0.15428448     0.20174606     0.42706437
         0.54469411

  3     -0.64038191     0.07039964     0.15428448     0.20174606     0.42706437
         0.54469411

  4      0.29789690     0.73129378     1.05770440     2.17519709     3.39079369


    E(LUMO) :     0.06996052 au (symmetry 1)
  - E(HOMO) :    -0.55550899 au (symmetry 1)
  ------------------------------------------
    gap     :     0.62546951 au

 >>> Writing SIRIFC interface file <<<

 >>>> CPU and wall time for SCF :       0.043       0.043


                       .-----------------------------------.
                       | >>> Final results from SIRIUS <<< |
                       `-----------------------------------'


@    Spin multiplicity:           1
@    Spatial symmetry:            1
@    Total charge of molecule:    0

@    Final HF energy:            -112.778062976745                 
@    Nuclear repulsion:            22.514071294559
@    Electronic energy:          -135.292134271304

@    Final gradient norm:           0.000008686723

 
     Date and time (Linux)  : Sun Sep  8 20:38:24 2013
     Host name              : lpqlx131.ups-tlse.fr                    

 (Only coefficients >0.0100 are printed.)

 Molecular orbitals for symmetry species  1
 ------------------------------------------

    Orbital         1        2        3        4        5        6        7
   1 O   :1s     0.9998   0.0002   0.0112   0.0052  -0.0027   0.0107  -0.0025
   2 O   :1s    -0.0003  -0.0019  -0.8185   0.4757  -0.0731  -0.0588  -0.0429
   4 O   :1s     0.0009   0.0005   0.1096   0.1639   0.0571  -0.8626   0.1372
   5 O   :1s     0.0001   0.0018   0.0246   0.0606   0.0435  -4.7292   0.3482
   6 O   :2pz   -0.0041   0.0016   0.2423   0.7381   0.3782  -0.0698   0.0330
   7 O   :2pz    0.0031  -0.0005  -0.0044  -0.0185  -0.0081   0.0151  -0.0022
   8 O   :2pz    0.0010   0.0002  -0.1113  -0.1196  -0.0621   0.5448  -0.0579
   9 O   :2pz    0.0001  -0.0003  -0.0144  -0.0059  -0.0016   0.9204  -0.7667
  10 O   :3d0    0.0003  -0.0002  -0.0106  -0.0116  -0.0068   0.0020   0.0004
  12 O   :3d0   -0.0003   0.0006  -0.0166  -0.0165  -0.0103  -0.0248  -0.0078
  14 O   :3d0    0.0001  -0.0005   0.0255   0.0127   0.0159  -0.0676   0.0211
  16 C   :1s     0.0003  -0.9985   0.0194   0.0014   0.0052   0.0174  -0.0077
  17 C   :1s     0.0011   0.0026  -0.4212  -0.5726   0.6229  -0.0176   0.1302
  19 C   :1s    -0.0013  -0.0025   0.1240   0.0799   0.1275   1.9889  -0.1584
  20 C   :1s    -0.0001  -0.0005  -0.0036  -0.0082   0.0184   3.7964  -0.9913
  21 C   :2pz    0.0011  -0.0084  -0.3446  -0.2062  -0.7079   0.0807  -0.1224
  22 C   :2pz    0.0003   0.0057   0.0568   0.0288   0.0503   0.1542   0.0358
  23 C   :2pz   -0.0011   0.0018   0.1320   0.0755   0.1224   1.2669  -0.3791
  24 C   :2pz   -0.0000  -0.0002   0.0014  -0.0006  -0.0025   1.2397   1.3529
  25 C   :3d0    0.0001  -0.0012  -0.0276  -0.0164  -0.0216  -0.0001   0.0036
  27 C   :3d0    0.0004   0.0004  -0.0092  -0.0040  -0.0137   0.0903  -0.0611
  29 C   :3d0   -0.0003  -0.0005   0.0118   0.0011   0.0030   0.2644   0.1361

 Molecular orbitals for symmetry species  2
 ------------------------------------------

    Orbital         1        2        3
   1 O   :2px    0.7916  -0.2259   0.3413
   2 O   :2px    0.0130  -0.0053   0.0090
   3 O   :2px   -0.0028  -0.0512   0.2394
   4 O   :2px    0.0167  -0.7362   0.5116
   5 O   :3d1+  -0.0114  -0.0003   0.0073
   6 O   :3d1+  -0.0367  -0.0044   0.0187
   7 O   :3d1+  -0.0077   0.0138  -0.0820
   8 C   :2px    0.4464   0.1600  -0.6644
   9 C   :2px   -0.0268   0.0341   0.0192
  10 C   :2px   -0.0934   0.0622  -0.7754
  11 C   :2px   -0.0009   1.4662   0.4018
  12 C   :3d1+   0.0304  -0.0048   0.0153
  13 C   :3d1+   0.0293  -0.0350  -0.0560
  14 C   :3d1+  -0.0042   0.1397   0.0845

 Molecular orbitals for symmetry species  3
 ------------------------------------------

    Orbital         1        2        3
   1 O   :2py    0.7916  -0.2259   0.3413
   2 O   :2py    0.0130  -0.0053   0.0090
   3 O   :2py   -0.0028  -0.0512   0.2394
   4 O   :2py    0.0167  -0.7362   0.5116
   5 O   :3d1-  -0.0114  -0.0003   0.0073
   6 O   :3d1-  -0.0367  -0.0044   0.0187
   7 O   :3d1-  -0.0077   0.0138  -0.0820
   8 C   :2py    0.4464   0.1600  -0.6644
   9 C   :2py   -0.0268   0.0341   0.0192
  10 C   :2py   -0.0934   0.0622  -0.7754
  11 C   :2py   -0.0009   1.4662   0.4018
  12 C   :3d1-   0.0304  -0.0048   0.0153
  13 C   :3d1-   0.0293  -0.0350  -0.0560
  14 C   :3d1-  -0.0042   0.1397   0.0845

 Molecular orbitals for symmetry species  4
 ------------------------------------------

    Orbital         1        2
   1 O   :3d2-  -0.0009  -0.0420
   2 O   :3d2-  -0.0385   0.1098
   3 O   :3d2-   0.0709  -1.2668
   4 C   :3d2-  -0.0358  -0.0174
   5 C   :3d2-   0.1003  -0.0653
   6 C   :3d2-  -1.0829   0.6881



 >>>> Total CPU  time used in SIRIUS :      0.05 seconds
 >>>> Total wall time used in SIRIUS :      0.05 seconds

 
     Date and time (Linux)  : Sun Sep  8 20:38:24 2013
     Host name              : lpqlx131.ups-tlse.fr                    


                     .---------------------------------------.
                     | End of Wave Function Section (SIRIUS) |
                     `---------------------------------------'

 >>>> Total CPU  time used in DALTON:   0.29 seconds
 >>>> Total wall time used in DALTON:   0.29 seconds

 
     Date and time (Linux)  : Sun Sep  8 20:38:24 2013
     Host name              : lpqlx131.ups-tlse.fr                    
