

     ************************************************************************
     *************** Dalton - An Electronic Structure Program ***************
     ************************************************************************

    This is output from DALTON (Release Dalton2013 patch 0)
   ----------------------------------------------------------------------------
    NOTE:
     
    Dalton is an experimental code for the evaluation of molecular
    properties using (MC)SCF, DFT, CI, and CC wave functions.
    The authors accept no responsibility for the performance of
    the code or for the correctness of the results.
     
    The code (in whole or part) is provided under a licence and
    is not to be reproduced for further distribution without
    the written permission of the authors or their representatives.
     
    See the home page "http://daltonprogram.org" for further information.
     
    If results obtained with this code are published,
    the appropriate citations would be both of:
     
       K. Aidas, C. Angeli, K. L. Bak, V. Bakken, R. Bast,
       L. Boman, O. Christiansen, R. Cimiraglia, S. Coriani,
       P. Dahle, E. K. Dalskov, U. Ekstroem, T. Enevoldsen,
       J. J. Eriksen, P. Ettenhuber, B. Fernandez, L. Ferrighi,
       H. Fliegl, L. Frediani, K. Hald, A. Halkier, C. Haettig,
       H. Heiberg, T. Helgaker, A. C. Hennum, H. Hettema,
       E. Hjertenaes, S. Hoest, I.-M. Hoeyvik, M. F. Iozzi,
       B. Jansik, H. J. Aa. Jensen, D. Jonsson, P. Joergensen,
       J. Kauczor, S. Kirpekar, T. Kjaergaard, W. Klopper,
       S. Knecht, R. Kobayashi, H. Koch, J. Kongsted, A. Krapp,
       K. Kristensen, A. Ligabue, O. B. Lutnaes, J. I. Melo,
       K. V. Mikkelsen, R. H. Myhre, C. Neiss, C. B. Nielsen,
       P. Norman, J. Olsen, J. M. H. Olsen, A. Osted,
       M. J. Packer, F. Pawlowski, T. B. Pedersen, P. F. Provasi,
       S. Reine, Z. Rinkevicius, T. A. Ruden, K. Ruud, V. Rybkin,
       P. Salek, C. C. M. Samson, A. Sanchez de Meras, T. Saue,
       S. P. A. Sauer, B. Schimmelpfennig, K. Sneskov,
       A. H. Steindal, K. O. Sylvester-Hvid, P. R. Taylor,
       A. M. Teale, E. I. Tellgren, D. P. Tew, A. J. Thorvaldsen,
       L. Thoegersen, O. Vahtras, M. A. Watson, D. J. D. Wilson,
       M. Ziolkowski and H. Agren.
       The Dalton quantum chemistry program system.
       WIREs Comput. Mol. Sci. 2013. doi: 10.1002/wcms.1172
    
    and
    
       Dalton, a Molecular Electronic Structure Program,
       Release DALTON2013.0 (2013), see http://daltonprogram.org
   ----------------------------------------------------------------------------

    Authors in alphabetical order (major contribution(s) in parenthesis):

  Kestutis Aidas,           Vilnius University,           Lithuania   (QM/MM)
  Celestino Angeli,         University of Ferrara,        Italy       (NEVPT2)
  Keld L. Bak,              UNI-C,                        Denmark     (AOSOPPA, non-adiabatic coupling, magnetic properties)
  Vebjoern Bakken,          University of Oslo,           Norway      (DALTON; geometry optimizer, symmetry detection)
  Radovan Bast,             KTH Stockholm                 Sweden      (DALTON installation and execution frameworks)
  Linus Boman,              NTNU,                         Norway      (Cholesky decomposition and subsystems)
  Ove Christiansen,         Aarhus University,            Denmark     (CC module)
  Renzo Cimiraglia,         University of Ferrara,        Italy       (NEVPT2)
  Sonia Coriani,            University of Trieste,        Italy       (CC module, MCD in RESPONS)
  Paal Dahle,               University of Oslo,           Norway      (Parallelization)
  Erik K. Dalskov,          UNI-C,                        Denmark     (SOPPA)
  Thomas Enevoldsen,        Univ. of Southern Denmark,    Denmark     (SOPPA)
  Janus J. Eriksen,         Aarhus University,            Denmark     (PE-MP2/SOPPA, TDA)
  Berta Fernandez,          U. of Santiago de Compostela, Spain       (doublet spin, ESR in RESPONS)
  Lara Ferrighi,            Aarhus University,            Denmark     (PCM Cubic response)
  Heike Fliegl,             University of Oslo,           Norway      (CCSD(R12))
  Luca Frediani,            UiT The Arctic U. of Norway,  Norway      (PCM)
  Bin Gao,                  UiT The Arctic U. of Norway,  Norway      (Gen1Int library)
  Christof Haettig,         Ruhr-University Bochum,       Germany     (CC module)
  Kasper Hald,              Aarhus University,            Denmark     (CC module)
  Asger Halkier,            Aarhus University,            Denmark     (CC module)
  Hanne Heiberg,            University of Oslo,           Norway      (geometry analysis, selected one-electron integrals)
  Trygve Helgaker,          University of Oslo,           Norway      (DALTON; ABACUS, ERI, DFT modules, London, and much more)
  Alf Christian Hennum,     University of Oslo,           Norway      (Parity violation)
  Hinne Hettema,            University of Auckland,       New Zealand (quadratic response in RESPONS; SIRIUS supersymmetry)
  Eirik Hjertenaes,         NTNU,                         Norway      (Cholesky decomposition)
  Maria Francesca Iozzi,    University of Oslo,           Norway      (RPA)
  Brano Jansik              Technical Univ. of Ostrava    Czech Rep.  (DFT cubic response)
  Hans Joergen Aa. Jensen,  Univ. of Southern Denmark,    Denmark     (DALTON; SIRIUS, RESPONS, ABACUS modules, London, and much more)
  Dan Jonsson,              UiT The Arctic U. of Norway,  Norway      (cubic response in RESPONS module)
  Poul Joergensen,          Aarhus University,            Denmark     (RESPONS, ABACUS, and CC modules)
  Joanna Kauczor,           Linkoeping University,        Sweden      (Complex polarization propagator (CPP) module)
  Sheela Kirpekar,          Univ. of Southern Denmark,    Denmark     (Mass-velocity & Darwin integrals)
  Wim Klopper,              KIT Karlsruhe,                Germany     (R12 code in CC, SIRIUS, and ABACUS modules)
  Stefan Knecht,            ETH Zurich,                   Switzerland (Parallel CI and MCSCF)
  Rika Kobayashi,           Australian National Univ.,    Australia   (DIIS in CC, London in MCSCF)
  Henrik Koch,              NTNU,                         Norway      (CC module, Cholesky decomposition)
  Jacob Kongsted,           Univ. of Southern Denmark,    Denmark     (Polarizable embedding, QM/MM)
  Andrea Ligabue,           University of Modena,         Italy       (CTOCD, AOSOPPA)
  Ola B. Lutnaes,           University of Oslo,           Norway      (DFT Hessian)
  Juan I. Melo,             University of Buenos Aires,   Argentina   (LRESC, Relativistic Effects on NMR Shieldings)
  Kurt V. Mikkelsen,        University of Copenhagen,     Denmark     (MC-SCRF and QM/MM)
  Rolf H. Myhre,            NTNU,                         Norway      (Cholesky, subsystems and ECC2)
  Christian Neiss,          Univ. Erlangen-Nuernberg,     Germany     (CCSD(R12))
  Christian B. Nielsen,     University of Copenhagen,     Denmark     (QM/MM)
  Patrick Norman,           Linkoeping University,        Sweden      (Cubic response and complex response in RESPONS)
  Jeppe Olsen,              Aarhus University,            Denmark     (SIRIUS CI/density modules)
  Jogvan Magnus H. Olsen,   Univ. of Southern Denmark,    Denmark     (Polarizable embedding, PE library, QM/MM)
  Anders Osted,             Copenhagen University,        Denmark     (QM/MM)
  Martin J. Packer,         University of Sheffield,      UK          (SOPPA)
  Filip Pawlowski,          Kazimierz Wielki University   Poland      (CC3)
  Thomas B. Pedersen,       University of Oslo,           Norway      (Cholesky decomposition)
  Patricio F. Provasi,      University of Northeastern,   Argentina   (Analysis of coupling constants in localized orbitals)
  Zilvinas Rinkevicius,     KTH Stockholm,                Sweden      (open-shell DFT, ESR)
  Elias Rudberg,            KTH Stockholm,                Sweden      (DFT grid and basis info)
  Torgeir A. Ruden,         University of Oslo,           Norway      (Numerical derivatives in ABACUS)
  Kenneth Ruud,             UiT The Arctic U. of Norway,  Norway      (DALTON; ABACUS magnetic properties and  much more)
  Pawel Salek,              KTH Stockholm,                Sweden      (DALTON; DFT code)
  Claire C. M. Samson       University of Karlsruhe       Germany     (Boys localization, r12 integrals in ERI)
  Alfredo Sanchez de Meras, University of Valencia,       Spain       (CC module, Cholesky decomposition)
  Trond Saue,               Paul Sabatier University,     France      (direct Fock matrix construction)
  Stephan P. A. Sauer,      University of Copenhagen,     Denmark     (SOPPA(CCSD), SOPPA prop., AOSOPPA, vibrational g-factors)
  Bernd Schimmelpfennig,    Forschungszentrum Karlsruhe,  Germany     (AMFI module)
  Kristian Sneskov,         Aarhus University,            Denmark     (QM/MM, PE-CC)
  Arnfinn H. Steindal,      UiT The Arctic U. of Norway,  Norway      (parallel QM/MM)
  K. O. Sylvester-Hvid,     University of Copenhagen,     Denmark     (MC-SCRF)
  Peter R. Taylor,          VLSCI/Univ. of Melbourne,     Australia   (Symmetry handling ABACUS, integral transformation)
  Andrew M. Teale,          University of Nottingham,     England     (DFT-AC, DFT-D)
  David P. Tew,             University of Bristol,        England     (CCSD(R12))
  Olav Vahtras,             KTH Stockholm,                Sweden      (triplet response, spin-orbit, ESR, TDDFT, open-shell DFT)
  David J. Wilson,          La Trobe University,          Australia   (DFT Hessian and DFT magnetizabilities)
  Hans Agren,               KTH Stockholm,                Sweden      (SIRIUS module, RESPONS, MC-SCRF solvation model)
 --------------------------------------------------------------------------------

     Date and time (Linux)  : Sun Sep  8 20:38:22 2013
     Host name              : lpqlx131.ups-tlse.fr                    

 * Work memory size             :    64000000 =  488.28 megabytes.

 * Directories for basis set searches:
   1) /home/bast/DALTON-2013.0-Source/build/test_energy_stex
   2) /home/bast/DALTON-2013.0-Source/build/basis


Compilation information
-----------------------

 Who compiled             | bast
 Host                     | lpqlx131.ups-tlse.fr
 System                   | Linux-3.8.5-201.fc18.x86_64
 CMake generator          | Unix Makefiles
 Processor                | x86_64
 64-bit integers          | OFF
 MPI                      | OFF
 Fortran compiler         | /usr/bin/gfortran
 Fortran compiler version | GNU Fortran (GCC) 4.7.2 20121109 (Red Hat 4.7.2-8)
 C compiler               | /usr/bin/gcc
 C compiler version       | gcc (GCC) 4.7.2 20121109 (Red Hat 4.7.2-8)
 C++ compiler             | /usr/bin/g++
 C++ compiler version     | g++ (GCC) 4.7.2 20121109 (Red Hat 4.7.2-8)
 Static linking           | OFF
 Last Git revision        | f34203295a86316e27f9e7b44f9b6769c4a046c0
 Configuration time       | 2013-09-08 20:31:27.952056


   Content of the .dal input file
 ----------------------------------

**DALTON INPUT                                    
.RUN RESPONSE                                     
.DIRECT                                           
**INTEGRALS                                       
.DIPLEN                                           
.PRINT                                            
1                                                 
**WAVE FUNCTIONS                                  
.HF                                               
.INTERFACE                                        
*ORBITAL                                          
.NOSUPSYM                                         
**RESPONSE                                        
.PROPAV                                           
XDIPLEN                                           
.PROPAV                                           
YDIPLEN                                           
.PROPAV                                           
ZDIPLEN                                           
*END OF INPUT                                     


   Content of the .mol file
 ----------------------------

INTGRL                                                                         
base CCATZ (gaussiane sferiche)  , nessuna simmetria                           
                                                                               
    2    0                                                                     
        6.    1    3    1    1    1                                            
C      0.0000 0.0000 0.00000                                                   
F  11    5    0                                                                
8236.      0.000531   -0.000113   0.000000   0.000000  0.0                     
1235.      0.004108   -0.000878   0.000000   0.000000  0.0                     
280.8      0.021087   -0.004540   0.000000   0.000000  0.0                     
79.27      0.081853   -0.018133   0.000000   0.000000  0.0                     
25.59      0.234817   -0.055760   0.000000   0.000000  0.0                     
8.997      0.434401   -0.126895   0.000000   0.000000  0.0                     
3.319      0.346129   -0.170352   0.000000   0.000000  0.0                     
0.9059     0.039378    0.140382   1.000000   0.000000  0.0                     
0.3643    -0.008983    0.598684   0.000000   0.000000  0.0                     
0.1285     0.002385    0.395389   0.000000   1.000000  0.0                     
0.04402    0.000000    0.000000   0.000000   0.000000  1.0                     
F   6    4    0                                                                
18.71      0.014031    0.000000   0.000000  0.0                                
4.133      0.086866    0.000000   0.000000  0.0                                
1.200      0.290216    0.000000   0.000000  0.0                                
0.3827     0.501008    1.000000   0.000000  0.0                                
0.1209     0.343406    0.000000   1.000000  0.0                                
0.03569    0.000000    0.000000   0.000000  1.0                                
F   3    3    0                                                                
1.097      1.000000    0.000000  0.0                                           
0.318      0.000000    1.000000  0.0                                           
0.100      0.000000    0.000000  1.0                                           
        8.    1    3    1    1    1                                            
O      0.0000 0.0000 2.13200                                                   
F  11    5    0                                                                
15330.     0.000508   -0.000115   0.000000   0.000000  0.0                     
2299.      0.003929   -0.000895   0.000000   0.000000  0.0                     
522.4      0.020243   -0.004636   0.000000   0.000000  0.0                     
147.3      0.079181   -0.018724   0.000000   0.000000  0.0                     
47.55      0.230687   -0.058463   0.000000   0.000000  0.0                     
16.76      0.433118   -0.136463   0.000000   0.000000  0.0                     
6.207      0.350260   -0.175740   0.000000   0.000000  0.0                     
1.752      0.042728    0.160934   1.000000   0.000000  0.0                     
0.6882    -0.008154    0.603418   0.000000   0.000000  0.0                     
0.2384     0.002381    0.378765   0.000000   1.000000  0.0                     
0.073760   0.0         0.0        0.0        0.0       1.000000                
F   6    4    0                                                                
34.46      0.015928    0.000000   0.000000   0.0                               
7.749      0.099740    0.000000   0.000000   0.0                               
2.280      0.310492    0.000000   0.000000   0.0                               
0.7156     0.491026    1.000000   0.000000   0.0                               
0.2140     0.336337    0.000000   1.000000   0.0                               
0.05974    0.0         0.0        0.0        1.000000                          
F   3    3    0                                                                
2.314      1.000000    0.000000   0.0                                          
0.645      0.000000    1.000000   0.0                                          
0.214000   0.0         0.0        1.000000                                     


       *******************************************************************
       *********** Output from DALTON general input processing ***********
       *******************************************************************

 --------------------------------------------------------------------------------
   Overall default print level:    0
   Print level for DALTON.STAT:    1

    AO-direct calculation (in sections where implemented)
    HERMIT 1- and 2-electron integral sections will be executed
    "Old" integral transformation used (limited to max 255 basis functions)
    Wave function sections will be executed (SIRIUS module)
    Dynamic molecular response properties section will be executed (RESPONSE module)
 --------------------------------------------------------------------------------


   ****************************************************************************
   *************** Output of molecule and basis set information ***************
   ****************************************************************************


    The two title cards from your ".mol" input:
    ------------------------------------------------------------------------
 1: base CCATZ (gaussiane sferiche)  , nessuna simmetria                    
 2:                                                                         
    ------------------------------------------------------------------------

  Atomic type no.    1
  --------------------
  Nuclear charge:   6.00000
  Number of symmetry independent centers:    1
  Number of basis sets to read;    2

  Atomic type no.    2
  --------------------
  Nuclear charge:   8.00000
  Number of symmetry independent centers:    1
  Number of basis sets to read;    2


                         SYMGRP: Point group information
                         -------------------------------

Point group: C1 


                                 Isotopic Masses
                                 ---------------

                           C          12.000000
                           O          15.994915

                       Total mass:    27.994915 amu
                       Natural abundance:  98.663 %

 Center-of-mass coordinates (a.u.):    0.000000    0.000000    1.218120


  Atoms and basis sets
  --------------------

  Number of atom types :    2
  Total number of atoms:    2

  label    atoms   charge   prim   cont     basis
  ----------------------------------------------------------------------
  C           1    6.0000    44    32      [11s6p3d|5s4p3d]                                   
  O           1    8.0000    44    32      [11s6p3d|5s4p3d]                                   
  ----------------------------------------------------------------------
  total:      2   14.0000    88    64
  ----------------------------------------------------------------------
  Spherical harmonic basis used.

  Threshold for neglecting AO integrals:  1.00D-12


  Cartesian Coordinates (a.u.)
  ----------------------------

  Total number of coordinates:    6
  C       :     1  x   0.0000000000    2  y   0.0000000000    3  z   0.0000000000
  O       :     4  x   0.0000000000    5  y   0.0000000000    6  z   2.1320000000


   Interatomic separations (in Angstrom):
   --------------------------------------

            C           O     
            ------      ------
 C     :    0.000000
 O     :    1.128206    0.000000


  Max    interatomic separation is    1.1282 Angstrom (    2.1320 Bohr)
  between atoms    2 and    1, "O     " and "C     ".

  Min YX interatomic separation is    1.1282 Angstrom (    2.1320 Bohr)


  Bond distances (Angstrom):
  --------------------------

                  atom 1     atom 2       distance
                  ------     ------       --------
  bond distance:  O          C            1.128206




 Principal moments of inertia (u*A**2) and principal axes
 --------------------------------------------------------

   IA       0.000000          0.000000    0.000000    1.000000
   IB       8.726914          0.000000    1.000000    0.000000
   IC       8.726914          1.000000    0.000000    0.000000


 Rotational constants
 --------------------

 The molecule is linear.

               B =        57910.39 MHz     (    1.931683 cm-1)


@  Nuclear repulsion energy :   22.514071294559 Hartree


                     .---------------------------------------.
                     | Starting in Integral Section (HERMIT) |
                     `---------------------------------------'



    *************************************************************************
    ****************** Output from HERMIT input processing ******************
    *************************************************************************


 Default print level:        1

 * Nuclear model: Point charge

 Calculation of one-electron Hamiltonian integrals.

 The following one-electron property integrals are calculated as requested:
          - overlap integrals
          - dipole length integrals

 Center of mass  (bohr):      0.000000000000      0.000000000000      1.218119747104
 Operator center (bohr):      0.000000000000      0.000000000000      0.000000000000
 Gauge origin    (bohr):      0.000000000000      0.000000000000      0.000000000000
 Dipole origin   (bohr):      0.000000000000      0.000000000000      0.000000000000


     ************************************************************************
     ************************** Output from HERINT **************************
     ************************************************************************

 >>>> Total CPU  time used in HERMIT:   0.05 seconds
 >>>> Total wall time used in HERMIT:   0.05 seconds


                        .----------------------------------.
                        | End of Integral Section (HERMIT) |
                        `----------------------------------'



                   .--------------------------------------------.
                   | Starting in Wave Function Section (SIRIUS) |
                   `--------------------------------------------'


 *** Output from Huckel module :

     Using EWMO model:          T
     Using EHT  model:          F
     Number of Huckel orbitals each symmetry:   10

 EWMO - Energy Weighted Maximum Overlap - is a Huckel type method,
        which normally is better than Extended Huckel Theory.
 Reference: Linderberg and Ohrn, Propagators in Quantum Chemistry (Wiley, 1973)

 Huckel EWMO eigenvalues for symmetry :  1
          -20.685999     -11.349525      -1.578830      -0.796795      -0.717188
           -0.717188      -0.456115      -0.305912      -0.305912      -0.137637

 **********************************************************************
 *SIRIUS* a direct, restricted step, second order MCSCF program       *
 **********************************************************************

 
     Date and time (Linux)  : Sun Sep  8 20:38:22 2013
     Host name              : lpqlx131.ups-tlse.fr                    

 Title lines from ".mol" input file:
     base CCATZ (gaussiane sferiche)  , nessuna simmetria                    
                                                                             

 Print level on unit LUPRI =   2 is   0
 Print level on unit LUW4  =   2 is   5

@    Restricted, closed shell Hartree-Fock calculation.

@    Time-dependent Hartree-Fock calculation (random phase approximation).
 Fock matrices are calculated directly without use of integrals on disk.

 Initial molecular orbitals are obtained according to
 ".MOSTART EWMO  " input option

     Wave function specification
     ============================
@    For the wave function of type :      >>> HF <<<
@    Number of closed shell electrons          14
@    Number of electrons in active shells       0
@    Total charge of the molecule               0

@    Spin multiplicity and 2 M_S                1         0
     Total number of symmetries                 1
@    Reference state symmetry                   1

     Orbital specifications
     ======================
     Abelian symmetry species          All |    1
                                       --- |  ---
@    Occupied SCF orbitals               7 |    7
     Secondary orbitals                 57 |   57
     Total number of orbitals           64 |   64
     Number of basis functions          64 |   64

     Optimization information
     ========================
@    Number of configurations                 1
@    Number of orbital rotations            399
     ------------------------------------------
@    Total number of variables              400

     Maximum number of Fock   iterations      0
     Maximum number of DIIS   iterations     60
     Maximum number of QC-SCF iterations     60
     Threshold for SCF convergence     1.00D-05


 >>>>> DIIS optimization of Hartree-Fock <<<<<

 C1-DIIS algorithm; max error vectors =   10

 Iter      Total energy        Error norm    Delta(E)  DIIS dim.
 -----------------------------------------------------------------------------
   1  Screening settings (-IFTHRS, DIFDEN)   -7    T
@  1    -112.497593738        2.26586D+00   -1.12D+02    1
      Virial theorem: -V/T =      2.005460
@      MULPOP C       0.25; O      -0.25; 
 -----------------------------------------------------------------------------
   2  Screening settings (-IFTHRS, DIFDEN)   -7    T
@  2    -112.763824839        5.69188D-01   -2.66D-01    2
      Virial theorem: -V/T =      1.997391
@      MULPOP C       0.11; O      -0.11; 
 -----------------------------------------------------------------------------
   3  Screening settings (-IFTHRS, DIFDEN)   -7    T
@  3    -112.777037922        1.23420D-01   -1.32D-02    3
      Virial theorem: -V/T =      2.001342
@      MULPOP C       0.24; O      -0.24; 
 -----------------------------------------------------------------------------
   4  Screening settings (-IFTHRS, DIFDEN)  -11    F
@  4    -112.777877235        7.37475D-02   -8.39D-04    4
      Virial theorem: -V/T =      2.002309
@      MULPOP C       0.21; O      -0.21; 
 -----------------------------------------------------------------------------
   5  Screening settings (-IFTHRS, DIFDEN)  -11    T
@  5    -112.778126692        1.60015D-02   -2.49D-04    5
      Virial theorem: -V/T =      2.001560
@      MULPOP C       0.23; O      -0.23; 
 -----------------------------------------------------------------------------
   6  Screening settings (-IFTHRS, DIFDEN)  -11    T
@  6    -112.778143504        3.33389D-03   -1.68D-05    6
      Virial theorem: -V/T =      2.001683
@      MULPOP C       0.23; O      -0.23; 
 -----------------------------------------------------------------------------
   7  Screening settings (-IFTHRS, DIFDEN)  -11    T
@  7    -112.778144435        5.38057D-04   -9.31D-07    7
      Virial theorem: -V/T =      2.001692
@      MULPOP C       0.23; O      -0.23; 
 -----------------------------------------------------------------------------
   8  Screening settings (-IFTHRS, DIFDEN)  -11    T
@  8    -112.778144462        8.40725D-05   -2.69D-08    8
      Virial theorem: -V/T =      2.001695
@      MULPOP C       0.23; O      -0.23; 
 -----------------------------------------------------------------------------
   9  Screening settings (-IFTHRS, DIFDEN)  -11    T
@  9    -112.778144463        8.91791D-06   -9.25D-10    9

@ *** DIIS converged in   9 iterations !
@     Converged SCF energy, gradient:   -112.778144462693    8.92D-06
    - total time used in SIRFCK :              0.00 seconds


 *** SCF orbital energy analysis ***

 Only the five lowest virtual orbital energies printed in each symmetry.

 Number of electrons :   14
 Orbital occupations :    7

 Sym       Hartree-Fock orbital energies

  1    -20.66980276   -11.36293045    -1.52505374    -0.80641156    -0.64040749
        -0.64040749    -0.55554140     0.06996097     0.07039211     0.07039211
         0.08807757     0.15427980

    E(LUMO) :     0.06996097 au (symmetry 1)
  - E(HOMO) :    -0.55554140 au (symmetry 1)
  ------------------------------------------
    gap     :     0.62550238 au

 >>> Writing SIRIFC interface file <<<

 >>>> CPU and wall time for SCF :       1.900       1.917


                       .-----------------------------------.
                       | >>> Final results from SIRIUS <<< |
                       `-----------------------------------'


@    Spin multiplicity:           1
@    Spatial symmetry:            1
@    Total charge of molecule:    0

@    Final HF energy:            -112.778144462693                 
@    Nuclear repulsion:            22.514071294559
@    Electronic energy:          -135.292215757252

@    Final gradient norm:           0.000008917906

 
     Date and time (Linux)  : Sun Sep  8 20:38:24 2013
     Host name              : lpqlx131.ups-tlse.fr                    

 (Only coefficients >0.0100 are printed.)

 Molecular orbitals for symmetry species  1
 ------------------------------------------

    Orbital         3        4        5        6        7        8        9
   1 C   :1s    -0.0199  -0.0015  -0.0000  -0.0000   0.0052   0.0172   0.0000
   2 C   :1s     0.4196   0.5719   0.0000   0.0000   0.6228  -0.0185   0.0000
   4 C   :1s    -0.1179  -0.0779   0.0000   0.0000   0.1284   1.9901  -0.0000
   5 C   :1s     0.0051   0.0087   0.0000   0.0000   0.0186   3.7969  -0.0000
   6 C   :2px    0.0000   0.0000  -0.1003   0.4349  -0.0000  -0.0000   0.1598
   7 C   :2py   -0.0000  -0.0000   0.4349   0.1003   0.0000  -0.0000   0.0100
   8 C   :2pz    0.3441   0.2060  -0.0000  -0.0000  -0.7080   0.0805   0.0000
   9 C   :2px   -0.0000  -0.0000   0.0060  -0.0261   0.0000   0.0000   0.0340
  10 C   :2py    0.0000   0.0000  -0.0261  -0.0060  -0.0000   0.0000   0.0021
  11 C   :2pz   -0.0577  -0.0292   0.0000   0.0000   0.0502   0.1536   0.0000
  12 C   :2px   -0.0000  -0.0000   0.0210  -0.0910   0.0000   0.0000   0.0621
  13 C   :2py    0.0000  -0.0000  -0.0910  -0.0210  -0.0000   0.0000   0.0039
  14 C   :2pz   -0.1281  -0.0741   0.0000   0.0000   0.1229   1.2682  -0.0000
  15 C   :2px    0.0000   0.0000   0.0002  -0.0008  -0.0000  -0.0000   1.4632
  16 C   :2py   -0.0000  -0.0000  -0.0008  -0.0002   0.0000  -0.0000   0.0912
  17 C   :2pz   -0.0011   0.0007   0.0000  -0.0000  -0.0025   1.2393   0.0000
  19 C   :3d1-   0.0000   0.0000   0.0296   0.0068  -0.0000   0.0000  -0.0003
  20 C   :3d0    0.0270   0.0162   0.0000   0.0000  -0.0217  -0.0004   0.0000
  21 C   :3d1+  -0.0000   0.0000  -0.0068   0.0296   0.0000  -0.0000  -0.0047
  24 C   :3d1-  -0.0000  -0.0000   0.0286   0.0066   0.0000  -0.0000  -0.0022
  25 C   :3d0    0.0087   0.0038   0.0000   0.0000  -0.0138   0.0901   0.0000
  26 C   :3d1+   0.0000   0.0000  -0.0066   0.0286  -0.0000  -0.0000  -0.0349
  30 C   :3d0   -0.0105  -0.0006  -0.0000  -0.0000   0.0033   0.2649  -0.0000
  31 C   :3d1+  -0.0000  -0.0000   0.0009  -0.0041   0.0000   0.0000   0.1394
  33 O   :1s    -0.0054  -0.0031  -0.0000   0.0000  -0.0020   0.0128  -0.0000
  34 O   :1s     0.8324  -0.4709  -0.0000  -0.0000  -0.0712  -0.0537  -0.0000
  36 O   :1s    -0.1228  -0.1685  -0.0000  -0.0000   0.0553  -0.8669  -0.0000
  37 O   :1s    -0.0277  -0.0616  -0.0000  -0.0000   0.0430  -4.7294   0.0000
  38 O   :2px   -0.0000  -0.0000  -0.1779   0.7715   0.0000   0.0000  -0.2255
  39 O   :2py    0.0000  -0.0000   0.7715   0.1779  -0.0000   0.0000  -0.0141
  40 O   :2pz   -0.2418  -0.7381  -0.0000  -0.0000   0.3783  -0.0697   0.0000
  41 O   :2px    0.0000   0.0000  -0.0029   0.0126  -0.0000  -0.0000  -0.0052
  42 O   :2py   -0.0000   0.0000   0.0126   0.0029   0.0000  -0.0000  -0.0003
  43 O   :2pz    0.0029   0.0181   0.0000   0.0000  -0.0083   0.0146  -0.0000
  44 O   :2px    0.0000   0.0000   0.0007  -0.0028   0.0000  -0.0000  -0.0511
  46 O   :2pz    0.1129   0.1202   0.0000   0.0000  -0.0619   0.5449  -0.0000
  47 O   :2px   -0.0000  -0.0000  -0.0037   0.0162  -0.0000   0.0000  -0.7347
  48 O   :2py    0.0000  -0.0000   0.0162   0.0037  -0.0000   0.0000  -0.0458
  49 O   :2pz    0.0146   0.0060  -0.0000  -0.0000  -0.0016   0.9204   0.0000
  51 O   :3d1-   0.0000  -0.0000  -0.0111  -0.0026  -0.0000   0.0000  -0.0000
  52 O   :3d0    0.0106   0.0116  -0.0000  -0.0000  -0.0068   0.0020   0.0000
  53 O   :3d1+  -0.0000  -0.0000   0.0026  -0.0111  -0.0000   0.0000  -0.0003
  56 O   :3d1-  -0.0000   0.0000  -0.0357  -0.0082   0.0000  -0.0000  -0.0003
  57 O   :3d0    0.0171   0.0166   0.0000   0.0000  -0.0103  -0.0246  -0.0000
  58 O   :3d1+   0.0000   0.0000   0.0082  -0.0357   0.0000  -0.0000  -0.0044
  62 O   :3d0   -0.0259  -0.0129  -0.0000  -0.0000   0.0158  -0.0677  -0.0000
  63 O   :3d1+  -0.0000  -0.0000   0.0017  -0.0075  -0.0000   0.0000   0.0138



 >>>> Total CPU  time used in SIRIUS :      1.92 seconds
 >>>> Total wall time used in SIRIUS :      1.93 seconds

 
     Date and time (Linux)  : Sun Sep  8 20:38:24 2013
     Host name              : lpqlx131.ups-tlse.fr                    


                     .---------------------------------------.
                     | End of Wave Function Section (SIRIUS) |
                     `---------------------------------------'



                 .------------------------------------------------.
                 | Starting in Dynamic Property Section (RESPONS) |
                 `------------------------------------------------'


 ------------------------------------------------------------------------------
  RESPONSE  -  an MCSCF, MC-srDFT, DFT, and SOPPA response property program
 ------------------------------------------------------------------------------


 <<<<<<<<<< OUTPUT FROM RESPONSE INPUT PROCESSING >>>>>>>>>>




 CHANGES OF DEFAULTS FOR RSPINP:
 -------------------------------


 AO-direct Fock matrix calculations.

 Default : Using Fock type decoupling of the two-electron density matrix :
    Add DV*(FC+FV) instead of DV*FC to E[2] approximate orbital diagonal



   SCF energy         :     -112.778144462692637
 -- inactive part     :     -135.292215757251739
 -- nuclear repulsion :       22.514071294559098


                     ***************************************
                     *** RHF response calculation (TDHF) ***
                     ***************************************



             Calculation of electronic one-electron expectation values
            ----------------------------------------------------------

 (Note that to get e.g. a dipole moment you must multiply the
  electronic number by -1 and add the nuclear contribution.)

 *** Individual non-zero orbital contributions
 *** to the expectation value for property XDIPLEN  :

     Inactive       1  1 in sym 1 :     0.00000000
     Inactive       2  2 in sym 1 :    -0.00000000
     Inactive       3  3 in sym 1 :    -0.00000000
     Inactive       4  4 in sym 1 :     0.00000000
     Inactive       5  5 in sym 1 :     0.00000000
     Inactive       6  6 in sym 1 :     0.00000000
     Inactive       7  7 in sym 1 :    -0.00000000

     XDIPLEN  inactive part:-1.39114976D-15
     XDIPLEN  active part  : 0.00000000D+00
     XDIPLEN  total        :-1.39114976D-15

 *** Individual non-zero orbital contributions
 *** to the expectation value for property YDIPLEN  :

     Inactive       1  1 in sym 1 :    -0.00000000
     Inactive       2  2 in sym 1 :    -0.00000000
     Inactive       3  3 in sym 1 :     0.00000000
     Inactive       4  4 in sym 1 :     0.00000000
     Inactive       5  5 in sym 1 :    -0.00000000
     Inactive       6  6 in sym 1 :     0.00000000
     Inactive       7  7 in sym 1 :     0.00000000

     YDIPLEN  inactive part: 3.54832536D-15
     YDIPLEN  active part  : 0.00000000D+00
     YDIPLEN  total        : 3.54832536D-15

 *** Individual non-zero orbital contributions
 *** to the expectation value for property ZDIPLEN  :

     Inactive       1  1 in sym 1 :     4.26339924
     Inactive       2  2 in sym 1 :     0.00152427
     Inactive       3  3 in sym 1 :     3.09870939
     Inactive       4  4 in sym 1 :     4.30960302
     Inactive       5  5 in sym 1 :     3.24573055
     Inactive       6  6 in sym 1 :     3.24573055
     Inactive       7  7 in sym 1 :    -1.00539545

     ZDIPLEN  inactive part:    17.15930157
     ZDIPLEN  active part  :     0.00000000
     ZDIPLEN  total        :    17.15930157

 >>>> Total CPU  time used in RESPONSE:   0.00 seconds
 >>>> Total wall time used in RESPONSE:   0.00 seconds


                   .-------------------------------------------.
                   | End of Dynamic Property Section (RESPONS) |
                   `-------------------------------------------'

 >>>> Total CPU  time used in DALTON:   1.98 seconds
 >>>> Total wall time used in DALTON:   2.00 seconds

 
     Date and time (Linux)  : Sun Sep  8 20:38:24 2013
     Host name              : lpqlx131.ups-tlse.fr                    
