

     ************************************************************************
     *************** Dalton - An Electronic Structure Program ***************
     ************************************************************************

    This is output from DALTON (Release Dalton2013 patch 0)
   ----------------------------------------------------------------------------
    NOTE:
     
    Dalton is an experimental code for the evaluation of molecular
    properties using (MC)SCF, DFT, CI, and CC wave functions.
    The authors accept no responsibility for the performance of
    the code or for the correctness of the results.
     
    The code (in whole or part) is provided under a licence and
    is not to be reproduced for further distribution without
    the written permission of the authors or their representatives.
     
    See the home page "http://daltonprogram.org" for further information.
     
    If results obtained with this code are published,
    the appropriate citations would be both of:
     
       K. Aidas, C. Angeli, K. L. Bak, V. Bakken, R. Bast,
       L. Boman, O. Christiansen, R. Cimiraglia, S. Coriani,
       P. Dahle, E. K. Dalskov, U. Ekstroem, T. Enevoldsen,
       J. J. Eriksen, P. Ettenhuber, B. Fernandez, L. Ferrighi,
       H. Fliegl, L. Frediani, K. Hald, A. Halkier, C. Haettig,
       H. Heiberg, T. Helgaker, A. C. Hennum, H. Hettema,
       E. Hjertenaes, S. Hoest, I.-M. Hoeyvik, M. F. Iozzi,
       B. Jansik, H. J. Aa. Jensen, D. Jonsson, P. Joergensen,
       J. Kauczor, S. Kirpekar, T. Kjaergaard, W. Klopper,
       S. Knecht, R. Kobayashi, H. Koch, J. Kongsted, A. Krapp,
       K. Kristensen, A. Ligabue, O. B. Lutnaes, J. I. Melo,
       K. V. Mikkelsen, R. H. Myhre, C. Neiss, C. B. Nielsen,
       P. Norman, J. Olsen, J. M. H. Olsen, A. Osted,
       M. J. Packer, F. Pawlowski, T. B. Pedersen, P. F. Provasi,
       S. Reine, Z. Rinkevicius, T. A. Ruden, K. Ruud, V. Rybkin,
       P. Salek, C. C. M. Samson, A. Sanchez de Meras, T. Saue,
       S. P. A. Sauer, B. Schimmelpfennig, K. Sneskov,
       A. H. Steindal, K. O. Sylvester-Hvid, P. R. Taylor,
       A. M. Teale, E. I. Tellgren, D. P. Tew, A. J. Thorvaldsen,
       L. Thoegersen, O. Vahtras, M. A. Watson, D. J. D. Wilson,
       M. Ziolkowski and H. Aagren,
       "The Dalton quantum chemistry program system",
       WIREs Comput. Mol. Sci. 2013. (doi: 10.1002/wcms.1172)
    
    and
    
       Dalton, a Molecular Electronic Structure Program,
       Release DALTON2013.0 (2013), see http://daltonprogram.org
   ----------------------------------------------------------------------------

    Authors in alphabetical order (major contribution(s) in parenthesis):

  Kestutis Aidas,           Vilnius University,           Lithuania   (QM/MM)
  Celestino Angeli,         University of Ferrara,        Italy       (NEVPT2)
  Keld L. Bak,              UNI-C,                        Denmark     (AOSOPPA, non-adiabatic coupling, magnetic properties)
  Vebjoern Bakken,          University of Oslo,           Norway      (DALTON; geometry optimizer, symmetry detection)
  Radovan Bast,             KTH Stockholm                 Sweden      (DALTON installation and execution frameworks)
  Linus Boman,              NTNU,                         Norway      (Cholesky decomposition and subsystems)
  Ove Christiansen,         Aarhus University,            Denmark     (CC module)
  Renzo Cimiraglia,         University of Ferrara,        Italy       (NEVPT2)
  Sonia Coriani,            University of Trieste,        Italy       (CC module, MCD in RESPONS)
  Paal Dahle,               University of Oslo,           Norway      (Parallelization)
  Erik K. Dalskov,          UNI-C,                        Denmark     (SOPPA)
  Thomas Enevoldsen,        Univ. of Southern Denmark,    Denmark     (SOPPA)
  Janus J. Eriksen,         Aarhus University,            Denmark     (PE-MP2/SOPPA, TDA)
  Berta Fernandez,          U. of Santiago de Compostela, Spain       (doublet spin, ESR in RESPONS)
  Lara Ferrighi,            Aarhus University,            Denmark     (PCM Cubic response)
  Heike Fliegl,             University of Oslo,           Norway      (CCSD(R12))
  Luca Frediani,            UiT The Arctic U. of Norway,  Norway      (PCM)
  Bin Gao,                  UiT The Arctic U. of Norway,  Norway      (Gen1Int library)
  Christof Haettig,         Ruhr-University Bochum,       Germany     (CC module)
  Kasper Hald,              Aarhus University,            Denmark     (CC module)
  Asger Halkier,            Aarhus University,            Denmark     (CC module)
  Hanne Heiberg,            University of Oslo,           Norway      (geometry analysis, selected one-electron integrals)
  Trygve Helgaker,          University of Oslo,           Norway      (DALTON; ABACUS, ERI, DFT modules, London, and much more)
  Alf Christian Hennum,     University of Oslo,           Norway      (Parity violation)
  Hinne Hettema,            University of Auckland,       New Zealand (quadratic response in RESPONS; SIRIUS supersymmetry)
  Eirik Hjertenaes,         NTNU,                         Norway      (Cholesky decomposition)
  Maria Francesca Iozzi,    University of Oslo,           Norway      (RPA)
  Brano Jansik              Technical Univ. of Ostrava    Czech Rep.  (DFT cubic response)
  Hans Joergen Aa. Jensen,  Univ. of Southern Denmark,    Denmark     (DALTON; SIRIUS, RESPONS, ABACUS modules, London, and much more)
  Dan Jonsson,              UiT The Arctic U. of Norway,  Norway      (cubic response in RESPONS module)
  Poul Joergensen,          Aarhus University,            Denmark     (RESPONS, ABACUS, and CC modules)
  Joanna Kauczor,           Linkoeping University,        Sweden      (Complex polarization propagator (CPP) module)
  Sheela Kirpekar,          Univ. of Southern Denmark,    Denmark     (Mass-velocity & Darwin integrals)
  Wim Klopper,              KIT Karlsruhe,                Germany     (R12 code in CC, SIRIUS, and ABACUS modules)
  Stefan Knecht,            ETH Zurich,                   Switzerland (Parallel CI and MCSCF)
  Rika Kobayashi,           Australian National Univ.,    Australia   (DIIS in CC, London in MCSCF)
  Henrik Koch,              NTNU,                         Norway      (CC module, Cholesky decomposition)
  Jacob Kongsted,           Univ. of Southern Denmark,    Denmark     (Polarizable embedding, QM/MM)
  Andrea Ligabue,           University of Modena,         Italy       (CTOCD, AOSOPPA)
  Ola B. Lutnaes,           University of Oslo,           Norway      (DFT Hessian)
  Juan I. Melo,             University of Buenos Aires,   Argentina   (LRESC, Relativistic Effects on NMR Shieldings)
  Kurt V. Mikkelsen,        University of Copenhagen,     Denmark     (MC-SCRF and QM/MM)
  Rolf H. Myhre,            NTNU,                         Norway      (Cholesky, subsystems and ECC2)
  Christian Neiss,          Univ. Erlangen-Nuernberg,     Germany     (CCSD(R12))
  Christian B. Nielsen,     University of Copenhagen,     Denmark     (QM/MM)
  Patrick Norman,           Linkoeping University,        Sweden      (Cubic response and complex response in RESPONS)
  Jeppe Olsen,              Aarhus University,            Denmark     (SIRIUS CI/density modules)
  Jogvan Magnus H. Olsen,   Univ. of Southern Denmark,    Denmark     (Polarizable embedding, PE library, QM/MM)
  Anders Osted,             Copenhagen University,        Denmark     (QM/MM)
  Martin J. Packer,         University of Sheffield,      UK          (SOPPA)
  Filip Pawlowski,          Kazimierz Wielki University   Poland      (CC3)
  Thomas B. Pedersen,       University of Oslo,           Norway      (Cholesky decomposition)
  Patricio F. Provasi,      University of Northeastern,   Argentina   (Analysis of coupling constants in localized orbitals)
  Zilvinas Rinkevicius,     KTH Stockholm,                Sweden      (open-shell DFT, ESR)
  Elias Rudberg,            KTH Stockholm,                Sweden      (DFT grid and basis info)
  Torgeir A. Ruden,         University of Oslo,           Norway      (Numerical derivatives in ABACUS)
  Kenneth Ruud,             UiT The Arctic U. of Norway,  Norway      (DALTON; ABACUS magnetic properties and  much more)
  Pawel Salek,              KTH Stockholm,                Sweden      (DALTON; DFT code)
  Claire C. M. Samson       University of Karlsruhe       Germany     (Boys localization, r12 integrals in ERI)
  Alfredo Sanchez de Meras, University of Valencia,       Spain       (CC module, Cholesky decomposition)
  Trond Saue,               Paul Sabatier University,     France      (direct Fock matrix construction)
  Stephan P. A. Sauer,      University of Copenhagen,     Denmark     (SOPPA(CCSD), SOPPA prop., AOSOPPA, vibrational g-factors)
  Bernd Schimmelpfennig,    Forschungszentrum Karlsruhe,  Germany     (AMFI module)
  Kristian Sneskov,         Aarhus University,            Denmark     (QM/MM, PE-CC)
  Arnfinn H. Steindal,      UiT The Arctic U. of Norway,  Norway      (parallel QM/MM)
  K. O. Sylvester-Hvid,     University of Copenhagen,     Denmark     (MC-SCRF)
  Peter R. Taylor,          VLSCI/Univ. of Melbourne,     Australia   (Symmetry handling ABACUS, integral transformation)
  Andrew M. Teale,          University of Nottingham,     England     (DFT-AC, DFT-D)
  David P. Tew,             University of Bristol,        England     (CCSD(R12))
  Olav Vahtras,             KTH Stockholm,                Sweden      (triplet response, spin-orbit, ESR, TDDFT, open-shell DFT)
  David J. Wilson,          La Trobe University,          Australia   (DFT Hessian and DFT magnetizabilities)
  Hans Agren,               KTH Stockholm,                Sweden      (SIRIUS module, RESPONS, MC-SCRF solvation model)
 --------------------------------------------------------------------------------

     Date and time (Linux)  : Mon Oct 21 14:56:10 2013
     Host name              : c10-6.local                             

 * Work memory size             :    64000000 =  488.28 megabytes.

 * Directories for basis set searches:
   1) /home/arnfinn/release_dalton/DALTON/test/2013-10-21T14_56-testjob-pid-49953
   2) /home/arnfinn/release_dalton/build-RB-intel12.1.2-release/basis


Compilation information
-----------------------

 Who compiled             | arnfinn
 Host                     | stallo-2.local
 System                   | Linux-2.6.32-358.6.2.el6.x86_64
 CMake generator          | Unix Makefiles
 Processor                | x86_64
 64-bit integers          | OFF
 MPI                      | OFF
 Fortran compiler         | /global/apps/intel/composer_xe_2011_sp1.8.273/bin/
                          | intel64/ifort
 C compiler               | /global/apps/intel/composer_xe_2011_sp1.8.273/bin/
                          | intel64/icc
 C compiler version       | icc (ICC) 13.0.1 20121010
 C++ compiler             | /global/apps/intel/composer_xe_2011_sp1.8.273/bin/
                          | intel64/icpc
 C++ compiler version     | icpc (ICC) 13.0.1 20121010
 BLAS                     | -Wl,--start-group;/global/apps/intel/2013.1/mkl/li
                          | b/intel64/libmkl_core.so;/global/apps/intel/2013.1
                          | /mkl/lib/intel64/libmkl_intel_lp64.so;/global/apps
                          | /intel/2013.1/mkl/lib/intel64/libmkl_sequential.so
                          | ;/usr/lib64/libpthread.so;/usr/lib64/libm.so;-open
                          | mp;-Wl,--end-group
 LAPACK                   | -Wl,--start-group;/global/apps/intel/2013.1/mkl/li
                          | b/intel64/libmkl_lapack95_lp64.a;/global/apps/inte
                          | l/2013.1/mkl/lib/intel64/libmkl_intel_lp64.so;-ope
                          | nmp;-Wl,--end-group
 Static linking           | OFF
 Last Git revision        | 9e5bb7f558e1ee66d0614a37cb4fb8c71086ba4e
 Configuration time       | 2013-10-15 12:56:50.249803


   Content of the .dal input file
 ----------------------------------

**DALTON INPUT                                    
.OPTIMIZE                                         
*OPTIMIZE                                         
.2NDORDER                                         
**WAVE FUNCTIONS                                  
.HF                                               
**PROPERTIES                                      
.VIBANA                                           
**END OF DALTON INPUT                             


   Content of the .mol file
 ----------------------------

BASIS                                                                          
cc-pVDZ                                                                        
Geometry optimization (2nd order) with automatic breaking of symmetry          
                                                                               
Atomtypes=2 Angstrom Generators=2   X YZ                                       
Atoms=1 Charge=8.0                                                             
O     0.0  0.73 0.0                                                            
Charge=1.0 Atoms=1                                                             
H     0.0 0.73 0.95                                                            


       *******************************************************************
       *********** Output from DALTON general input processing ***********
       *******************************************************************

 --------------------------------------------------------------------------------
   Overall default print level:    0
   Print level for DALTON.STAT:    1

    "Old" integral transformation used (limited to max 255 basis functions)
 --------------------------------------------------------------------------------


 Chosen parameters for *OPTIMI :
 -------------------------------

 Default 2nd order method will be used:   Newton method.
 Optimization will be performed in Cartesian coordinates.
 
 
 Trust region method will be used to control step (default).
 
 Convergence threshold for gradient set to :      1.00D-04
 Convergence threshold for energy set to   :      1.00D-06
 Convergence threshold for step set to     :      1.00D-04
 Number of convergence criteria set to     :   2


              >>>>>>>>>>>>>>>>>>>>>>>>>>>>>>>>>>>>>>>>>>>>>>>>>>>>>
              >>>>>>>>>> 2nd Order Geometry Optimization >>>>>>>>>>
              >>>>>>>>>>>>>>>>>>>>>>>>>>>>>>>>>>>>>>>>>>>>>>>>>>>>>

 Reading .mol file to determine number of atoms for parallel runs.


   ****************************************************************************
   *************** Output of molecule and basis set information ***************
   ****************************************************************************


    The two title cards from your ".mol" input:
    ------------------------------------------------------------------------
 1: Geometry optimization (2nd order) with automatic breaking of symmetry   
 2:                                                                         
    ------------------------------------------------------------------------

  Coordinates are entered in Angstrom and converted to atomic units.
          - Conversion factor : 1 bohr = 0.52917721 A

  Atomic type no.    1
  --------------------
  Nuclear charge:   8.00000
  Number of symmetry independent centers:    1
  Number of basis sets to read;    2
  Basis set file used for this atomic type with Z =   8 :
     "/home/arnfinn/release_dalton/build-RB-intel12.1.2-release/basis/cc-pVDZ"

  Atomic type no.    2
  --------------------
  Nuclear charge:   1.00000
  Number of symmetry independent centers:    1
  Number of basis sets to read;    2
  Basis set file used for this atomic type with Z =   1 :
     "/home/arnfinn/release_dalton/build-RB-intel12.1.2-release/basis/cc-pVDZ"


                         SYMGRP: Point group information
                         -------------------------------

Point group: C2h

   * The point group was generated by:

      Reflection in the yz-plane
      Rotation about the x-axis

   * Group multiplication table

        |  E   C2x   i   Oyz
   -----+--------------------
     E  |  E   C2x   i   Oyz
    C2x | C2x   E   Oyz   i 
     i  |  i   Oyz   E   C2x
    Oyz | Oyz   i   C2x   E 

   * Character table

        |  E   C2x   i   Oyz
   -----+--------------------
    Ag  |   1    1    1    1
    Au  |   1    1   -1   -1
    Bu  |   1   -1   -1    1
    Bg  |   1   -1    1   -1

   * Direct product table

        | Ag   Au   Bu   Bg 
   -----+--------------------
    Ag  | Ag   Au   Bu   Bg 
    Au  | Au   Ag   Bg   Bu 
    Bu  | Bu   Bg   Ag   Au 
    Bg  | Bg   Bu   Au   Ag 


                                 Isotopic Masses
                                 ---------------

                           O   _1     15.994915
                           O   _2     15.994915
                           H   _1      1.007825
                           H   _2      1.007825

                       Total mass:    34.005480 amu
                       Natural abundance:  99.491 %

 Center-of-mass coordinates (a.u.):    0.000000    0.000000    0.000000


  Atoms and basis sets
  --------------------

  Number of atom types :    2
  Total number of atoms:    4

  Basis set used is "cc-pVDZ" from the basis set library.

  label    atoms   charge   prim   cont     basis
  ----------------------------------------------------------------------
  O           2    8.0000    26    14      [9s4p1d|3s2p1d]                                    
  H           2    1.0000     7     5      [4s1p|2s1p]                                        
  ----------------------------------------------------------------------
  total:      4   18.0000    66    38
  ----------------------------------------------------------------------
  Spherical harmonic basis used.

  Threshold for neglecting AO integrals:  1.00D-12


  Cartesian Coordinates (a.u.)
  ----------------------------

  Total number of coordinates:   12
  O   / 1 :     1  x   0.0000000000    2  y   1.3795000712    3  z   0.0000000000
  O   / 2 :     4  x   0.0000000000    5  y  -1.3795000712    6  z   0.0000000000
  H   / 1 :     7  x   0.0000000000    8  y   1.3795000712    9  z   1.7952398187
  H   / 2 :    10  x   0.0000000000   11  y  -1.3795000712   12  z  -1.7952398187


  Symmetry Coordinates
  --------------------

  Number of coordinates in each symmetry:     4    2    4    2

  Symmetry  Ag  ( 1)

    1   O     y    [  2  -    5 ]/2
    2   O     z    [  3  -    6 ]/2
    3   H     y    [  8  -   11 ]/2
    4   H     z    [  9  -   12 ]/2

  Symmetry  Au  ( 2)

    5   O     x    [  1  +    4 ]/2
    6   H     x    [  7  +   10 ]/2

  Symmetry  Bu  ( 3)

    7   O     y    [  2  +    5 ]/2
    8   O     z    [  3  +    6 ]/2
    9   H     y    [  8  +   11 ]/2
   10   H     z    [  9  +   12 ]/2

  Symmetry  Bg  ( 4)

   11   O     x    [  1  -    4 ]/2
   12   H     x    [  7  -   10 ]/2


   Interatomic separations (in Angstrom):
   --------------------------------------

            O   _1      O   _2      H   _1      H   _2
            ------      ------      ------      ------
 O   _1:    0.000000
 O   _2:    1.460000    0.000000
 H   _1:    0.950000    1.741867    0.000000
 H   _2:    1.741867    0.950000    2.396164    0.000000


  Max    interatomic separation is    2.3962 Angstrom (    4.5281 Bohr)
  between atoms    4 and    3, "H   _2" and "H   _1".

  Min HX interatomic separation is    0.9500 Angstrom (    1.7952 Bohr)

  Min YX interatomic separation is    1.4600 Angstrom (    2.7590 Bohr)


  Bond distances (Angstrom):
  --------------------------

                  atom 1     atom 2       distance
                  ------     ------       --------
  bond distance:  O   _2     O   _1       1.460000
  bond distance:  H   _1     O   _1       0.950000
  bond distance:  H   _2     O   _2       0.950000


  Bond angles (degrees):
  ----------------------

                  atom 1     atom 2     atom 3         angle
                  ------     ------     ------         -----
  bond angle:     O   _2     O   _1     H   _1        90.000
  bond angle:     O   _1     O   _2     H   _2        90.000




 Principal moments of inertia (u*A**2) and principal axes
 --------------------------------------------------------

   IA       1.700133          0.000000    0.996397    0.084817
   IB      18.240511          0.000000   -0.084817    0.996397
   IC      19.940644          1.000000    0.000000    0.000000


 Rotational constants
 --------------------

 The molecule is planar.

               A                   B                   C

         297258.4533          27706.4060          25344.1662 MHz
            9.915475            0.924186            0.845390 cm-1


@  Nuclear repulsion energy :   37.190893345464 Hartree


  Symmetry Orbitals
  -----------------

  Number of orbitals in each symmetry:          14    5   14    5


  Symmetry  Ag ( 1)

    1     O        1s         1 +    2
    2     O        1s         3 +    4
    3     O        1s         5 +    6
    4     O        2py        9 -   10
    5     O        2pz       11 -   12
    6     O        2py       15 -   16
    7     O        2pz       17 -   18
    8     O        3d1-      21 +   22
    9     O        3d0       23 +   24
   10     O        3d2+      27 +   28
   11     H        1s        29 +   30
   12     H        1s        31 +   32
   13     H        2py       35 -   36
   14     H        2pz       37 -   38


  Symmetry  Au ( 2)

   15     O        2px        7 +    8
   16     O        2px       13 +   14
   17     O        3d2-      19 -   20
   18     O        3d1+      25 -   26
   19     H        2px       33 +   34


  Symmetry  Bu ( 3)

   20     O        1s         1 -    2
   21     O        1s         3 -    4
   22     O        1s         5 -    6
   23     O        2py        9 +   10
   24     O        2pz       11 +   12
   25     O        2py       15 +   16
   26     O        2pz       17 +   18
   27     O        3d1-      21 -   22
   28     O        3d0       23 -   24
   29     O        3d2+      27 -   28
   30     H        1s        29 -   30
   31     H        1s        31 -   32
   32     H        2py       35 +   36
   33     H        2pz       37 +   38


  Symmetry  Bg ( 4)

   34     O        2px        7 -    8
   35     O        2px       13 -   14
   36     O        3d2-      19 +   20
   37     O        3d1+      25 +   26
   38     H        2px       33 -   34

  Symmetries of electric field:  Au (2)  Bu (3)  Bu (3)

  Symmetries of magnetic field:  Ag (1)  Bg (4)  Bg (4)


                     .---------------------------------------.
                     | Starting in Integral Section (HERMIT) |
                     `---------------------------------------'



    *************************************************************************
    ****************** Output from HERMIT input processing ******************
    *************************************************************************



     ************************************************************************
     ************************** Output from HERINT **************************
     ************************************************************************


 Threshold for neglecting two-electron integrals:  1.00D-12
 Number of two-electron integrals written:       62919 ( 22.9% )
 Megabytes written:                              0.721

 >>>> Total CPU  time used in HERMIT:   0.06 seconds
 >>>> Total wall time used in HERMIT:   0.06 seconds


                        .----------------------------------.
                        | End of Integral Section (HERMIT) |
                        `----------------------------------'



                   .--------------------------------------------.
                   | Starting in Wave Function Section (SIRIUS) |
                   `--------------------------------------------'


 *** Output from Huckel module :

     Using EWMO model:          F
     Using EHT  model:          T
     Number of Huckel orbitals each symmetry:    5    1    5    1

 Huckel EHT eigenvalues for symmetry :  1
          -20.703404      -1.665954      -0.666514      -0.592042      -0.284414

 Huckel EHT eigenvalues for symmetry :  2
           -0.691189

 Huckel EHT eigenvalues for symmetry :  3
          -20.693073      -1.221539      -0.798811      -0.445495      -0.256155

 Huckel EHT eigenvalues for symmetry :  4
           -0.541211

 **********************************************************************
 *SIRIUS* a direct, restricted step, second order MCSCF program       *
 **********************************************************************

 
     Date and time (Linux)  : Mon Oct 21 14:56:11 2013
     Host name              : c10-6.local                             

 Title lines from ".mol" input file:
     Geometry optimization (2nd order) with automatic breaking of symmetry   
                                                                             

 Print level on unit LUPRI =   2 is   0
 Print level on unit LUW4  =   2 is   5

@    Restricted, closed shell Hartree-Fock calculation.

 Initial molecular orbitals are obtained according to
 ".MOSTART EHT   " input option

     Wave function specification
     ============================
@    For the wave function of type :      >>> HF <<<
@    Number of closed shell electrons          18
@    Number of electrons in active shells       0
@    Total charge of the molecule               0

@    Spin multiplicity and 2 M_S                1         0
     Total number of symmetries                 4
@    Reference state symmetry                   1

     Orbital specifications
     ======================
     Abelian symmetry species          All |    1    2    3    4
                                       --- |  ---  ---  ---  ---
     Total number of orbitals           38 |   14    5   14    5
     Number of basis functions          38 |   14    5   14    5

      ** Automatic occupation of RHF orbitals **

      -- Initial occupation of symmetries is determined from extended Huckel guess.           
      -- Initial occupation of symmetries is :
@    Occupied SCF orbitals               9 |    4    1    3    1

     Maximum number of Fock   iterations      0
     Maximum number of DIIS   iterations     60
     Maximum number of QC-SCF iterations     60
     Threshold for SCF convergence     1.00D-05


 >>>>> DIIS optimization of Hartree-Fock <<<<<

 C1-DIIS algorithm; max error vectors =    5

 Automatic occupation of symmetries with  18 electrons.

 Iter     Total energy    Error norm  Delta(E)    SCF occupation
 -----------------------------------------------------------------------------
     (Precalculated two-electron integrals are transformed to P-supermatrix elements.
      Threshold for discarding integrals :  1.00D-12 )
@  1  -150.423516419       2.85D+00  -1.50D+02     4   1   3   1
      Virial theorem: -V/T =      2.000251
@      MULPOP O   _1 -0.21; O   _2 -0.21; H   _1  0.21; H   _2  0.21; 
 -----------------------------------------------------------------------------
@  2  -150.761376560       4.93D-01  -3.38D-01     4   1   3   1
      Virial theorem: -V/T =      1.997901
@      MULPOP O   _1 -0.18; O   _2 -0.18; H   _1  0.18; H   _2  0.18; 
 -----------------------------------------------------------------------------
@  3  -150.774107509       1.37D-01  -1.27D-02     4   1   3   1
      Virial theorem: -V/T =      2.001444
@      MULPOP O   _1 -0.18; O   _2 -0.18; H   _1  0.18; H   _2  0.18; 
 -----------------------------------------------------------------------------
@  4  -150.775346791       4.64D-02  -1.24D-03     4   1   3   1
      Virial theorem: -V/T =      1.999579
@      MULPOP O   _1 -0.20; O   _2 -0.20; H   _1  0.20; H   _2  0.20; 
 -----------------------------------------------------------------------------
@  5  -150.775487919       6.94D-03  -1.41D-04     4   1   3   1
      Virial theorem: -V/T =      2.000073
@      MULPOP O   _1 -0.20; O   _2 -0.20; H   _1  0.20; H   _2  0.20; 
 -----------------------------------------------------------------------------
@  6  -150.775493057       1.61D-03  -5.14D-06     4   1   3   1
      Virial theorem: -V/T =      2.000026
@      MULPOP O   _1 -0.20; O   _2 -0.20; H   _1  0.20; H   _2  0.20; 
 -----------------------------------------------------------------------------
@  7  -150.775493459       4.11D-04  -4.02D-07     4   1   3   1
      Virial theorem: -V/T =      2.000036
@      MULPOP O   _1 -0.20; O   _2 -0.20; H   _1  0.20; H   _2  0.20; 
 -----------------------------------------------------------------------------
@  8  -150.775493488       7.66D-05  -2.97D-08     4   1   3   1
      Virial theorem: -V/T =      2.000038
@      MULPOP O   _1 -0.20; O   _2 -0.20; H   _1  0.20; H   _2  0.20; 
 -----------------------------------------------------------------------------
@  9  -150.775493489       1.71D-05  -7.83D-10     4   1   3   1
      Virial theorem: -V/T =      2.000038
@      MULPOP O   _1 -0.20; O   _2 -0.20; H   _1  0.20; H   _2  0.20; 
 -----------------------------------------------------------------------------
@ 10  -150.775493489       5.89D-06  -4.68D-11     4   1   3   1

@ *** DIIS converged in  10 iterations !
@     Converged SCF energy, gradient:   -150.775493489146    5.89D-06
    - total time used in SIRFCK :              0.00 seconds


 *** SCF orbital energy analysis ***

 Only the five lowest virtual orbital energies printed in each symmetry.

 Number of electrons :   18
 Orbital occupations :    4    1    3    1

 Sym       Hartree-Fock orbital energies

  1    -20.62378425    -1.48118645    -0.63325397    -0.55798439     0.18964641
         0.80514455     1.09210161     1.36342193     1.74909397

  2     -0.62381779     1.13852216     1.59184259     2.61785542     3.30280948


  3    -20.62350595    -1.21068904    -0.74385604     0.20401961     0.28854252
         0.85246275     1.11402913     1.22988981

  4     -0.45492618     1.25886045     1.49053240     3.24025189     3.37753790


    E(LUMO) :     0.18964641 au (symmetry 1)
  - E(HOMO) :    -0.45492618 au (symmetry 4)
  ------------------------------------------
    gap     :     0.64457259 au

 >>> Writing SIRIFC interface file <<<

 >>>> CPU and wall time for SCF :       0.031       0.048


                       .-----------------------------------.
                       | >>> Final results from SIRIUS <<< |
                       `-----------------------------------'


@    Spin multiplicity:           1
@    Spatial symmetry:            1
@    Total charge of molecule:    0

@    Final HF energy:            -150.775493489146                 
@    Nuclear repulsion:            37.190893345464
@    Electronic energy:          -187.966386834611

@    Final gradient norm:           0.000005888607

 
     Date and time (Linux)  : Mon Oct 21 14:56:11 2013
     Host name              : c10-6.local                             

 (Only coefficients >0.0100 are printed.)

 Molecular orbitals for symmetry species  1
 ------------------------------------------

    Orbital         1        2        3        4        5        6
   1 O   :1s     0.7074  -0.0071   0.0053  -0.0026   0.0289  -0.0168
   2 O   :1s     0.0015   0.6136  -0.0058  -0.2193  -0.1171  -0.1510
   3 O   :1s    -0.0011  -0.0596  -0.0756  -0.0928  -0.5899   0.1952
   4 O   :2py   -0.0013  -0.1162   0.4071  -0.4781  -0.0595   0.1724
   5 O   :2pz    0.0014   0.0506   0.4301   0.3962  -0.2097  -0.3349
   6 O   :2py    0.0010   0.0209  -0.0045  -0.0059  -0.0149  -0.1870
   7 O   :2pz   -0.0010  -0.0301  -0.0411  -0.0060  -0.1609  -0.1768
   9 O   :3d0    0.0002  -0.0037   0.0244   0.0005  -0.0047   0.0895
  10 O   :3d2+   0.0003  -0.0136   0.0201  -0.0181   0.0029   0.0088
  11 H   :1s    -0.0002   0.2052   0.4441   0.2653   0.1329   1.5770
  12 H   :1s     0.0007  -0.1081  -0.1632  -0.1486   0.8627  -1.4232
  13 H   :2py   -0.0001  -0.0001   0.0135  -0.0095  -0.0028  -0.0457
  14 H   :2pz    0.0005  -0.0267  -0.0295  -0.0137  -0.0129   0.1815

 Molecular orbitals for symmetry species  2
 ------------------------------------------

    Orbital         1        2        3
   1 O   :2px    0.6442  -0.9997   0.0351
   2 O   :2px    0.0116   1.0758  -0.3189
   3 O   :3d2-  -0.0153  -0.0029   0.0121
   4 O   :3d1+   0.0085  -0.0018   0.0975
   5 H   :2px    0.0206   0.0394   0.7319

 Molecular orbitals for symmetry species  3
 ------------------------------------------

    Orbital         1        2        3        4        5
   1 O   :1s     0.7075  -0.0014   0.0008   0.0184   0.0077
   2 O   :1s     0.0018   0.6504  -0.2319  -0.1774   0.1758
   3 O   :1s    -0.0026  -0.0404  -0.1068  -0.4830   0.0399
   4 O   :2py   -0.0009   0.0944  -0.0802   0.3467  -0.5842
   5 O   :2pz    0.0014   0.1214   0.5210  -0.1709  -0.2161
   6 O   :2py    0.0019  -0.0121   0.0024   0.1080  -0.4215
   7 O   :2pz   -0.0009  -0.0539  -0.0470  -0.2145  -0.1744
   8 O   :3d1-  -0.0001  -0.0008  -0.0149   0.0093  -0.0039
   9 O   :3d0    0.0002   0.0087   0.0107  -0.0177   0.0023
  11 H   :1s     0.0001   0.3104   0.3877   0.0199   0.1418
  12 H   :1s     0.0000  -0.1454  -0.1565   0.9671   0.6337
  13 H   :2py    0.0000   0.0013  -0.0104   0.0191  -0.0091
  14 H   :2pz    0.0006  -0.0365  -0.0286  -0.0268  -0.0093

 Molecular orbitals for symmetry species  4
 ------------------------------------------

    Orbital         1        2        3
   1 O   :2px    0.7183  -0.9635  -0.0287
   2 O   :2px    0.0509   1.3785  -0.3365
   3 O   :3d2-   0.0017   0.0296  -0.0085
   4 O   :3d1+   0.0100  -0.0003   0.1140
   5 H   :2px    0.0236  -0.0006   0.7116



 >>>> Total CPU  time used in SIRIUS :      0.06 seconds
 >>>> Total wall time used in SIRIUS :      0.08 seconds

 
     Date and time (Linux)  : Mon Oct 21 14:56:11 2013
     Host name              : c10-6.local                             


                     .---------------------------------------.
                     | End of Wave Function Section (SIRIUS) |
                     `---------------------------------------'


     Order of analytical energy-derivatives available:   2
     This will be the default.

 Center of mass dipole origin  :    0.000000    0.000000    0.000000

 Center of mass gauge origin   :    0.000000    0.000000    0.000000


                 .------------------------------------------------.
                 | Starting in Static Property Section (ABACUS) - |
                 `------------------------------------------------'


 
     Date and time (Linux)  : Mon Oct 21 14:56:11 2013
     Host name              : c10-6.local                             


            +---------------------------------------------------------+
            ! Gradient elements calculated directly and from symmetry !
            +---------------------------------------------------------+



        Coordinate    Direct calc.     Tra.-rot. sym.   Difference
        ----------------------------------------------------------

        O    z       -0.0740483623    -0.0740505053     0.0000021430



 >>> WARNING from TRAROT:

 Largest deviation from tra-rot symmetry is in gradient element  2:  2.14E-06


   ***************************************************************************
   ************************ FINAL RESULTS from ABACUS ************************
   ***************************************************************************


 
     Date and time (Linux)  : Mon Oct 21 14:56:11 2013
     Host name              : c10-6.local                             

 WARNING: warnings have been issued, please check the output above !


                             Molecular geometry (au)
                             -----------------------

 O   _1     0.0000000000            1.3795000712            0.0000000000
 O   _2     0.0000000000           -1.3795000712            0.0000000000
 H   _1     0.0000000000            1.3795000712            1.7952398187
 H   _2     0.0000000000           -1.3795000712           -1.7952398187





                        Molecular wave function and energy
                        ----------------------------------

     Spin multiplicity  1     State number       1     Total charge       0

     Total energy       -150.7754934891 au (Hartrees)
                         -4102.80988278 eV
                           -395860.9971 kJ/mol


                             Relativistic corrections
                             ------------------------

     Darwin correction:                          0.3985184118 au
     Mass-velocity correction:                  -0.5018301935 au

     Total relativistic correction:             -0.1033117817 au (0.0685%)
     Non-relativistic + relativistic energy:  -150.8788052709 au




                             Molecular gradient (au)
                             -----------------------

                         O    y     0.0724005689
                         O    z    -0.0740483623
                         H    y    -0.0545155596
                         H    z     0.0031055990



 O   _1     0.0000000000            0.0362002845           -0.0370241812
 O   _2     0.0000000000           -0.0362002845            0.0370241812
 H   _1     0.0000000000           -0.0272577798            0.0015527995
 H   _2     0.0000000000            0.0272577798           -0.0015527995





                              Molecular Hessian (au)
                              ----------------------


           Symmetry 1

           O    y      O    z      H    y      H    z

 O    y    1.133871
 O    z    0.156333    1.534527
 H    y    0.036866    0.214832    0.195028
 H    z   -0.054679   -1.202468    0.036720    1.210736


           Symmetry 2

           O    x      H    x

 O    x    0.000556
 H    x   -0.000556    0.000556


           Symmetry 3

           O    y      O    z      H    y      H    z

 O    y    0.142242
 O    z    0.034606    1.208892
 H    y   -0.142242   -0.034606    0.142242
 H    z   -0.034606   -1.208892    0.034606    1.208892


           Symmetry 4

           O    x      H    x

 O    x    0.093730
 H    x   -0.041247    0.001730




            O   _1 x    O   _1 y    O   _1 z    O   _2 x    O   _2 y    O   _2 z

 O   _1 x    0.023572
 O   _1 y    0.000000    0.319028
 O   _1 z    0.000000    0.047735    0.685855

 O   _2 x   -0.023294    0.000000    0.000000    0.023572
 O   _2 y    0.000000   -0.247907   -0.030432    0.000000    0.319028
 O   _2 z    0.000000   -0.030432   -0.081409    0.000000    0.047735    0.685855

 H   _1 x   -0.010451    0.000000    0.000000    0.010173    0.000000    0.000000
 H   _1 y    0.000000   -0.026344    0.045057    0.000000   -0.044777   -0.062360
 H   _1 z    0.000000   -0.022321   -0.602840    0.000000    0.005018   -0.001606

 H   _2 x    0.010173    0.000000    0.000000   -0.010451    0.000000    0.000000
 H   _2 y    0.000000   -0.044777   -0.062360    0.000000   -0.026344    0.045057
 H   _2 z    0.000000    0.005018   -0.001606    0.000000   -0.022321   -0.602840


            H   _1 x    H   _1 y    H   _1 z    H   _2 x    H   _2 y    H   _2 z

 H   _1 x    0.000572
 H   _1 y    0.000000    0.084318
 H   _1 z    0.000000    0.017832    0.604907

 H   _2 x   -0.000293    0.000000    0.000000    0.000572
 H   _2 y    0.000000   -0.013197   -0.000529    0.000000    0.084318
 H   _2 z    0.000000   -0.000529   -0.000461    0.000000    0.017832    0.604907





                                  Dipole moment
                                  -------------

                 au               Debye          C m (/(10**-30)
              0.000000           0.000000           0.000000


                             Dipole moment components
                             ------------------------

                    All dipole components are zero by symmetry


   Units:   1 a.u. =   2.54175 Debye 
            1 a.u. =   8.47835 (10**-30) C m (SI)




   Interatomic separations (in Angstrom):
   --------------------------------------

            O   _1      O   _2      H   _1      H   _2
            ------      ------      ------      ------
 O   _1:    0.000000
 O   _2:    1.460000    0.000000
 H   _1:    0.950000    1.741867    0.000000
 H   _2:    1.741867    0.950000    2.396164    0.000000


  Max    interatomic separation is    2.3962 Angstrom (    4.5281 Bohr)
  between atoms    4 and    3, "H   _2" and "H   _1".

  Min HX interatomic separation is    0.9500 Angstrom (    1.7952 Bohr)

  Min YX interatomic separation is    1.4600 Angstrom (    2.7590 Bohr)


  Bond distances (Angstrom):
  --------------------------

                  atom 1     atom 2       distance
                  ------     ------       --------
  bond distance:  O   _2     O   _1       1.460000
  bond distance:  H   _1     O   _1       0.950000
  bond distance:  H   _2     O   _2       0.950000


  Bond angles (degrees):
  ----------------------

                  atom 1     atom 2     atom 3         angle
                  ------     ------     ------         -----
  bond angle:     O   _2     O   _1     H   _1        90.000
  bond angle:     O   _1     O   _2     H   _2        90.000




 CPU time statistics for ABACUS
 ------------------------------




 >>>> Total CPU  time used in ABACUS:   0.57 seconds
 >>>> Total wall time used in ABACUS:   0.65 seconds


                   .-------------------------------------------.
                   | End of Static Property Section (ABACUS) - |
                   `-------------------------------------------'


 Predicted energy change       -0.011158014283508


  Step in diagonal representation
  -------------------------------


               Column   1     Column   2     Column   3
       1       0.31275361    -0.09165075     0.02887607
    ==== End of matrix output ====


           :::::::::::::::::::::::::::::::::::::::::::::::::::::::::::
           ::::::::::::::: Optimization Control Center :::::::::::::::
           :::::::::::::::::::::::::::::::::::::::::::::::::::::::::::



                                Next geometry (au)
                                ------------------

 O   _1     0.0000000000            1.2999851465            0.1101211268
 O   _2     0.0000000000           -1.2999851465           -0.1101211268
 H   _1     0.0000000000            1.5392420645            1.8930021078
 H   _2     0.0000000000           -1.5392420645           -1.8930021078





                             Optimization information
                             ------------------------

 Iteration number               :       0
 End of optimization            :       F 
 Energy at this geometry is     :    -150.775493
 Norm of gradient               :       0.082785
 Norm of step                   :       0.327183
 Updated trust radius           :       0.500000
 Total Hessian index            :       0




 **************************************************************************************
 ****************** Output of molecule and basis set info suppressed ******************
 **************************************************************************************



                     .---------------------------------------.
                     | Starting in Integral Section (HERMIT) |
                     `---------------------------------------'



    *************************************************************************
    ****************** Output from HERMIT input processing ******************
    *************************************************************************


 Threshold for neglecting two-electron integrals:  1.00D-12
 Number of two-electron integrals written:       73191 ( 26.6% )
 Megabytes written:                              0.838

 >>>> Total CPU  time used in HERMIT:   0.05 seconds
 >>>> Total wall time used in HERMIT:   0.06 seconds


                        .----------------------------------.
                        | End of Integral Section (HERMIT) |
                        `----------------------------------'



                   .--------------------------------------------.
                   | Starting in Wave Function Section (SIRIUS) |
                   `--------------------------------------------'


 **********************************************************************
 *SIRIUS* a direct, restricted step, second order MCSCF program       *
 **********************************************************************

 (Wave function specification suppressed here, see output above for initial geometry.)


 >>>>> DIIS optimization of Hartree-Fock <<<<<

 C1-DIIS algorithm; max error vectors =    5

 Iter      Total energy        Error norm    Delta(E)  DIIS dim.
 -----------------------------------------------------------------------------
     (Precalculated two-electron integrals are transformed to P-supermatrix elements.
      Threshold for discarding integrals :  1.00D-12 )
@  1    -150.774923075        3.50619D-01    5.70D-04    1
      Virial theorem: -V/T =      1.999275
@      MULPOP O   _1 -0.20; O   _2 -0.20; H   _1  0.20; H   _2  0.20; 
 -----------------------------------------------------------------------------
@  2    -150.784036330        8.55846D-02   -9.11D-03    2
      Virial theorem: -V/T =      1.999002
@      MULPOP O   _1 -0.20; O   _2 -0.20; H   _1  0.20; H   _2  0.20; 
 -----------------------------------------------------------------------------
@  3    -150.784837088        2.58497D-02   -8.01D-04    3
      Virial theorem: -V/T =      1.999700
@      MULPOP O   _1 -0.19; O   _2 -0.19; H   _1  0.19; H   _2  0.19; 
 -----------------------------------------------------------------------------
@  4    -150.784889774        8.33243D-03   -5.27D-05    4
      Virial theorem: -V/T =      1.999439
@      MULPOP O   _1 -0.19; O   _2 -0.19; H   _1  0.19; H   _2  0.19; 
 -----------------------------------------------------------------------------
@  5    -150.784900286        1.64930D-03   -1.05D-05    5
      Virial theorem: -V/T =      1.999504
@      MULPOP O   _1 -0.19; O   _2 -0.19; H   _1  0.19; H   _2  0.19; 
 -----------------------------------------------------------------------------
@  6    -150.784900690        2.54507D-04   -4.04D-07    5
      Virial theorem: -V/T =      1.999500
@      MULPOP O   _1 -0.19; O   _2 -0.19; H   _1  0.19; H   _2  0.19; 
 -----------------------------------------------------------------------------
@  7    -150.784900699        3.85375D-05   -8.56D-09    5
      Virial theorem: -V/T =      1.999501
@      MULPOP O   _1 -0.19; O   _2 -0.19; H   _1  0.19; H   _2  0.19; 
 -----------------------------------------------------------------------------
@  8    -150.784900699        8.86802D-06   -1.18D-10    5

@ *** DIIS converged in   8 iterations !
@     Converged SCF energy, gradient:   -150.784900698859    8.87D-06
    - total time used in SIRFCK :              0.00 seconds


 *** SCF orbital energy analysis ***

 Only the five lowest virtual orbital energies printed in each symmetry.

 Number of electrons :   18
 Orbital occupations :    4    1    3    1

 Sym       Hartree-Fock orbital energies

  1    -20.61199808    -1.50035104    -0.68998555    -0.52854154     0.19642247
         0.84723644     1.08902976     1.34285058     1.75623915

  2     -0.63392325     1.15449614     1.55704602     2.58142508     3.33825050


  3    -20.61165184    -1.19874835    -0.72820095     0.20084975     0.35756433
         0.81307246     1.11654939     1.25325675

  4     -0.43404926     1.25642731     1.54405757     3.21872372     3.46430070


    E(LUMO) :     0.19642247 au (symmetry 1)
  - E(HOMO) :    -0.43404926 au (symmetry 4)
  ------------------------------------------
    gap     :     0.63047173 au

 >>> Writing SIRIFC interface file <<<

 >>>> CPU and wall time for SCF :       0.027       0.042


                       .-----------------------------------.
                       | >>> Final results from SIRIUS <<< |
                       `-----------------------------------'


@    Spin multiplicity:           1
@    Spatial symmetry:            1
@    Total charge of molecule:    0

@    Final HF energy:            -150.784900698859                 
@    Nuclear repulsion:            38.231941790264
@    Electronic energy:          -189.016842489123

@    Final gradient norm:           0.000008868024

 
     Date and time (Linux)  : Mon Oct 21 14:56:12 2013
     Host name              : c10-6.local                             



 >>>> Total CPU  time used in SIRIUS :      0.04 seconds
 >>>> Total wall time used in SIRIUS :      0.06 seconds

 
     Date and time (Linux)  : Mon Oct 21 14:56:12 2013
     Host name              : c10-6.local                             


                     .---------------------------------------.
                     | End of Wave Function Section (SIRIUS) |
                     `---------------------------------------'

 Trust radius increased due to good ratio.
 Updated trust radius   0.50000

     Order of analytical energy-derivatives available:   2
     This will be the default.

 Center of mass dipole origin  :    0.000000    0.000000    0.000000

 Center of mass gauge origin   :    0.000000    0.000000    0.000000


                 .------------------------------------------------.
                 | Starting in Static Property Section (ABACUS) - |
                 `------------------------------------------------'


 
     Date and time (Linux)  : Mon Oct 21 14:56:12 2013
     Host name              : c10-6.local                             


            +---------------------------------------------------------+
            ! Gradient elements calculated directly and from symmetry !
            +---------------------------------------------------------+



        Coordinate    Direct calc.     Tra.-rot. sym.   Difference
        ----------------------------------------------------------

        O    y       -0.0361657979    -0.0361671166     0.0000013187



 >>> WARNING from TRAROT:

 Largest deviation from tra-rot symmetry is in gradient element  1:  1.32E-06


   ***************************************************************************
   ************************ FINAL RESULTS from ABACUS ************************
   ***************************************************************************


 
     Date and time (Linux)  : Mon Oct 21 14:56:12 2013
     Host name              : c10-6.local                             

 WARNING: warnings have been issued, please check the output above !


 CPU time statistics for ABACUS
 ------------------------------

 REST       00:00:02     277 %



 >>>> Total CPU  time used in ABACUS:   0.64 seconds
 >>>> Total wall time used in ABACUS:   0.74 seconds


                   .-------------------------------------------.
                   | End of Static Property Section (ABACUS) - |
                   `-------------------------------------------'


 Predicted energy change       -0.000495334259764


  Step in diagonal representation
  -------------------------------


               Column   1     Column   2     Column   3
       1      -0.03523138     0.02682973     0.01040982
    ==== End of matrix output ====


           :::::::::::::::::::::::::::::::::::::::::::::::::::::::::::
           ::::::::::::::: Optimization Control Center :::::::::::::::
           :::::::::::::::::::::::::::::::::::::::::::::::::::::::::::



                                Next geometry (au)
                                ------------------

 O   _1     0.0000000000            1.3193843102            0.1002603273
 O   _2     0.0000000000           -1.3193843102           -0.1002603273
 H   _1     0.0000000000            1.5200503154            1.8791154870
 H   _2     0.0000000000           -1.5200503154           -1.8791154870





                             Optimization information
                             ------------------------

 Iteration number               :       1
 End of optimization            :       F 
 Energy at this geometry is     :    -150.784901
 Energy change from last geom.  :      -0.009407
 Norm of gradient               :       0.027453
 Norm of step                   :       0.045491
 Updated trust radius           :       0.500000
 Hessian index (1)              :       1
 Total Hessian index            :       1




 **************************************************************************************
 ****************** Output of molecule and basis set info suppressed ******************
 **************************************************************************************



                     .---------------------------------------.
                     | Starting in Integral Section (HERMIT) |
                     `---------------------------------------'



    *************************************************************************
    ****************** Output from HERMIT input processing ******************
    *************************************************************************


 Threshold for neglecting two-electron integrals:  1.00D-12
 Number of two-electron integrals written:       73191 ( 26.6% )
 Megabytes written:                              0.838

 >>>> Total CPU  time used in HERMIT:   0.05 seconds
 >>>> Total wall time used in HERMIT:   0.06 seconds


                        .----------------------------------.
                        | End of Integral Section (HERMIT) |
                        `----------------------------------'



                   .--------------------------------------------.
                   | Starting in Wave Function Section (SIRIUS) |
                   `--------------------------------------------'


 **********************************************************************
 *SIRIUS* a direct, restricted step, second order MCSCF program       *
 **********************************************************************

 (Wave function specification suppressed here, see output above for initial geometry.)


 >>>>> DIIS optimization of Hartree-Fock <<<<<

 C1-DIIS algorithm; max error vectors =    5

 Iter      Total energy        Error norm    Delta(E)  DIIS dim.
 -----------------------------------------------------------------------------
     (Precalculated two-electron integrals are transformed to P-supermatrix elements.
      Threshold for discarding integrals :  1.00D-12 )
@  1    -150.785033112        7.09425D-02   -1.32D-04    1
      Virial theorem: -V/T =      1.999654
@      MULPOP O   _1 -0.19; O   _2 -0.19; H   _1  0.19; H   _2  0.19; 
 -----------------------------------------------------------------------------
@  2    -150.785381463        1.66762D-02   -3.48D-04    2
      Virial theorem: -V/T =      1.999748
@      MULPOP O   _1 -0.19; O   _2 -0.19; H   _1  0.19; H   _2  0.19; 
 -----------------------------------------------------------------------------
@  3    -150.785408105        5.29203D-03   -2.66D-05    3
      Virial theorem: -V/T =      1.999598
@      MULPOP O   _1 -0.19; O   _2 -0.19; H   _1  0.19; H   _2  0.19; 
 -----------------------------------------------------------------------------
@  4    -150.785409938        1.35730D-03   -1.83D-06    4
      Virial theorem: -V/T =      1.999654
@      MULPOP O   _1 -0.19; O   _2 -0.19; H   _1  0.19; H   _2  0.19; 
 -----------------------------------------------------------------------------
@  5    -150.785410196        3.64783D-04   -2.58D-07    5
      Virial theorem: -V/T =      1.999643
@      MULPOP O   _1 -0.19; O   _2 -0.19; H   _1  0.19; H   _2  0.19; 
 -----------------------------------------------------------------------------
@  6    -150.785410217        7.04319D-05   -2.12D-08    5
      Virial theorem: -V/T =      1.999644
@      MULPOP O   _1 -0.19; O   _2 -0.19; H   _1  0.19; H   _2  0.19; 
 -----------------------------------------------------------------------------
@  7    -150.785410218        1.06149D-05   -7.47D-10    5
      Virial theorem: -V/T =      1.999644
@      MULPOP O   _1 -0.19; O   _2 -0.19; H   _1  0.19; H   _2  0.19; 
 -----------------------------------------------------------------------------
@  8    -150.785410218        2.08518D-06   -9.78D-12    5

@ *** DIIS converged in   8 iterations !
@     Converged SCF energy, gradient:   -150.785410217907    2.09D-06
    - total time used in SIRFCK :              0.00 seconds


 *** SCF orbital energy analysis ***

 Only the five lowest virtual orbital energies printed in each symmetry.

 Number of electrons :   18
 Orbital occupations :    4    1    3    1

 Sym       Hartree-Fock orbital energies

  1    -20.61460694    -1.49379654    -0.68191429    -0.53409701     0.19600303
         0.84613033     1.08890291     1.34750787     1.75596060

  2     -0.63061835     1.15158218     1.56149806     2.59106220     3.33672853


  3    -20.61427912    -1.20442099    -0.72966546     0.20161777     0.34039687
         0.82240987     1.11474361     1.24851608

  4     -0.43949349     1.25719595     1.53758057     3.23324847     3.43480896


    E(LUMO) :     0.19600303 au (symmetry 1)
  - E(HOMO) :    -0.43949349 au (symmetry 4)
  ------------------------------------------
    gap     :     0.63549651 au

 >>> Writing SIRIFC interface file <<<

 >>>> CPU and wall time for SCF :       0.027       0.043


                       .-----------------------------------.
                       | >>> Final results from SIRIUS <<< |
                       `-----------------------------------'


@    Spin multiplicity:           1
@    Spatial symmetry:            1
@    Total charge of molecule:    0

@    Final HF energy:            -150.785410217907                 
@    Nuclear repulsion:            37.951339880555
@    Electronic energy:          -188.736750098462

@    Final gradient norm:           0.000002085176

 
     Date and time (Linux)  : Mon Oct 21 14:56:12 2013
     Host name              : c10-6.local                             



 >>>> Total CPU  time used in SIRIUS :      0.04 seconds
 >>>> Total wall time used in SIRIUS :      0.07 seconds

 
     Date and time (Linux)  : Mon Oct 21 14:56:12 2013
     Host name              : c10-6.local                             


                     .---------------------------------------.
                     | End of Wave Function Section (SIRIUS) |
                     `---------------------------------------'

 Trust radius squarely increased due to very good ratio.
 Updated trust radius   0.50000

     Order of analytical energy-derivatives available:   2
     This will be the default.

 Center of mass dipole origin  :    0.000000    0.000000    0.000000

 Center of mass gauge origin   :    0.000000    0.000000    0.000000


                 .------------------------------------------------.
                 | Starting in Static Property Section (ABACUS) - |
                 `------------------------------------------------'


 
     Date and time (Linux)  : Mon Oct 21 14:56:12 2013
     Host name              : c10-6.local                             


            +---------------------------------------------------------+
            ! Gradient elements calculated directly and from symmetry !
            +---------------------------------------------------------+



        Coordinate    Direct calc.     Tra.-rot. sym.   Difference
        ----------------------------------------------------------

        O    y       -0.0019920656    -0.0019964842     0.0000044187



 >>> WARNING from TRAROT:

 Largest deviation from tra-rot symmetry is in gradient element  1:  4.42E-06


   ***************************************************************************
   ************************ FINAL RESULTS from ABACUS ************************
   ***************************************************************************


 
     Date and time (Linux)  : Mon Oct 21 14:56:13 2013
     Host name              : c10-6.local                             

 WARNING: warnings have been issued, please check the output above !


 CPU time statistics for ABACUS
 ------------------------------

 REST       00:00:01     199 %



 >>>> Total CPU  time used in ABACUS:   0.64 seconds
 >>>> Total wall time used in ABACUS:   0.72 seconds


                   .-------------------------------------------.
                   | End of Static Property Section (ABACUS) - |
                   `-------------------------------------------'


 Predicted energy change       -0.000001259497926


  Step in diagonal representation
  -------------------------------


               Column   1     Column   2     Column   3
       1      -0.00026842     0.00173422     0.00039367
    ==== End of matrix output ====


           :::::::::::::::::::::::::::::::::::::::::::::::::::::::::::
           ::::::::::::::: Optimization Control Center :::::::::::::::
           :::::::::::::::::::::::::::::::::::::::::::::::::::::::::::



                                Next geometry (au)
                                ------------------

 O   _1     0.0000000000            1.3206333200            0.1001680867
 O   _2     0.0000000000           -1.3206333200           -0.1001680867
 H   _1     0.0000000000            1.5198477924            1.8790275707
 H   _2     0.0000000000           -1.5198477924           -1.8790275707





                             Optimization information
                             ------------------------

 Iteration number               :       2
 End of optimization            :       F 
 Energy at this geometry is     :    -150.785410
 Energy change from last geom.  :      -0.000510
 Norm of gradient               :       0.001430
 Norm of step                   :       0.001798
 Updated trust radius           :       0.500000
 Hessian index (1)              :       1
 Total Hessian index            :       1


 
 ***** NOTE! *****
 Due to non-zero index of total Hessian, symmetry #           1
 has to be broken to minimize energy!
 


   ****************************************************************************
   *************** Output of molecule and basis set information ***************
   ****************************************************************************


    The two title cards from your ".mol" input:
    ------------------------------------------------------------------------
 1: Geometry optimization (2nd order) with automatic breaking of symmetry   
 2:                                                                         
    ------------------------------------------------------------------------

  Atomic type no.    1
  --------------------
  Nuclear charge:   8.00000
  Number of symmetry independent centers:    2
  Number of basis sets to read;    2
  Basis set file used for this atomic type with Z =   8 :
     "/home/arnfinn/release_dalton/build-RB-intel12.1.2-release/basis/cc-pVDZ"

  Atomic type no.    2
  --------------------
  Nuclear charge:   1.00000
  Number of symmetry independent centers:    2
  Number of basis sets to read;    2
  Basis set file used for this atomic type with Z =   1 :
     "/home/arnfinn/release_dalton/build-RB-intel12.1.2-release/basis/cc-pVDZ"


                      SYMADD: Requested addition of symmetry
                      --------------------------------------

 Symmetry test threshold:  5.00E-06

 - molecule centered at center of mass and rotated so
   principal axes of inertia are along coordinate axes.

 Symmetry class found: C(2)           

 Symmetry Independent Centres             
 ----------------------------
       8 :      1.32318823     0.00000000    -0.02963713  Isotope  1
       1 :      1.65806438     1.75853646     0.47036287  Isotope  1

 The following element was found:   XY       


                         SYMGRP: Point group information
                         -------------------------------

Full point group is: C(2)           
Represented as:      C2 

   * The point group was generated by:

      Rotation about the z-axis

   * Group multiplication table

        |  E   C2z
   -----+----------
     E  |  E   C2z
    C2z | C2z   E 

   * Character table

        |  E   C2z
   -----+----------
    A   |   1    1
    B   |   1   -1

   * Direct product table

        | A    B  
   -----+----------
    A   | A    B  
    B   | B    A  


                                 Isotopic Masses
                                 ---------------

                           O   _1     15.994915
                           O   _2     15.994915
                           H   _1      1.007825
                           H   _2      1.007825

                       Total mass:    34.005480 amu
                       Natural abundance:  99.491 %

 Center-of-mass coordinates (a.u.):    0.000000    0.000000    0.000000


  Atoms and basis sets
  --------------------

  Number of atom types :    2
  Total number of atoms:    4

  Basis set used is "cc-pVDZ" from the basis set library.

  label    atoms   charge   prim   cont     basis
  ----------------------------------------------------------------------
  O           2    8.0000    26    14      [9s4p1d|3s2p1d]                                    
  H           2    1.0000     7     5      [4s1p|2s1p]                                        
  ----------------------------------------------------------------------
  total:      4   18.0000    66    38
  ----------------------------------------------------------------------
  Spherical harmonic basis used.

  Threshold for neglecting AO integrals:  1.00D-12


  Cartesian Coordinates (a.u.)
  ----------------------------

  Total number of coordinates:   12
  O   / 1 :     1  x   1.3231882297    2  y   0.0000000000    3  z  -0.0296371350
  O   / 2 :     4  x  -1.3231882297    5  y   0.0000000000    6  z  -0.0296371350
  H   / 1 :     7  x   1.6580643791    8  y   1.7585364623    9  z   0.4703628650
  H   / 2 :    10  x  -1.6580643791   11  y  -1.7585364623   12  z   0.4703628650


  Symmetry Coordinates
  --------------------

  Number of coordinates in each symmetry:     6    6

  Symmetry  A   ( 1)

    1   O     x    [  1  -    4 ]/2
    2   O     y    [  2  -    5 ]/2
    3   O     z    [  3  +    6 ]/2
    4   H     x    [  7  -   10 ]/2
    5   H     y    [  8  -   11 ]/2
    6   H     z    [  9  +   12 ]/2

  Symmetry  B   ( 2)

    7   O     x    [  1  +    4 ]/2
    8   O     y    [  2  +    5 ]/2
    9   O     z    [  3  -    6 ]/2
   10   H     x    [  7  +   10 ]/2
   11   H     y    [  8  +   11 ]/2
   12   H     z    [  9  -   12 ]/2


   Interatomic separations (in Angstrom):
   --------------------------------------

            O   _1      O   _2      H   _1      H   _2
            ------      ------      ------      ------
 O   _1:    0.000000
 O   _2:    1.400402    0.000000
 H   _1:    0.983557    1.850632    0.000000
 H   _2:    1.850632    0.983557    2.557985    0.000000


  Max    interatomic separation is    2.5580 Angstrom (    4.8339 Bohr)
  between atoms    4 and    3, "H   _2" and "H   _1".

  Min HX interatomic separation is    0.9836 Angstrom (    1.8587 Bohr)

  Min YX interatomic separation is    1.4004 Angstrom (    2.6464 Bohr)


  Bond distances (Angstrom):
  --------------------------

                  atom 1     atom 2       distance
                  ------     ------       --------
  bond distance:  O   _2     O   _1       1.400402
  bond distance:  H   _1     O   _1       0.983557
  bond distance:  H   _2     O   _2       0.983557


  Bond angles (degrees):
  ----------------------

                  atom 1     atom 2     atom 3         angle
                  ------     ------     ------         -----
  bond angle:     O   _2     O   _1     H   _1       100.380
  bond angle:     O   _1     O   _2     H   _2       100.380




 Principal moments of inertia (u*A**2) and principal axes
 --------------------------------------------------------

   IA       1.705321          0.994525    0.104497    0.000000
   IB      17.541438         -0.104497    0.994525    0.000000
   IC      18.981268          0.000000    0.000000    1.000000


 Rotational constants
 --------------------

               A                   B                   C

         296354.1879          28810.5795          26625.1447 MHz
            9.885312            0.961017            0.888119 cm-1


@  Nuclear repulsion energy :   37.574372883029 Hartree


  Symmetry Orbitals
  -----------------

  Number of orbitals in each symmetry:          19   19


  Symmetry  A  ( 1)

    1     O        1s         1 +    2
    2     O        1s         3 +    4
    3     O        1s         5 +    6
    4     O        2px        7 -    8
    5     O        2py        9 -   10
    6     O        2pz       11 +   12
    7     O        2px       13 -   14
    8     O        2py       15 -   16
    9     O        2pz       17 +   18
   10     O        3d2-      19 +   20
   11     O        3d1-      21 -   22
   12     O        3d0       23 +   24
   13     O        3d1+      25 -   26
   14     O        3d2+      27 +   28
   15     H        1s        29 +   30
   16     H        1s        31 +   32
   17     H        2px       33 -   34
   18     H        2py       35 -   36
   19     H        2pz       37 +   38


  Symmetry  B  ( 2)

   20     O        1s         1 -    2
   21     O        1s         3 -    4
   22     O        1s         5 -    6
   23     O        2px        7 +    8
   24     O        2py        9 +   10
   25     O        2pz       11 -   12
   26     O        2px       13 +   14
   27     O        2py       15 +   16
   28     O        2pz       17 -   18
   29     O        3d2-      19 -   20
   30     O        3d1-      21 +   22
   31     O        3d0       23 -   24
   32     O        3d1+      25 +   26
   33     O        3d2+      27 -   28
   34     H        1s        29 -   30
   35     H        1s        31 -   32
   36     H        2px       33 +   34
   37     H        2py       35 +   36
   38     H        2pz       37 -   38

  Symmetries of electric field:  B  (2)  B  (2)  A  (1)

  Symmetries of magnetic field:  B  (2)  B  (2)  A  (1)


                     .---------------------------------------.
                     | Starting in Integral Section (HERMIT) |
                     `---------------------------------------'



    *************************************************************************
    ****************** Output from HERMIT input processing ******************
    *************************************************************************



     ************************************************************************
     ************************** Output from HERINT **************************
     ************************************************************************


 Threshold for neglecting two-electron integrals:  1.00D-12
 Number of two-electron integrals written:      107467 ( 39.1% )
 Megabytes written:                              1.237

 >>>> Total CPU  time used in HERMIT:   0.06 seconds
 >>>> Total wall time used in HERMIT:   0.07 seconds


                        .----------------------------------.
                        | End of Integral Section (HERMIT) |
                        `----------------------------------'



                   .--------------------------------------------.
                   | Starting in Wave Function Section (SIRIUS) |
                   `--------------------------------------------'


 *** Output from Huckel module :

     Using EWMO model:          F
     Using EHT  model:          T
     Number of Huckel orbitals each symmetry:    6    6

 Huckel EHT eigenvalues for symmetry :  1
          -20.701296      -1.662442      -0.715134      -0.670939      -0.578811
           -0.290143

 Huckel EHT eigenvalues for symmetry :  2
          -20.693942      -1.220130      -0.788452      -0.536443      -0.432345
           -0.269723

 **********************************************************************
 *SIRIUS* a direct, restricted step, second order MCSCF program       *
 **********************************************************************

 (Wave function specification NOT suppressed here, because symmetry has changed.)

 
     Date and time (Linux)  : Mon Oct 21 14:56:13 2013
     Host name              : c10-6.local                             

 Title lines from ".mol" input file:
     Geometry optimization (2nd order) with automatic breaking of symmetry   
                                                                             

 Print level on unit LUPRI =   2 is   0
 Print level on unit LUW4  =   2 is   3

@    Restricted, closed shell Hartree-Fock calculation.

 Initial molecular orbitals are obtained according to
 ".MOSTART EHT   " input option

     Wave function specification
     ============================
@    For the wave function of type :      >>> HF <<<
@    Number of closed shell electrons          18
@    Number of electrons in active shells       0
@    Total charge of the molecule               0

@    Spin multiplicity and 2 M_S                1         0
     Total number of symmetries                 2
@    Reference state symmetry                   1

     Orbital specifications
     ======================
     Abelian symmetry species          All |    1    2
                                       --- |  ---  ---
     Total number of orbitals           38 |   19   19
     Number of basis functions          38 |   19   19

      ** Automatic occupation of RHF orbitals **

      -- Initial occupation of symmetries is determined from extended Huckel guess.           
      -- Initial occupation of symmetries is :
@    Occupied SCF orbitals               9 |    5    4

     Maximum number of Fock   iterations      0
     Maximum number of DIIS   iterations     60
     Maximum number of QC-SCF iterations     60
     Threshold for SCF convergence     1.00D-05


 >>>>> DIIS optimization of Hartree-Fock <<<<<

 C1-DIIS algorithm; max error vectors =    5

 Automatic occupation of symmetries with  18 electrons.

 Iter     Total energy    Error norm  Delta(E)    SCF occupation
 -----------------------------------------------------------------------------
     (Precalculated two-electron integrals are transformed to P-supermatrix elements.
      Threshold for discarding integrals :  1.00D-12 )
@  1  -150.456175602       2.79D+00   3.29D-01     5   4
      Virial theorem: -V/T =      2.001184
@      MULPOP O   _1 -0.20; O   _2 -0.20; H   _1  0.20; H   _2  0.20; 
 -----------------------------------------------------------------------------
@  2  -150.769286792       4.75D-01  -3.13D-01     5   4
      Virial theorem: -V/T =      1.998189
@      MULPOP O   _1 -0.20; O   _2 -0.20; H   _1  0.20; H   _2  0.20; 
 -----------------------------------------------------------------------------
@  3  -150.781839751       1.47D-01  -1.26D-02     5   4
      Virial theorem: -V/T =      2.002133
@      MULPOP O   _1 -0.19; O   _2 -0.19; H   _1  0.19; H   _2  0.19; 
 -----------------------------------------------------------------------------
@  4  -150.783152705       4.90D-02  -1.31D-03     5   4
      Virial theorem: -V/T =      2.000042
@      MULPOP O   _1 -0.21; O   _2 -0.21; H   _1  0.21; H   _2  0.21; 
 -----------------------------------------------------------------------------
@  5  -150.783309010       6.27D-03  -1.56D-04     5   4
      Virial theorem: -V/T =      2.000540
@      MULPOP O   _1 -0.21; O   _2 -0.21; H   _1  0.21; H   _2  0.21; 
 -----------------------------------------------------------------------------
@  6  -150.783313114       1.50D-03  -4.10D-06     5   4
      Virial theorem: -V/T =      2.000497
@      MULPOP O   _1 -0.21; O   _2 -0.21; H   _1  0.21; H   _2  0.21; 
 -----------------------------------------------------------------------------
@  7  -150.783313491       5.12D-04  -3.77D-07     5   4
      Virial theorem: -V/T =      2.000505
@      MULPOP O   _1 -0.21; O   _2 -0.21; H   _1  0.21; H   _2  0.21; 
 -----------------------------------------------------------------------------
@  8  -150.783313552       1.74D-04  -6.12D-08     5   4
      Virial theorem: -V/T =      2.000506
@      MULPOP O   _1 -0.21; O   _2 -0.21; H   _1  0.21; H   _2  0.21; 
 -----------------------------------------------------------------------------
@  9  -150.783313561       7.28D-05  -8.58D-09     5   4
      Virial theorem: -V/T =      2.000507
@      MULPOP O   _1 -0.21; O   _2 -0.21; H   _1  0.21; H   _2  0.21; 
 -----------------------------------------------------------------------------
@ 10  -150.783313562       2.35D-05  -1.75D-09     5   4
      Virial theorem: -V/T =      2.000507
@      MULPOP O   _1 -0.21; O   _2 -0.21; H   _1  0.21; H   _2  0.21; 
 -----------------------------------------------------------------------------
@ 11  -150.783313562       7.26D-06  -1.24D-10     5   4

@ *** DIIS converged in  11 iterations !
@     Converged SCF energy, gradient:   -150.783313562396    7.26D-06
    - total time used in SIRFCK :              0.00 seconds


 *** SCF orbital energy analysis ***

 Only the five lowest virtual orbital energies printed in each symmetry.

 Number of electrons :   18
 Orbital occupations :    5    4

 Sym       Hartree-Fock orbital energies

  1    -20.61715577    -1.48616492    -0.68231744    -0.62023194    -0.52234194
         0.18918774     0.81345878     1.10382235     1.15077676     1.34303745

  2    -20.61682566    -1.18901607    -0.71842300    -0.44388012     0.19665833
         0.33938440     0.79719084     1.11742261     1.23502661

    E(LUMO) :     0.18918774 au (symmetry 1)
  - E(HOMO) :    -0.44388012 au (symmetry 2)
  ------------------------------------------
    gap     :     0.63306786 au

 >>> Writing SIRIFC interface file <<<

 >>>> CPU and wall time for SCF :       0.049       0.068


                       .-----------------------------------.
                       | >>> Final results from SIRIUS <<< |
                       `-----------------------------------'


@    Spin multiplicity:           1
@    Spatial symmetry:            1
@    Total charge of molecule:    0

@    Final HF energy:            -150.783313562396                 
@    Nuclear repulsion:            37.574372883029
@    Electronic energy:          -188.357686445425

@    Final gradient norm:           0.000007256834

 
     Date and time (Linux)  : Mon Oct 21 14:56:13 2013
     Host name              : c10-6.local                             



 >>>> Total CPU  time used in SIRIUS :      0.07 seconds
 >>>> Total wall time used in SIRIUS :      0.10 seconds

 
     Date and time (Linux)  : Mon Oct 21 14:56:13 2013
     Host name              : c10-6.local                             


                     .---------------------------------------.
                     | End of Wave Function Section (SIRIUS) |
                     `---------------------------------------'


     Order of analytical energy-derivatives available:   2
     This will be the default.

 Center of mass dipole origin  :    0.000000    0.000000    0.000000

 Center of mass gauge origin   :    0.000000    0.000000    0.000000


                 .------------------------------------------------.
                 | Starting in Static Property Section (ABACUS) - |
                 `------------------------------------------------'


 
     Date and time (Linux)  : Mon Oct 21 14:56:13 2013
     Host name              : c10-6.local                             

 Largest deviation from tra-rot symmetry is in gradient element  2:  3.19E-07


   ***************************************************************************
   ************************ FINAL RESULTS from ABACUS ************************
[...]
                 | Starting in Static Property Section (ABACUS) - |
                 `------------------------------------------------'


 
     Date and time (Linux)  : Mon Oct 21 14:56:20 2013
     Host name              : c10-6.local                             

 Largest deviation from tra-rot symmetry is in gradient element  2:  3.27E-07


   ***************************************************************************
   ************************ FINAL RESULTS from ABACUS ************************
   ***************************************************************************


 
     Date and time (Linux)  : Mon Oct 21 14:56:20 2013
     Host name              : c10-6.local                             


                             Molecular geometry (au)
                             -----------------------

 O   _1     1.3120261628            0.0988124959           -0.2495959857
 O   _2    -1.3120261628           -0.0988124959           -0.2495959857
 H   _1     1.5833689270            1.6000677163            0.6903217158
 H   _2    -1.5833689270           -1.6000677163            0.6903217158





                        Molecular wave function and energy
                        ----------------------------------

     Spin multiplicity  1     State number       1     Total charge       0

     Total energy       -150.7867668503 au (Hartrees)
                         -4103.11664654 eV
                           -395890.5953 kJ/mol


                             Relativistic corrections
                             ------------------------

     Darwin correction:                          0.3982772469 au
     Mass-velocity correction:                  -0.5015120292 au

     Total relativistic correction:             -0.1032347823 au (0.0685%)
     Non-relativistic + relativistic energy:  -150.8900016326 au




                             Molecular gradient (au)
                             -----------------------

                         O    x     0.0000001093
                         O    y     0.0000007727
                         O    z     0.0000007709
                         H    x    -0.0000001712
                         H    y    -0.0000005354
                         H    z    -0.0000007709



 O   _1     0.0000000547            0.0000003864            0.0000003855
 O   _2    -0.0000000547           -0.0000003864            0.0000003855
 H   _1    -0.0000000856           -0.0000002677           -0.0000003855
 H   _2     0.0000000856            0.0000002677           -0.0000003855





                              Molecular Hessian (au)
                              ----------------------


           Symmetry 1

           O    x      O    y      O    z      H    x      H    y      H    z

 O    x    1.579739
 O    y    0.277909    1.175211
 O    z    0.087957    0.568661    0.343290
 H    x   -0.047730    0.073190   -0.063102    0.200837
 H    y   -0.179932   -0.882509   -0.529488    0.139329    0.860843
 H    z   -0.087957   -0.568661   -0.343290    0.063102    0.529488    0.343290


           Symmetry 2

           O    x      O    y      O    z      H    x      H    y      H    z

 O    x    0.171085
 O    y    0.132620    0.855441
 O    z   -0.030847    0.552609    0.447174
 H    x   -0.171085   -0.132620    0.030847    0.171085
 H    y   -0.132620   -0.855441   -0.552609    0.132620    0.855441
 H    z   -0.075999   -0.536634   -0.352231    0.075999    0.536634    0.336983




            O   _1 x    O   _1 y    O   _1 z    O   _2 x    O   _2 y    O   _2 z

 O   _1 x    0.437706
 O   _1 y    0.102632    0.507663
 O   _1 z    0.014278    0.280318    0.197616

 O   _2 x   -0.352164   -0.036322   -0.029701    0.437706
 O   _2 y   -0.036322   -0.079942   -0.004013    0.102632    0.507663
 O   _2 z    0.029701    0.004013   -0.025971   -0.014278   -0.280318    0.197616

 H   _1 x   -0.054704   -0.014858   -0.008064   -0.030839   -0.051452   -0.023487
 H   _1 y   -0.078138   -0.434488   -0.270524    0.011828    0.006767    0.005780
 H   _1 z   -0.040989   -0.276324   -0.173880    0.002989    0.008007    0.002235

 H   _2 x   -0.030839   -0.051452    0.023487   -0.054704   -0.014858    0.008064
 H   _2 y    0.011828    0.006767   -0.005780   -0.078138   -0.434488    0.270524
 H   _2 z   -0.002989   -0.008007    0.002235    0.040989    0.276324   -0.173880


            H   _1 x    H   _1 y    H   _1 z    H   _2 x    H   _2 y    H   _2 z

 H   _1 x    0.092980
 H   _1 y    0.067987    0.429071
 H   _1 z    0.034775    0.266530    0.170068

 H   _2 x   -0.007438   -0.001677    0.003224    0.092980
 H   _2 y   -0.001677   -0.001350    0.001786    0.067987    0.429071
 H   _2 z   -0.003224   -0.001786    0.001577   -0.034775   -0.266530    0.170068





                                  Dipole moment
                                  -------------

                 au               Debye          C m (/(10**-30)
              0.745200           1.894109           6.318067


                             Dipole moment components
                             ------------------------

                 au               Debye          C m (/(10**-30)

      z      0.74519980         1.89410885         6.31806705


   Units:   1 a.u. =   2.54175 Debye 
            1 a.u. =   8.47835 (10**-30) C m (SI)




                           Dipole moment gradient (au)
                           ---------------------------


    Symmetry 1
                       Ez

        O    x     0.01196959
        O    y     0.22085448
        O    z    -0.67776668
        H    x     0.05338017
        H    y    -0.12831642
        H    z     0.67776668

    Symmetry 2
                       Ex             Ey

        O    x    -0.47962839    -0.04221450
        O    y    -0.05935471    -0.59470855
        O    z    -0.28791136     0.18444169
        H    x     0.47962839     0.04221450
        H    y     0.05935471     0.59470855
        H    z     0.05264639    -0.12777450



                       Ex             Ey             Ez

      O   _1 x    -0.23981420    -0.02110725     0.00598479
      O   _1 y    -0.02967735    -0.29735428     0.11042724
      O   _1 z    -0.14395568     0.09222085    -0.33888334

      O   _2 x    -0.23981420    -0.02110725    -0.00598479
      O   _2 y    -0.02967735    -0.29735428    -0.11042724
      O   _2 z     0.14395568    -0.09222085    -0.33888334

      H   _1 x     0.23981420     0.02110725     0.02669009
      H   _1 y     0.02967735     0.29735428    -0.06415821
      H   _1 z     0.02632319    -0.06388725     0.33888334

      H   _2 x     0.23981420     0.02110725    -0.02669009
      H   _2 y     0.02967735     0.29735428     0.06415821
      H   _2 z    -0.02632319     0.06388725     0.33888334



                            +-------------------------+
                            ! APT Population Analysis !
                            +-------------------------+


      [ Reference : J. Cioslowski, J.Am.Chem.Soc. 111 (1989) 8333 ]

                            O   _1   -0.292017
                            O   _2   -0.292017
                            H   _1    0.292017
                            H   _2    0.292017



   Interatomic separations (in Angstrom):
   --------------------------------------

            O   _1      O   _2      H   _1      H   _2
            ------      ------      ------      ------
 O   _1:    0.000000
 O   _2:    1.392521    0.000000
 H   _1:    0.948223    1.844769    0.000000
 H   _2:    1.844769    0.948223    2.382420    0.000000


  Max    interatomic separation is    2.3824 Angstrom (    4.5021 Bohr)
  between atoms    4 and    3, "H   _2" and "H   _1".

  Min HX interatomic separation is    0.9482 Angstrom (    1.7919 Bohr)

  Min YX interatomic separation is    1.3925 Angstrom (    2.6315 Bohr)


  Bond distances (Angstrom):
  --------------------------

                  atom 1     atom 2       distance
                  ------     ------       --------
  bond distance:  O   _2     O   _1       1.392521
  bond distance:  H   _1     O   _1       0.948223
  bond distance:  H   _2     O   _2       0.948223


  Bond angles (degrees):
  ----------------------

                  atom 1     atom 2     atom 3         angle
                  ------     ------     ------         -----
  bond angle:     O   _2     O   _1     H   _1       102.352
  bond angle:     O   _1     O   _2     H   _2       102.352




   ****************************************************************************
   *************** ABACUS - ROTATIONAL AND VIBRATIONAL ANALYSIS ***************
   ****************************************************************************


 Norm of (unprojected) molecular gradient (au) :     0.00000103


 Conversion factors used:

    Hartree to (cm)-1      : 219474.62934
    a.m.u.  to a.u.        :   1822.88848
    Bohr    to Angstrom    :  0.529177211
    a.u.    to A**4amu-1   :   142.943572
    a.u.    to km (mol)-1  :      974.864


 Vibrational analysis for parent molecule only.
  Norm of projected gradient     0.000001


                         Isotopic Molecule No. 1
                         ======================= 


                                 Isotopic Masses
                                 ---------------

                           O   _1     15.994915
                           O   _2     15.994915
                           H   _1      1.007825
                           H   _2      1.007825

                       Total mass:    34.005480 amu
                       Natural abundance:  99.491 %

 Center-of-mass coordinates (a.u.):    0.000000    0.000000   -0.193883


 Principal moments of inertia (u*A**2) and principal axes
 --------------------------------------------------------

   IA       1.574742          0.986700    0.162550    0.000000
   IB      17.731607         -0.162550    0.986700    0.000000
   IC      18.368161          0.000000    0.000000    1.000000


 Rotational constants
 --------------------

               A                   B                   C

         320928.0982          28501.5900          27513.8595 MHz
           10.705009            0.950711            0.917764 cm-1


  Vibrational Frequencies and IR Intensities
  ------------------------------------------

  mode   irrep        frequency             IR intensity
  ============================================================
                  cm-1       hartrees     km/mol   (D/A)**2/amu
  ------------------------------------------------------------
   1      A      4117.51    0.018761     31.686   0.7499
   3      A      1612.02    0.007345      0.344   0.0081
   5      A      1132.58    0.005160      1.712   0.0405
   6      A       377.79    0.001721    213.261   5.0469

   2      B      4114.84    0.018749    109.615   2.5941
   4      B      1469.93    0.006697    101.198   2.3949



  Normal Coordinates (bohrs*amu**(1/2)):
  --------------------------------------


                1  4118     2  4115     3  1612     4  1470     5  1133 
  ----------------------------------------------------------------------

    O   _1 x   -0.007989   -0.006095   -0.006220   -0.041874   -0.175675
    O   _1 y   -0.037083   -0.036099    0.050674    0.003328   -0.013419
    O   _1 z   -0.022496   -0.022934    0.005708    0.034963    0.003310

    O   _2 x    0.007989   -0.006095    0.006220   -0.041874    0.175675
    O   _2 y    0.037083   -0.036099   -0.050674    0.003328    0.013419
    O   _2 z   -0.022496    0.022934    0.005708   -0.034963    0.003310

    H   _1 x    0.092961    0.096736    0.667849    0.664574   -0.017329
    H   _1 y    0.573709    0.572923    0.002319   -0.052822   -0.015031
    H   _1 z    0.357022    0.359026   -0.090585   -0.065297   -0.052535

    H   _2 x   -0.092961    0.096736   -0.667849    0.664574    0.017329
    H   _2 y   -0.573709    0.572923   -0.002319   -0.052822    0.015031
    H   _2 z    0.357022   -0.359026   -0.090585    0.065297   -0.052535


                6   378 
  ----------------------

    O   _1 x   -0.012113
    O   _1 y    0.029889
    O   _1 z   -0.036102

    O   _2 x    0.012113
    O   _2 y   -0.029889
    O   _2 z   -0.036102

    H   _1 x    0.046073
    H   _1 y   -0.358502
    H   _1 z    0.572958

    H   _2 x   -0.046073
    H   _2 y    0.358502
    H   _2 z    0.572958




  Dipole Gradient in Normal Coordinate Basis (D/(A*amu**(1/2)))
  -------------------------------------------------------------


  mode           dMA/dQi        dMB/dQi        dMC/dQi
  ----------------------------------------------------
   1            0.000000      -0.000000       0.865945
   2            0.533028       1.519866      -0.000000
   3            0.000000      -0.000000      -0.090274
   4            1.546612       0.053897       0.000000
   5            0.000000      -0.000000      -0.201314
   6           -0.000000       0.000000       2.246541



                              Total Molecular Energy
                              ----------------------

             electronic     vibrational           total    energy 

            -150.786767        0.029217     -150.757550    Hartrees
           -33093869.76         6412.33    -33087457.43    cm-1
             -395890.60           76.71      -395813.89    kJ/mol
              -94620.12           18.33       -94601.79    kcal/mol


                          Molecular Partition Functions
                          -----------------------------

 Qtran is evaluated per mol at 1 atm. pressure.
 Qrot does not include symmetry numbers.
 Qvib does not include zero point energies
 (i.e., energy scale has vibrational ground state as zero).


 Temp.(K)  Translational     Rotational    Vibrational      Total

    50.00     8.9766D+04         119.85         1.0000   1.075841D+07
   100.00     5.0779D+05         337.51         1.0044   1.721365D+08
   200.00     2.8725D+06         952.55         1.0710   2.930590D+09
   273.15     6.2617D+06        1519.47         1.1621   1.105644D+10
   298.15     7.7942D+06        1732.54         1.1992   1.619397D+10
   300.00     7.9157D+06        1748.68         1.2021   1.663912D+10
   400.00     1.6249D+07        2691.29         1.3802   6.036025D+10
   500.00     2.8387D+07        3760.37         1.6078   1.716192D+11
   600.00     4.4778D+07        4942.41         1.8916   4.186289D+11
   700.00     6.5831D+07        6227.50         2.2395   9.181220D+11
   800.00     9.1920D+07        7607.96         2.6603   1.860391D+12
   900.00     1.2339D+08        9077.59         3.1637   3.543742D+12
  1000.00     1.6058D+08       10631.29         3.7613   6.421087D+12
  1500.00     4.4250D+08       19528.08         8.6793   7.499966D+13
  2000.00     9.0837D+08       30063.25        18.7201   5.112179D+14


                                +------------------+
                                ! Polarizabilities !
                                +------------------+


 Vibrational polarizabilities calculated acc. to Rinaldi et al.,
 Chem.Phys.Lett. 128 (1986) 177-181.


                        Vibrational Polarizabilities (au)
                        ---------------------------------

                         Ex          Ey          Ez

            Ex       1.287216    0.098990   -0.000000
            Ey       0.098990    0.157801    0.000000
            Ez      -0.000000    0.000000   40.592851



                   Vibrational Polarizabilities (angstroms**3)
                   -------------------------------------------

                         Ex          Ey          Ez

            Ex       0.190746    0.014669   -0.000000
            Ey       0.014669    0.023384    0.000000
            Ez      -0.000000    0.000000    6.015240



                   Vibrational Polarizabilities (angstroms**3)
                   -------------------------------------------

               (Along principal axes of moments of inertia)

                         EA          EB          EC

            EA       0.191029   -0.012949   -0.000000
            EB      -0.012949    0.023100    0.000000
            EC      -0.000000    0.000000    6.015240



 Vibrational mean polarization :    5.2441 cm**3 mol**-1


 CPU time statistics for ABACUS
 ------------------------------

 REST       00:00:01     235 %



 >>>> Total CPU  time used in ABACUS:   0.61 seconds
 >>>> Total wall time used in ABACUS:   0.70 seconds


                   .-------------------------------------------.
                   | End of Static Property Section (ABACUS) - |
                   `-------------------------------------------'



          <<<<<<<<<<<<<<<<<<<<<<<<<<<<<<<<<<<<<<<<<<<<<<<<<<<<<<<<<<<<<<
          <<<<<<<<<<<<<<<<<<<<  End of Optimization <<<<<<<<<<<<<<<<<<<<
          <<<<<<<<<<<<<<<<<<<<<<<<<<<<<<<<<<<<<<<<<<<<<<<<<<<<<<<<<<<<<<



                                  Final geometry
                                  --------------

 O   _1     1.3120261628            0.0988124959           -0.2495959857
 O   _2    -1.3120261628           -0.0988124959           -0.2495959857
 H   _1     1.5833689270            1.6000677163            0.6903217158
 H   _2    -1.5833689270           -1.6000677163            0.6903217158



@ Iter      Energy        Change       GradNorm  Index   StepLen    TrustRad #Rej
@ -------------------------------------------------------------------------------
@   0     -150.775493     0.000000     0.082785    0    0.327183*   0.500000   0 
@   1     -150.784901    -0.009407     0.027453    1    0.045491*   0.500000   0 
@   2x    -150.785410    -0.000510     0.001430    1    0.001798*   0.500000   0 
@   3     -150.783314     0.002097     0.077075    0    0.100603*   0.500000   0 
@   4     -150.786057    -0.002744     0.011014    1    0.328197*   0.500000   0 
@   5     -150.786599    -0.000541     0.015361    0    0.073883*   0.328197   0 
@   6     -150.786752    -0.000153     0.001572    0    0.053585*   0.328197   0 
@   7     -150.786766    -0.000015     0.000957    0    0.000886*   0.328197   0 
@   8     -150.786767    -0.000000     0.000001    0    0.000030*   0.328197   0 

@  *) Newton step taken.
@  x) Symmetry was broken after this iteration.


   Interatomic separations (in Angstrom):
   --------------------------------------

            O   _1      O   _2      H   _1      H   _2
            ------      ------      ------      ------
 O   _1:    0.000000
 O   _2:    1.392521    0.000000
 H   _1:    0.948223    1.844769    0.000000
 H   _2:    1.844769    0.948223    2.382420    0.000000


  Max    interatomic separation is    2.3824 Angstrom (    4.5021 Bohr)
  between atoms    4 and    3, "H   _2" and "H   _1".

  Min HX interatomic separation is    0.9482 Angstrom (    1.7919 Bohr)

  Min YX interatomic separation is    1.3925 Angstrom (    2.6315 Bohr)


  Bond distances (Angstrom):
  --------------------------

                  atom 1     atom 2       distance
                  ------     ------       --------
  bond distance:  O   _2     O   _1       1.392521
  bond distance:  H   _1     O   _1       0.948223
  bond distance:  H   _2     O   _2       0.948223


  Bond angles (degrees):
  ----------------------

                  atom 1     atom 2     atom 3         angle
                  ------     ------     ------         -----
  bond angle:     O   _2     O   _1     H   _1       102.352
  bond angle:     O   _1     O   _2     H   _2       102.352



@ Geometry converged in  9 iterations!
@ Please note that symmetry was broken during this optimization.

@ Energy at final geometry is       :    -150.786767 a.u.
@ Energy change during optimization :      -0.011273 a.u.
@                                            -29.598 kJ/mol
 
 >>>> Total CPU  time used in DALTON:   8.60 seconds
 >>>> Total wall time used in DALTON:   9.82 seconds

 
     Date and time (Linux)  : Mon Oct 21 14:56:20 2013
     Host name              : c10-6.local                             
