

     ************************************************************************
     *************** Dalton - An Electronic Structure Program ***************
     ************************************************************************

    This is output from DALTON (Release Dalton2013 patch 0)
   ----------------------------------------------------------------------------
    NOTE:
     
    Dalton is an experimental code for the evaluation of molecular
    properties using (MC)SCF, DFT, CI, and CC wave functions.
    The authors accept no responsibility for the performance of
    the code or for the correctness of the results.
     
    The code (in whole or part) is provided under a licence and
    is not to be reproduced for further distribution without
    the written permission of the authors or their representatives.
     
    See the home page "http://daltonprogram.org" for further information.
     
    If results obtained with this code are published,
    the appropriate citations would be both of:
     
       K. Aidas, C. Angeli, K. L. Bak, V. Bakken, R. Bast,
       L. Boman, O. Christiansen, R. Cimiraglia, S. Coriani,
       P. Dahle, E. K. Dalskov, U. Ekstroem, T. Enevoldsen,
       J. J. Eriksen, P. Ettenhuber, B. Fernandez, L. Ferrighi,
       H. Fliegl, L. Frediani, K. Hald, A. Halkier, C. Haettig,
       H. Heiberg, T. Helgaker, A. C. Hennum, H. Hettema,
       E. Hjertenaes, S. Hoest, I.-M. Hoeyvik, M. F. Iozzi,
       B. Jansik, H. J. Aa. Jensen, D. Jonsson, P. Joergensen,
       J. Kauczor, S. Kirpekar, T. Kjaergaard, W. Klopper,
       S. Knecht, R. Kobayashi, H. Koch, J. Kongsted, A. Krapp,
       K. Kristensen, A. Ligabue, O. B. Lutnaes, J. I. Melo,
       K. V. Mikkelsen, R. H. Myhre, C. Neiss, C. B. Nielsen,
       P. Norman, J. Olsen, J. M. H. Olsen, A. Osted,
       M. J. Packer, F. Pawlowski, T. B. Pedersen, P. F. Provasi,
       S. Reine, Z. Rinkevicius, T. A. Ruden, K. Ruud, V. Rybkin,
       P. Salek, C. C. M. Samson, A. Sanchez de Meras, T. Saue,
       S. P. A. Sauer, B. Schimmelpfennig, K. Sneskov,
       A. H. Steindal, K. O. Sylvester-Hvid, P. R. Taylor,
       A. M. Teale, E. I. Tellgren, D. P. Tew, A. J. Thorvaldsen,
       L. Thoegersen, O. Vahtras, M. A. Watson, D. J. D. Wilson,
       M. Ziolkowski and H. Agren.
       The Dalton quantum chemistry program system.
       WIREs Comput. Mol. Sci. 2013. doi: 10.1002/wcms.1172
    
    and
    
       Dalton, a Molecular Electronic Structure Program,
       Release DALTON2013.0 (2013), see http://daltonprogram.org
   ----------------------------------------------------------------------------

    Authors in alphabetical order (major contribution(s) in parenthesis):

  Kestutis Aidas,           Vilnius University,           Lithuania   (QM/MM)
  Celestino Angeli,         University of Ferrara,        Italy       (NEVPT2)
  Keld L. Bak,              UNI-C,                        Denmark     (AOSOPPA, non-adiabatic coupling, magnetic properties)
  Vebjoern Bakken,          University of Oslo,           Norway      (DALTON; geometry optimizer, symmetry detection)
  Radovan Bast,             KTH Stockholm                 Sweden      (DALTON installation and execution frameworks)
  Linus Boman,              NTNU,                         Norway      (Cholesky decomposition and subsystems)
  Ove Christiansen,         Aarhus University,            Denmark     (CC module)
  Renzo Cimiraglia,         University of Ferrara,        Italy       (NEVPT2)
  Sonia Coriani,            University of Trieste,        Italy       (CC module, MCD in RESPONS)
  Paal Dahle,               University of Oslo,           Norway      (Parallelization)
  Erik K. Dalskov,          UNI-C,                        Denmark     (SOPPA)
  Thomas Enevoldsen,        Univ. of Southern Denmark,    Denmark     (SOPPA)
  Janus J. Eriksen,         Aarhus University,            Denmark     (PE-MP2/SOPPA, TDA)
  Berta Fernandez,          U. of Santiago de Compostela, Spain       (doublet spin, ESR in RESPONS)
  Lara Ferrighi,            Aarhus University,            Denmark     (PCM Cubic response)
  Heike Fliegl,             University of Oslo,           Norway      (CCSD(R12))
  Luca Frediani,            UiT The Arctic U. of Norway,  Norway      (PCM)
  Bin Gao,                  UiT The Arctic U. of Norway,  Norway      (Gen1Int library)
  Christof Haettig,         Ruhr-University Bochum,       Germany     (CC module)
  Kasper Hald,              Aarhus University,            Denmark     (CC module)
  Asger Halkier,            Aarhus University,            Denmark     (CC module)
  Hanne Heiberg,            University of Oslo,           Norway      (geometry analysis, selected one-electron integrals)
  Trygve Helgaker,          University of Oslo,           Norway      (DALTON; ABACUS, ERI, DFT modules, London, and much more)
  Alf Christian Hennum,     University of Oslo,           Norway      (Parity violation)
  Hinne Hettema,            University of Auckland,       New Zealand (quadratic response in RESPONS; SIRIUS supersymmetry)
  Eirik Hjertenaes,         NTNU,                         Norway      (Cholesky decomposition)
  Maria Francesca Iozzi,    University of Oslo,           Norway      (RPA)
  Brano Jansik              Technical Univ. of Ostrava    Czech Rep.  (DFT cubic response)
  Hans Joergen Aa. Jensen,  Univ. of Southern Denmark,    Denmark     (DALTON; SIRIUS, RESPONS, ABACUS modules, London, and much more)
  Dan Jonsson,              UiT The Arctic U. of Norway,  Norway      (cubic response in RESPONS module)
  Poul Joergensen,          Aarhus University,            Denmark     (RESPONS, ABACUS, and CC modules)
  Joanna Kauczor,           Linkoeping University,        Sweden      (Complex polarization propagator (CPP) module)
  Sheela Kirpekar,          Univ. of Southern Denmark,    Denmark     (Mass-velocity & Darwin integrals)
  Wim Klopper,              KIT Karlsruhe,                Germany     (R12 code in CC, SIRIUS, and ABACUS modules)
  Stefan Knecht,            ETH Zurich,                   Switzerland (Parallel CI and MCSCF)
  Rika Kobayashi,           Australian National Univ.,    Australia   (DIIS in CC, London in MCSCF)
  Henrik Koch,              NTNU,                         Norway      (CC module, Cholesky decomposition)
  Jacob Kongsted,           Univ. of Southern Denmark,    Denmark     (Polarizable embedding, QM/MM)
  Andrea Ligabue,           University of Modena,         Italy       (CTOCD, AOSOPPA)
  Ola B. Lutnaes,           University of Oslo,           Norway      (DFT Hessian)
  Juan I. Melo,             University of Buenos Aires,   Argentina   (LRESC, Relativistic Effects on NMR Shieldings)
  Kurt V. Mikkelsen,        University of Copenhagen,     Denmark     (MC-SCRF and QM/MM)
  Rolf H. Myhre,            NTNU,                         Norway      (Cholesky, subsystems and ECC2)
  Christian Neiss,          Univ. Erlangen-Nuernberg,     Germany     (CCSD(R12))
  Christian B. Nielsen,     University of Copenhagen,     Denmark     (QM/MM)
  Patrick Norman,           Linkoeping University,        Sweden      (Cubic response and complex response in RESPONS)
  Jeppe Olsen,              Aarhus University,            Denmark     (SIRIUS CI/density modules)
  Jogvan Magnus H. Olsen,   Univ. of Southern Denmark,    Denmark     (Polarizable embedding, PE library, QM/MM)
  Anders Osted,             Copenhagen University,        Denmark     (QM/MM)
  Martin J. Packer,         University of Sheffield,      UK          (SOPPA)
  Filip Pawlowski,          Kazimierz Wielki University   Poland      (CC3)
  Thomas B. Pedersen,       University of Oslo,           Norway      (Cholesky decomposition)
  Patricio F. Provasi,      University of Northeastern,   Argentina   (Analysis of coupling constants in localized orbitals)
  Zilvinas Rinkevicius,     KTH Stockholm,                Sweden      (open-shell DFT, ESR)
  Elias Rudberg,            KTH Stockholm,                Sweden      (DFT grid and basis info)
  Torgeir A. Ruden,         University of Oslo,           Norway      (Numerical derivatives in ABACUS)
  Kenneth Ruud,             UiT The Arctic U. of Norway,  Norway      (DALTON; ABACUS magnetic properties and  much more)
  Pawel Salek,              KTH Stockholm,                Sweden      (DALTON; DFT code)
  Claire C. M. Samson       University of Karlsruhe       Germany     (Boys localization, r12 integrals in ERI)
  Alfredo Sanchez de Meras, University of Valencia,       Spain       (CC module, Cholesky decomposition)
  Trond Saue,               Paul Sabatier University,     France      (direct Fock matrix construction)
  Stephan P. A. Sauer,      University of Copenhagen,     Denmark     (SOPPA(CCSD), SOPPA prop., AOSOPPA, vibrational g-factors)
  Bernd Schimmelpfennig,    Forschungszentrum Karlsruhe,  Germany     (AMFI module)
  Kristian Sneskov,         Aarhus University,            Denmark     (QM/MM, PE-CC)
  Arnfinn H. Steindal,      UiT The Arctic U. of Norway,  Norway      (parallel QM/MM)
  K. O. Sylvester-Hvid,     University of Copenhagen,     Denmark     (MC-SCRF)
  Peter R. Taylor,          VLSCI/Univ. of Melbourne,     Australia   (Symmetry handling ABACUS, integral transformation)
  Andrew M. Teale,          University of Nottingham,     England     (DFT-AC, DFT-D)
  David P. Tew,             University of Bristol,        England     (CCSD(R12))
  Olav Vahtras,             KTH Stockholm,                Sweden      (triplet response, spin-orbit, ESR, TDDFT, open-shell DFT)
  David J. Wilson,          La Trobe University,          Australia   (DFT Hessian and DFT magnetizabilities)
  Hans Agren,               KTH Stockholm,                Sweden      (SIRIUS module, RESPONS, MC-SCRF solvation model)
 --------------------------------------------------------------------------------

     Date and time (Linux)  : Sun Sep  8 20:38:51 2013
     Host name              : lpqlx131.ups-tlse.fr                    

 * Work memory size             :    64000000 =  488.28 megabytes.

 * Directories for basis set searches:
   1) /home/bast/DALTON-2013.0-Source/build/test_geoopt_prop
   2) /home/bast/DALTON-2013.0-Source/build/basis


Compilation information
-----------------------

 Who compiled             | bast
 Host                     | lpqlx131.ups-tlse.fr
 System                   | Linux-3.8.5-201.fc18.x86_64
 CMake generator          | Unix Makefiles
 Processor                | x86_64
 64-bit integers          | OFF
 MPI                      | OFF
 Fortran compiler         | /usr/bin/gfortran
 Fortran compiler version | GNU Fortran (GCC) 4.7.2 20121109 (Red Hat 4.7.2-8)
 C compiler               | /usr/bin/gcc
 C compiler version       | gcc (GCC) 4.7.2 20121109 (Red Hat 4.7.2-8)
 C++ compiler             | /usr/bin/g++
 C++ compiler version     | g++ (GCC) 4.7.2 20121109 (Red Hat 4.7.2-8)
 Static linking           | OFF
 Last Git revision        | f34203295a86316e27f9e7b44f9b6769c4a046c0
 Configuration time       | 2013-09-08 20:31:27.952056


   Content of the .dal input file
 ----------------------------------

**DALTON INPUT                                    
.OPTIMIZE                                         
**WAVE FUNCTION                                   
.HF                                               
**PROPERTIES                                      
.QUADRU                                           
.VIBANA                                           
.MAGNET                                           
.SHIELD                                           
**END OF DALTON INPUT                             


   Content of the .mol file
 ----------------------------

BASIS                                                                          
6-311++G**                                                                     
Geometry optimization, calculation of quadrupole moment, magnetizabilities     
and nuclear shieldings at the optimized geometry                               
    2                                                                          
        8.    1                                                                
O     0.0 -0.2249058930 0.0                                                    
        1.    2                                                                
H     1.45235 0.899623 0.0                                                     
H    -1.45235 0.899623 0.0                                                     


       *******************************************************************
       *********** Output from DALTON general input processing ***********
       *******************************************************************

 --------------------------------------------------------------------------------
   Overall default print level:    0
   Print level for DALTON.STAT:    1

    "Old" integral transformation used (limited to max 255 basis functions)
 --------------------------------------------------------------------------------


 Chosen parameters for *OPTIMI :
 -------------------------------

 Default 1st order method will be used:   BFGS update.
 Optimization will be performed in redundant internal coordinates.
 Model Hessian will be used as initial Hessian.
 The model Hessian parameters of Roland Lindh will be used.


 Trust region method will be used to control step (default).



              >>>>>>>>>>>>>>>>>>>>>>>>>>>>>>>>>>>>>>>>>>>>>>>>>>>>>
              >>>>>>>>>> 1st Order Geometry Optimization >>>>>>>>>>
              >>>>>>>>>>>>>>>>>>>>>>>>>>>>>>>>>>>>>>>>>>>>>>>>>>>>>

 Reading .mol file to determine number of atoms for parallel runs.


                      SYMADD: Requested addition of symmetry
                      --------------------------------------

 Symmetry test threshold:  5.00E-06

 - molecule centered at center of mass and rotated so
   principal axes of inertia are along coordinate axes.

 Symmetry class found: C(2v)          

 The following elements were found:   X  Y     


   ****************************************************************************
   *************** Output of molecule and basis set information ***************
   ****************************************************************************


    The two title cards from your ".mol" input:
    ------------------------------------------------------------------------
 1: Geometry optimization, calculation of quadrupole moment, magnetizabiliti
 2: and nuclear shieldings at the optimized geometry                        
    ------------------------------------------------------------------------

  Atomic type no.    1
  --------------------
  Nuclear charge:   8.00000
  Number of symmetry independent centers:    1
  Number of basis sets to read;    2
  Basis set file used for this atomic type with Z =   8 :
     "/home/bast/DALTON-2013.0-Source/build/basis/6-311++G**"

  Info about the basis set file: your basis has no documentation.
  Basis set: 6-311++G**                                                                      

  Atomic type no.    2
  --------------------
  Nuclear charge:   1.00000
  Number of symmetry independent centers:    2
  Number of basis sets to read;    2
  Basis set file used for this atomic type with Z =   1 :
     "/home/bast/DALTON-2013.0-Source/build/basis/6-311++G**"

  Info about the basis set file: your basis has no documentation.
  Basis set: 6-311++G**                                                                      


                      SYMADD: Requested addition of symmetry
                      --------------------------------------

 Symmetry test threshold:  5.00E-06

 - molecule centered at center of mass and rotated so
   principal axes of inertia are along coordinate axes.

 Symmetry class found: C(2v)          

 Symmetry Independent Centres             
 ----------------------------
       8 :      0.00000000     0.00000000    -0.12585150  Isotope  1
       1 :      0.00000000     1.45235000     0.99867739  Isotope  1

 The following elements were found:   X  Y     


                         SYMGRP: Point group information
                         -------------------------------

Full point group is: C(2v)          
Represented as:      C2v

   * The point group was generated by:

      Reflection in the yz-plane
      Reflection in the xz-plane

   * Group multiplication table

        |  E   C2z  Oxz  Oyz
   -----+--------------------
     E  |  E   C2z  Oxz  Oyz
    C2z | C2z   E   Oyz  Oxz
    Oxz | Oxz  Oyz   E   C2z
    Oyz | Oyz  Oxz  C2z   E 

   * Character table

        |  E   C2z  Oxz  Oyz
   -----+--------------------
    A1  |   1    1    1    1
    B1  |   1   -1    1   -1
    B2  |   1   -1   -1    1
    A2  |   1    1   -1   -1

   * Direct product table

        | A1   B1   B2   A2 
   -----+--------------------
    A1  | A1   B1   B2   A2 
    B1  | B1   A1   A2   B2 
    B2  | B2   A2   A1   B1 
    A2  | A2   B2   B1   A1 


                                 Isotopic Masses
                                 ---------------

                           O          15.994915
                           H   _1      1.007825
                           H   _2      1.007825

                       Total mass:    18.010565 amu
                       Natural abundance:  99.730 %

 Center-of-mass coordinates (a.u.):    0.000000    0.000000    0.000000


  Atoms and basis sets
  --------------------

  Number of atom types :    2
  Total number of atoms:    3

  Basis set used is "6-311++G**" from the basis set library.

  label    atoms   charge   prim   cont     basis
  ----------------------------------------------------------------------
  O           1    8.0000    35    22      [12s6p1d|5s4p1d]                                   
  H           2    1.0000     9     7      [6s1p|4s1p]                                        
  ----------------------------------------------------------------------
  total:      3   10.0000    53    36
  ----------------------------------------------------------------------
  Spherical harmonic basis used.

  Threshold for neglecting AO integrals:  1.00D-12


  Cartesian Coordinates (a.u.)
  ----------------------------

  Total number of coordinates:    9
  O       :     1  x   0.0000000000    2  y   0.0000000000    3  z  -0.1258515023
  H   / 1 :     4  x   0.0000000000    5  y   1.4523500000    6  z   0.9986773907
  H   / 2 :     7  x   0.0000000000    8  y  -1.4523500000    9  z   0.9986773907


  Symmetry Coordinates
  --------------------

  Number of coordinates in each symmetry:     3    2    3    1

  Symmetry  A1  ( 1)

    1   O     z    3
    2   H     y    [  5  -    8 ]/2
    3   H     z    [  6  +    9 ]/2

  Symmetry  B1  ( 2)

    4   O     x    1
    5   H     x    [  4  +    7 ]/2

  Symmetry  B2  ( 3)

    6   O     y    2
    7   H     y    [  5  +    8 ]/2
    8   H     z    [  6  -    9 ]/2

  Symmetry  A2  ( 4)

    9   H     x    [  4  -    7 ]/2


   Interatomic separations (in Angstrom):
   --------------------------------------

            O           H   _1      H   _2
            ------      ------      ------
 O     :    0.000000
 H   _1:    0.972000    0.000000
 H   _2:    0.972000    1.537101    0.000000


  Max    interatomic separation is    1.5371 Angstrom (    2.9047 Bohr)
  between atoms    3 and    2, "H   _2" and "H   _1".

  Min HX interatomic separation is    0.9720 Angstrom (    1.8368 Bohr)


  Bond distances (Angstrom):
  --------------------------

                  atom 1     atom 2       distance
                  ------     ------       --------
  bond distance:  H   _1     O            0.972000
  bond distance:  H   _2     O            0.972000


  Bond angles (degrees):
  ----------------------

                  atom 1     atom 2     atom 3         angle
                  ------     ------     ------         -----
  bond angle:     H   _1     O          H   _2       104.500




 Principal moments of inertia (u*A**2) and principal axes
 --------------------------------------------------------

   IA       0.633889          0.000000    1.000000    0.000000
   IB       1.190584          0.000000    0.000000    1.000000
   IC       1.824473          1.000000    0.000000    0.000000


 Rotational constants
 --------------------

 The molecule is planar.

               A                   B                   C

         797267.3370         424479.9976         277000.0210 MHz
           26.593976           14.159129            9.239726 cm-1


@  Nuclear repulsion energy :    9.055004525638 Hartree


  Symmetry Orbitals
  -----------------

  Number of orbitals in each symmetry:          17    6   11    2


  Symmetry  A1 ( 1)

    1     O        1s         1
    2     O        1s         2
    3     O        1s         3
    4     O        1s         4
    5     O        1s         5
    6     O        2pz        8
    7     O        2pz       11
    8     O        2pz       14
    9     O        2pz       17
   10     O        3d0       20
   11     O        3d2+      22
   12     H        1s        23 +   24
   13     H        1s        25 +   26
   14     H        1s        27 +   28
   15     H        1s        29 +   30
   16     H        2py       33 -   34
   17     H        2pz       35 +   36


  Symmetry  B1 ( 2)

   18     O        2px        6
   19     O        2px        9
   20     O        2px       12
   21     O        2px       15
   22     O        3d1+      21
   23     H        2px       31 +   32


  Symmetry  B2 ( 3)

   24     O        2py        7
   25     O        2py       10
   26     O        2py       13
   27     O        2py       16
   28     O        3d1-      19
   29     H        1s        23 -   24
   30     H        1s        25 -   26
   31     H        1s        27 -   28
   32     H        1s        29 -   30
   33     H        2py       33 +   34
   34     H        2pz       35 -   36


  Symmetry  A2 ( 4)

   35     O        3d2-      18
   36     H        2px       31 -   32

  Symmetries of electric field:  B1 (2)  B2 (3)  A1 (1)

  Symmetries of magnetic field:  B2 (3)  B1 (2)  A2 (4)


                     .---------------------------------------.
                     | Starting in Integral Section (HERMIT) |
                     `---------------------------------------'



    *************************************************************************
    ****************** Output from HERMIT input processing ******************
    *************************************************************************



     ************************************************************************
     ************************** Output from HERINT **************************
     ************************************************************************


 Threshold for neglecting two-electron integrals:  1.00D-12
 Number of two-electron integrals written:       57092 ( 25.7% )
 Megabytes written:                              0.660

 >>>> Total CPU  time used in HERMIT:   0.03 seconds
 >>>> Total wall time used in HERMIT:   0.03 seconds


                        .----------------------------------.
                        | End of Integral Section (HERMIT) |
                        `----------------------------------'



                   .--------------------------------------------.
                   | Starting in Wave Function Section (SIRIUS) |
                   `--------------------------------------------'


 *** Output from Huckel module :

     Using EWMO model:          F
     Using EHT  model:          T
     Number of Huckel orbitals each symmetry:    4    1    2    0

 Huckel EHT eigenvalues for symmetry :  1
          -20.704225      -1.499390      -0.671093      -0.296848

 Huckel EHT eigenvalues for symmetry :  2
           -0.616200

 Huckel EHT eigenvalues for symmetry :  3
           -0.731017      -0.261127

 **********************************************************************
 *SIRIUS* a direct, restricted step, second order MCSCF program       *
 **********************************************************************

 
     Date and time (Linux)  : Sun Sep  8 20:38:51 2013
     Host name              : lpqlx131.ups-tlse.fr                    

 Title lines from ".mol" input file:
     Geometry optimization, calculation of quadrupole moment, magnetizabiliti
     and nuclear shieldings at the optimized geometry                        

 Print level on unit LUPRI =   2 is   0
 Print level on unit LUW4  =   2 is   5

@    Restricted, closed shell Hartree-Fock calculation.

 Initial molecular orbitals are obtained according to
 ".MOSTART EHT   " input option

     Wave function specification
     ============================
@    For the wave function of type :      >>> HF <<<
@    Number of closed shell electrons          10
@    Number of electrons in active shells       0
@    Total charge of the molecule               0

@    Spin multiplicity and 2 M_S                1         0
     Total number of symmetries                 4
@    Reference state symmetry                   1

     Orbital specifications
     ======================
     Abelian symmetry species          All |    1    2    3    4
                                       --- |  ---  ---  ---  ---
     Total number of orbitals           36 |   17    6   11    2
     Number of basis functions          36 |   17    6   11    2

      ** Automatic occupation of RHF orbitals **

      -- Initial occupation of symmetries is determined from extended Huckel guess.           
      -- Initial occupation of symmetries is :
@    Occupied SCF orbitals               5 |    3    1    1    0

     Maximum number of Fock   iterations      0
     Maximum number of DIIS   iterations     60
     Maximum number of QC-SCF iterations     60
     Threshold for SCF convergence     1.00D-05


 >>>>> DIIS optimization of Hartree-Fock <<<<<

 C1-DIIS algorithm; max error vectors =   10

 Automatic occupation of symmetries with  10 electrons.

 Iter     Total energy    Error norm  Delta(E)    SCF occupation
 -----------------------------------------------------------------------------
     (Precalculated two-electron integrals are transformed to P-supermatrix elements.
      Threshold for discarding integrals :  1.00D-12 )
@  1  -75.8294835460       2.39D+00  -7.58D+01     3   1   1   0
      Virial theorem: -V/T =      1.997271
@      MULPOP O      -0.56; H   _1  0.28; H   _2  0.28; 
 -----------------------------------------------------------------------------
@  2  -76.0427775618       3.85D-01  -2.13D-01     3   1   1   0
      Virial theorem: -V/T =      2.001859
@      MULPOP O      -0.46; H   _1  0.23; H   _2  0.23; 
 -----------------------------------------------------------------------------
@  3  -76.0506585657       8.69D-02  -7.88D-03     3   1   1   0
      Virial theorem: -V/T =      2.002129
@      MULPOP O      -0.50; H   _1  0.25; H   _2  0.25; 
 -----------------------------------------------------------------------------
@  4  -76.0514148689       2.07D-02  -7.56D-04     3   1   1   0
      Virial theorem: -V/T =      2.001298
@      MULPOP O      -0.51; H   _1  0.26; H   _2  0.26; 
 -----------------------------------------------------------------------------
@  5  -76.0514535670       9.42D-03  -3.87D-05     3   1   1   0
      Virial theorem: -V/T =      2.001693
@      MULPOP O      -0.51; H   _1  0.26; H   _2  0.26; 
 -----------------------------------------------------------------------------
@  6  -76.0514589341       1.95D-03  -5.37D-06     3   1   1   0
      Virial theorem: -V/T =      2.001527
@      MULPOP O      -0.51; H   _1  0.26; H   _2  0.26; 
 -----------------------------------------------------------------------------
@  7  -76.0514595020       3.21D-04  -5.68D-07     3   1   1   0
      Virial theorem: -V/T =      2.001554
@      MULPOP O      -0.51; H   _1  0.26; H   _2  0.26; 
 -----------------------------------------------------------------------------
@  8  -76.0514595189       4.79D-05  -1.69D-08     3   1   1   0
      Virial theorem: -V/T =      2.001554
@      MULPOP O      -0.51; H   _1  0.26; H   _2  0.26; 
 -----------------------------------------------------------------------------
@  9  -76.0514595192       9.11D-06  -2.63D-10     3   1   1   0

@ *** DIIS converged in   9 iterations !
@     Converged SCF energy, gradient:    -76.051459519190    9.11D-06
    - total time used in SIRFCK :              0.00 seconds


 *** SCF orbital energy analysis ***

 Only the five lowest virtual orbital energies printed in each symmetry.

 Number of electrons :   10
 Orbital occupations :    3    1    1    0

 Sym       Hartree-Fock orbital energies

  1    -20.56922370    -1.34804017    -0.58147029     0.04268016     0.24249831
         0.24495339     0.32485716     0.72670592

  2     -0.50896889     0.24568358     1.24411960     1.71081709     3.47137639
         5.48825086

  3     -0.71259788     0.07205205     0.25777257     0.31867226     0.67492512
         1.24798527

  4      1.50204479     3.52160278

    E(LUMO) :     0.04268016 au (symmetry 1)
  - E(HOMO) :    -0.50896889 au (symmetry 2)
  ------------------------------------------
    gap     :     0.55164905 au

 >>> Writing SIRIFC interface file <<<

 >>>> CPU and wall time for SCF :       0.010       0.011


                       .-----------------------------------.
                       | >>> Final results from SIRIUS <<< |
                       `-----------------------------------'


@    Spin multiplicity:           1
@    Spatial symmetry:            1
@    Total charge of molecule:    0

@    Final HF energy:             -76.051459519190                 
@    Nuclear repulsion:             9.055004525638
@    Electronic energy:           -85.106464044828

@    Final gradient norm:           0.000009105820

 
     Date and time (Linux)  : Sun Sep  8 20:38:51 2013
     Host name              : lpqlx131.ups-tlse.fr                    

 (Only coefficients >0.0100 are printed.)

 Molecular orbitals for symmetry species  1
 ------------------------------------------

    Orbital         1        2        3        4        5
   1 O   :1s     0.5515  -0.1140   0.0375  -0.0169  -0.0112
   2 O   :1s     0.4717  -0.1904   0.0639  -0.0299  -0.0191
   3 O   :1s     0.0055   0.5435  -0.1978   0.1118   0.0721
   4 O   :1s    -0.0008   0.3877  -0.3034   0.0048  -0.0172
   5 O   :1s     0.0009  -0.0158  -0.0142   0.9376   2.4976
   6 O   :2pz    0.0018   0.0352   0.2521   0.0371  -0.0909
   7 O   :2pz   -0.0007   0.0605   0.3840   0.0538  -0.0759
   8 O   :2pz    0.0002   0.0192   0.2997   0.0922  -0.5805
   9 O   :2pz    0.0001  -0.0001   0.0602   0.0652   2.1395
  10 O   :3d0   -0.0000   0.0027   0.0163   0.0024  -0.0080
  11 O   :3d2+   0.0001  -0.0075  -0.0048   0.0004   0.0118
  12 H   :1s     0.0002   0.0905   0.0881   0.0012  -0.0180
  13 H   :1s     0.0002   0.0812   0.1527  -0.0639   0.0940
  14 H   :1s    -0.0003  -0.0043   0.0193  -0.0462  -1.5814
  15 H   :1s    -0.0001   0.0077   0.0005  -0.8169  -0.0607
  16 H   :2py   -0.0001  -0.0234  -0.0312  -0.0134  -0.0245
  17 H   :2pz   -0.0001  -0.0145   0.0085  -0.0093   0.0023

 Molecular orbitals for symmetry species  2
 ------------------------------------------

    Orbital         1        2        3
   1 O   :2px    0.2879   0.1158  -0.2478
   2 O   :2px    0.4452   0.0955  -0.8882
   3 O   :2px    0.4127   0.5907   1.5991
   4 O   :2px    0.0826  -1.2808  -0.7322
   5 O   :3d1+   0.0163   0.0065  -0.0037
   6 H   :2px    0.0319  -0.0116   0.0248

 Molecular orbitals for symmetry species  3
 ------------------------------------------

    Orbital         1        2        3
   1 O   :2py    0.2273  -0.0390  -0.0711
   2 O   :2py    0.3500  -0.0736  -0.1027
   3 O   :2py    0.2150   0.0117  -0.0578
   4 O   :2py    0.0145  -0.4679  -2.5222
   5 O   :3d1-   0.0279  -0.0002   0.0232
   6 H   :1s     0.1461  -0.0117   0.0683
   7 H   :1s     0.2175   0.0171  -0.1714
   8 H   :1s     0.0316  -0.0507   3.5956
   9 H   :1s     0.0123   2.4917  -0.4947
  10 H   :2py   -0.0199   0.0107   0.0093
  11 H   :2pz   -0.0269   0.0103   0.0304

 Molecular orbitals for symmetry species  4
 ------------------------------------------

    Orbital         1        2
   1 O   :3d2-  -0.1271   1.0488
   2 H   :2px   -0.6877  -0.3314



 >>>> Total CPU  time used in SIRIUS :      0.01 seconds
 >>>> Total wall time used in SIRIUS :      0.02 seconds

 
     Date and time (Linux)  : Sun Sep  8 20:38:51 2013
     Host name              : lpqlx131.ups-tlse.fr                    


                     .---------------------------------------.
                     | End of Wave Function Section (SIRIUS) |
                     `---------------------------------------'


     Order of analytical energy-derivatives available:   2
     This will be the default.

 Center of mass dipole origin  :    0.000000    0.000000    0.000000

 Center of mass gauge origin   :    0.000000    0.000000    0.000000


                 .------------------------------------------------.
                 | Starting in Static Property Section (ABACUS) - |
                 `------------------------------------------------'


 
     Date and time (Linux)  : Sun Sep  8 20:38:51 2013
     Host name              : lpqlx131.ups-tlse.fr                    


   ***************************************************************************
   ************************ FINAL RESULTS from ABACUS ************************
   ***************************************************************************


 
     Date and time (Linux)  : Sun Sep  8 20:38:51 2013
     Host name              : lpqlx131.ups-tlse.fr                    


                             Molecular geometry (au)
                             -----------------------

 O          0.0000000000            0.0000000000           -0.1258515023
 H   _1     0.0000000000            1.4523500000            0.9986773907
 H   _2     0.0000000000           -1.4523500000            0.9986773907





                        Molecular wave function and energy
                        ----------------------------------

     Spin multiplicity  1     State number       1     Total charge       0

     Total energy        -76.0514595192 au (Hartrees)
                         -2069.46548471 eV
                           -199673.0762 kJ/mol


                             Relativistic corrections
                             ------------------------

     Darwin correction:                          0.1974514209 au
     Mass-velocity correction:                  -0.2489637574 au

     Total relativistic correction:             -0.0515123365 au (0.0677%)
     Non-relativistic + relativistic energy:   -76.1029718556 au




                             Molecular gradient (au)
                             -----------------------

                         O   z     -0.0410235861
                         H   y      0.0495122402
                         H   z      0.0410235861



 O          0.0000000000            0.0000000000           -0.0410235861
 H   _1     0.0000000000            0.0247561201            0.0205117930
 H   _2     0.0000000000           -0.0247561201            0.0205117930





                                  Dipole moment
                                  -------------

                 au               Debye          C m (/(10**-30)
              0.887037           2.254623           7.520612


                             Dipole moment components
                             ------------------------

                 au               Debye          C m (/(10**-30)

      z      0.88703692         2.25462282         7.52061221


   Units:   1 a.u. =   2.54175 Debye 
            1 a.u. =   8.47835 (10**-30) C m (SI)




   Interatomic separations (in Angstrom):
   --------------------------------------

            O           H   _1      H   _2
            ------      ------      ------
 O     :    0.000000
 H   _1:    0.972000    0.000000
 H   _2:    0.972000    1.537101    0.000000


  Max    interatomic separation is    1.5371 Angstrom (    2.9047 Bohr)
  between atoms    3 and    2, "H   _2" and "H   _1".

  Min HX interatomic separation is    0.9720 Angstrom (    1.8368 Bohr)


  Bond distances (Angstrom):
  --------------------------

                  atom 1     atom 2       distance
                  ------     ------       --------
  bond distance:  H   _1     O            0.972000
  bond distance:  H   _2     O            0.972000


  Bond angles (degrees):
  ----------------------

                  atom 1     atom 2     atom 3         angle
                  ------     ------     ------         -----
  bond angle:     H   _1     O          H   _2       104.500




 CPU time statistics for ABACUS
 ------------------------------




 >>>> Total CPU  time used in ABACUS:   0.04 seconds
 >>>> Total wall time used in ABACUS:   0.04 seconds


                   .-------------------------------------------.
                   | End of Static Property Section (ABACUS) - |
                   `-------------------------------------------'



           :::::::::::::::::::::::::::::::::::::::::::::::::::::::::::
           ::::::::::::::: Optimization Control Center :::::::::::::::
           :::::::::::::::::::::::::::::::::::::::::::::::::::::::::::



                                Next geometry (au)
                                ------------------

 O          0.0000000000            0.0000000000           -0.1036694787
 H   _1     0.0000000000            1.4181911744            0.9875863789
 H   _2     0.0000000000           -1.4181911744            0.9875863789





                             Optimization information
                             ------------------------

 Iteration number               :       0
 End of optimization            :       F 
 Energy at this geometry is     :     -76.051460
 Norm of gradient               :       0.061238
 Norm of step                   :       0.095872
 Updated trust radius           :       0.500000
 Total Hessian index            :       0




 **************************************************************************************
 ****************** Output of molecule and basis set info suppressed ******************
 **************************************************************************************



                     .---------------------------------------.
                     | Starting in Integral Section (HERMIT) |
                     `---------------------------------------'



    *************************************************************************
    ****************** Output from HERMIT input processing ******************
    *************************************************************************


 Threshold for neglecting two-electron integrals:  1.00D-12
 Number of two-electron integrals written:       57092 ( 25.7% )
 Megabytes written:                              0.660

 >>>> Total CPU  time used in HERMIT:   0.03 seconds
 >>>> Total wall time used in HERMIT:   0.03 seconds


                        .----------------------------------.
                        | End of Integral Section (HERMIT) |
                        `----------------------------------'



                   .--------------------------------------------.
                   | Starting in Wave Function Section (SIRIUS) |
                   `--------------------------------------------'


 **********************************************************************
 *SIRIUS* a direct, restricted step, second order MCSCF program       *
 **********************************************************************

 (Wave function specification suppressed here, see output above for initial geometry.)


 >>>>> DIIS optimization of Hartree-Fock <<<<<

 C1-DIIS algorithm; max error vectors =   10

 Iter      Total energy        Error norm    Delta(E)  DIIS dim.
 -----------------------------------------------------------------------------
     (Precalculated two-electron integrals are transformed to P-supermatrix elements.
      Threshold for discarding integrals :  1.00D-12 )
@  1    -76.0529083258        9.30019D-02   -1.45D-03    1
      Virial theorem: -V/T =      2.000987
@      MULPOP O      -0.51; H   _1  0.26; H   _2  0.26; 
 -----------------------------------------------------------------------------
@  2    -76.0532779161        2.74995D-02   -3.70D-04    2
      Virial theorem: -V/T =      1.999800
@      MULPOP O      -0.51; H   _1  0.26; H   _2  0.26; 
 -----------------------------------------------------------------------------
@  3    -76.0533082403        1.24480D-02   -3.03D-05    3
      Virial theorem: -V/T =      2.000499
@      MULPOP O      -0.51; H   _1  0.25; H   _2  0.25; 
 -----------------------------------------------------------------------------
@  4    -76.0533161888        2.14121D-03   -7.95D-06    4
      Virial theorem: -V/T =      2.000264
@      MULPOP O      -0.51; H   _1  0.25; H   _2  0.25; 
 -----------------------------------------------------------------------------
@  5    -76.0533168500        5.69477D-04   -6.61D-07    5
      Virial theorem: -V/T =      2.000294
@      MULPOP O      -0.51; H   _1  0.26; H   _2  0.26; 
 -----------------------------------------------------------------------------
@  6    -76.0533169156        1.06094D-04   -6.55D-08    6
      Virial theorem: -V/T =      2.000297
@      MULPOP O      -0.51; H   _1  0.26; H   _2  0.26; 
 -----------------------------------------------------------------------------
@  7    -76.0533169175        1.73542D-05   -1.97D-09    7
      Virial theorem: -V/T =      2.000297
@      MULPOP O      -0.51; H   _1  0.26; H   _2  0.26; 
 -----------------------------------------------------------------------------
@  8    -76.0533169176        2.57567D-06   -4.74D-11    8

@ *** DIIS converged in   8 iterations !
@     Converged SCF energy, gradient:    -76.053316917596    2.58D-06
    - total time used in SIRFCK :              0.00 seconds


 *** SCF orbital energy analysis ***

 Only the five lowest virtual orbital energies printed in each symmetry.

 Number of electrons :   10
 Orbital occupations :    3    1    1    0

 Sym       Hartree-Fock orbital energies

  1    -20.56460026    -1.36070182    -0.58550264     0.04341298     0.24107676
         0.25148369     0.32291862     0.74432258

  2     -0.51086793     0.24533896     1.24392793     1.71874300     3.49261595
         5.49097085

  3     -0.72693131     0.07235161     0.26188050     0.31900900     0.69051870
         1.24569017

  4      1.50681611     3.54833184

    E(LUMO) :     0.04341298 au (symmetry 1)
  - E(HOMO) :    -0.51086793 au (symmetry 2)
  ------------------------------------------
    gap     :     0.55428091 au

 >>> Writing SIRIFC interface file <<<

 >>>> CPU and wall time for SCF :       0.009       0.009


                       .-----------------------------------.
                       | >>> Final results from SIRIUS <<< |
                       `-----------------------------------'


@    Spin multiplicity:           1
@    Spatial symmetry:            1
@    Total charge of molecule:    0

@    Final HF energy:             -76.053316917596                 
@    Nuclear repulsion:             9.293892537021
@    Electronic energy:           -85.347209454617

@    Final gradient norm:           0.000002575675

 
     Date and time (Linux)  : Sun Sep  8 20:38:51 2013
     Host name              : lpqlx131.ups-tlse.fr                    



 >>>> Total CPU  time used in SIRIUS :      0.01 seconds
 >>>> Total wall time used in SIRIUS :      0.01 seconds

 
     Date and time (Linux)  : Sun Sep  8 20:38:51 2013
     Host name              : lpqlx131.ups-tlse.fr                    


                     .---------------------------------------.
                     | End of Wave Function Section (SIRIUS) |
                     `---------------------------------------'

 Trust radius increased due to good ratio.
 Updated trust radius   0.50000

     Order of analytical energy-derivatives available:   2
     This will be the default.

 Center of mass dipole origin  :    0.000000    0.000000    0.018458

 Center of mass gauge origin   :    0.000000    0.000000    0.018458


                 .------------------------------------------------.
                 | Starting in Static Property Section (ABACUS) - |
                 `------------------------------------------------'


 
     Date and time (Linux)  : Sun Sep  8 20:38:51 2013
     Host name              : lpqlx131.ups-tlse.fr                    


   ***************************************************************************
   ************************ FINAL RESULTS from ABACUS ************************
   ***************************************************************************


 
     Date and time (Linux)  : Sun Sep  8 20:38:51 2013
     Host name              : lpqlx131.ups-tlse.fr                    


 CPU time statistics for ABACUS
 ------------------------------




 >>>> Total CPU  time used in ABACUS:   0.05 seconds
 >>>> Total wall time used in ABACUS:   0.04 seconds


                   .-------------------------------------------.
                   | End of Static Property Section (ABACUS) - |
                   `-------------------------------------------'



           :::::::::::::::::::::::::::::::::::::::::::::::::::::::::::
           ::::::::::::::: Optimization Control Center :::::::::::::::
           :::::::::::::::::::::::::::::::::::::::::::::::::::::::::::



                                Next geometry (au)
                                ------------------

 O          0.0000000000            0.0000000000           -0.0930949333
 H   _1     0.0000000000            1.4159354362            0.9822991061
 H   _2     0.0000000000           -1.4159354362            0.9822991061





                             Optimization information
                             ------------------------

 Iteration number               :       1
 End of optimization            :       F 
 Energy at this geometry is     :     -76.053317
 Energy change from last geom.  :      -0.001857
 Norm of gradient               :       0.013668
 Norm of step                   :       0.020967
 Updated trust radius           :       0.500000
 Total Hessian index            :       0




 **************************************************************************************
 ****************** Output of molecule and basis set info suppressed ******************
 **************************************************************************************



                     .---------------------------------------.
                     | Starting in Integral Section (HERMIT) |
                     `---------------------------------------'



    *************************************************************************
    ****************** Output from HERMIT input processing ******************
    *************************************************************************


 Threshold for neglecting two-electron integrals:  1.00D-12
 Number of two-electron integrals written:       57092 ( 25.7% )
 Megabytes written:                              0.660

 >>>> Total CPU  time used in HERMIT:   0.03 seconds
 >>>> Total wall time used in HERMIT:   0.03 seconds


                        .----------------------------------.
                        | End of Integral Section (HERMIT) |
                        `----------------------------------'



                   .--------------------------------------------.
                   | Starting in Wave Function Section (SIRIUS) |
                   `--------------------------------------------'


 **********************************************************************
 *SIRIUS* a direct, restricted step, second order MCSCF program       *
 **********************************************************************

 (Wave function specification suppressed here, see output above for initial geometry.)


 >>>>> DIIS optimization of Hartree-Fock <<<<<

 C1-DIIS algorithm; max error vectors =   10

 Iter      Total energy        Error norm    Delta(E)  DIIS dim.
 -----------------------------------------------------------------------------
     (Precalculated two-electron integrals are transformed to P-supermatrix elements.
      Threshold for discarding integrals :  1.00D-12 )
@  1    -76.0533776741        2.54776D-02   -6.08D-05    1
      Virial theorem: -V/T =      2.000143
@      MULPOP O      -0.51; H   _1  0.26; H   _2  0.26; 
 -----------------------------------------------------------------------------
@  2    -76.0534085433        7.44273D-03   -3.09D-05    2
      Virial theorem: -V/T =      1.999856
@      MULPOP O      -0.51; H   _1  0.26; H   _2  0.26; 
 -----------------------------------------------------------------------------
@  3    -76.0534111204        3.52003D-03   -2.58D-06    3
      Virial theorem: -V/T =      2.000042
@      MULPOP O      -0.51; H   _1  0.26; H   _2  0.26; 
 -----------------------------------------------------------------------------
@  4    -76.0534117804        6.20728D-04   -6.60D-07    4
      Virial theorem: -V/T =      1.999977
@      MULPOP O      -0.51; H   _1  0.26; H   _2  0.26; 
 -----------------------------------------------------------------------------
@  5    -76.0534118365        1.52129D-04   -5.60D-08    5
      Virial theorem: -V/T =      1.999986
@      MULPOP O      -0.51; H   _1  0.26; H   _2  0.26; 
 -----------------------------------------------------------------------------
@  6    -76.0534118410        3.07318D-05   -4.53D-09    6
      Virial theorem: -V/T =      1.999987
@      MULPOP O      -0.51; H   _1  0.26; H   _2  0.26; 
 -----------------------------------------------------------------------------
@  7    -76.0534118412        5.30220D-06   -1.69D-10    7

@ *** DIIS converged in   7 iterations !
@     Converged SCF energy, gradient:    -76.053411841177    5.30D-06
    - total time used in SIRFCK :              0.00 seconds


 *** SCF orbital energy analysis ***

 Only the five lowest virtual orbital energies printed in each symmetry.

 Number of electrons :   10
 Orbital occupations :    3    1    1    0

 Sym       Hartree-Fock orbital energies

  1    -20.56318906    -1.36339489    -0.58519950     0.04365711     0.24067802
         0.25287059     0.32220878     0.74681016

  2     -0.51116788     0.24527806     1.24392129     1.72444762     3.49438669
         5.49188827

  3     -0.73175646     0.07237245     0.26304763     0.31894567     0.69576482
         1.24442257

  4      1.50589522     3.55733623

    E(LUMO) :     0.04365711 au (symmetry 1)
  - E(HOMO) :    -0.51116788 au (symmetry 2)
  ------------------------------------------
    gap     :     0.55482499 au

 >>> Writing SIRIFC interface file <<<

 >>>> CPU and wall time for SCF :       0.007       0.008


                       .-----------------------------------.
                       | >>> Final results from SIRIUS <<< |
                       `-----------------------------------'


@    Spin multiplicity:           1
@    Spatial symmetry:            1
@    Total charge of molecule:    0

@    Final HF energy:             -76.053411841177                 
@    Nuclear repulsion:             9.351911055507
@    Electronic energy:           -85.405322896684

@    Final gradient norm:           0.000005302204

 
     Date and time (Linux)  : Sun Sep  8 20:38:51 2013
     Host name              : lpqlx131.ups-tlse.fr                    



 >>>> Total CPU  time used in SIRIUS :      0.01 seconds
 >>>> Total wall time used in SIRIUS :      0.01 seconds

 
     Date and time (Linux)  : Sun Sep  8 20:38:51 2013
     Host name              : lpqlx131.ups-tlse.fr                    


                     .---------------------------------------.
                     | End of Wave Function Section (SIRIUS) |
                     `---------------------------------------'

 Trust radius increased due to good ratio.
 Updated trust radius   0.50000

     Order of analytical energy-derivatives available:   2
     This will be the default.

 Center of mass dipole origin  :    0.000000    0.000000    0.027258

 Center of mass gauge origin   :    0.000000    0.000000    0.027258


                 .------------------------------------------------.
                 | Starting in Static Property Section (ABACUS) - |
                 `------------------------------------------------'


 
     Date and time (Linux)  : Sun Sep  8 20:38:51 2013
     Host name              : lpqlx131.ups-tlse.fr                    


   ***************************************************************************
   ************************ FINAL RESULTS from ABACUS ************************
   ***************************************************************************


 
     Date and time (Linux)  : Sun Sep  8 20:38:51 2013
     Host name              : lpqlx131.ups-tlse.fr                    


 CPU time statistics for ABACUS
 ------------------------------




 >>>> Total CPU  time used in ABACUS:   0.04 seconds
 >>>> Total wall time used in ABACUS:   0.04 seconds


                   .-------------------------------------------.
                   | End of Static Property Section (ABACUS) - |
                   `-------------------------------------------'



           :::::::::::::::::::::::::::::::::::::::::::::::::::::::::::
           ::::::::::::::: Optimization Control Center :::::::::::::::
           :::::::::::::::::::::::::::::::::::::::::::::::::::::::::::



                                Next geometry (au)
                                ------------------

 O          0.0000000000            0.0000000000           -0.0899263525
 H   _1     0.0000000000            1.4197621139            0.9807148157
 H   _2     0.0000000000           -1.4197621139            0.9807148157





                             Optimization information
                             ------------------------

 Iteration number               :       2
 End of optimization            :       F 
 Energy at this geometry is     :     -76.053412
 Energy change from last geom.  :      -0.000095
 Norm of gradient               :       0.002077
 Norm of step                   :       0.010281
 Updated trust radius           :       0.500000
 Total Hessian index            :       0




 **************************************************************************************
 ****************** Output of molecule and basis set info suppressed ******************
 **************************************************************************************



                     .---------------------------------------.
                     | Starting in Integral Section (HERMIT) |
                     `---------------------------------------'



    *************************************************************************
    ****************** Output from HERMIT input processing ******************
    *************************************************************************


 Threshold for neglecting two-electron integrals:  1.00D-12
 Number of two-electron integrals written:       57092 ( 25.7% )
 Megabytes written:                              0.660

 >>>> Total CPU  time used in HERMIT:   0.03 seconds
 >>>> Total wall time used in HERMIT:   0.03 seconds


                        .----------------------------------.
                        | End of Integral Section (HERMIT) |
                        `----------------------------------'



                   .--------------------------------------------.
                   | Starting in Wave Function Section (SIRIUS) |
                   `--------------------------------------------'


 **********************************************************************
 *SIRIUS* a direct, restricted step, second order MCSCF program       *
 **********************************************************************

 (Wave function specification suppressed here, see output above for initial geometry.)


 >>>>> DIIS optimization of Hartree-Fock <<<<<

 C1-DIIS algorithm; max error vectors =   10

 Iter      Total energy        Error norm    Delta(E)  DIIS dim.
 -----------------------------------------------------------------------------
     (Precalculated two-electron integrals are transformed to P-supermatrix elements.
      Threshold for discarding integrals :  1.00D-12 )
@  1    -76.0534191877        6.04218D-03   -7.35D-06    1
      Virial theorem: -V/T =      1.999987
@      MULPOP O      -0.51; H   _1  0.26; H   _2  0.26; 
 -----------------------------------------------------------------------------
@  2    -76.0534214079        1.15729D-03   -2.22D-06    2
      Virial theorem: -V/T =      1.999999
@      MULPOP O      -0.51; H   _1  0.26; H   _2  0.26; 
 -----------------------------------------------------------------------------
@  3    -76.0534215426        1.89692D-04   -1.35D-07    3
      Virial theorem: -V/T =      2.000000
@      MULPOP O      -0.51; H   _1  0.26; H   _2  0.26; 
 -----------------------------------------------------------------------------
@  4    -76.0534215473        6.30637D-05   -4.68D-09    4
      Virial theorem: -V/T =      2.000003
@      MULPOP O      -0.51; H   _1  0.26; H   _2  0.26; 
 -----------------------------------------------------------------------------
@  5    -76.0534215476        1.89702D-05   -2.72D-10    5
      Virial theorem: -V/T =      2.000002
@      MULPOP O      -0.51; H   _1  0.26; H   _2  0.26; 
 -----------------------------------------------------------------------------
@  6    -76.0534215476        3.87122D-06   -3.93D-11    6

@ *** DIIS converged in   6 iterations !
@     Converged SCF energy, gradient:    -76.053421547594    3.87D-06
    - total time used in SIRFCK :              0.00 seconds


 *** SCF orbital energy analysis ***

 Only the five lowest virtual orbital energies printed in each symmetry.

 Number of electrons :   10
 Orbital occupations :    3    1    1    0

 Sym       Hartree-Fock orbital energies

  1    -20.56303761    -1.36304895    -0.58440014     0.04370063     0.24065898
         0.25271778     0.32207633     0.74557392

  2     -0.51104504     0.24529589     1.24397856     1.72666045     3.49215501
         5.49198226

  3     -0.73248781     0.07234220     0.26317830     0.31884659     0.69657633
         1.24397624

  4      1.50455225     3.55870882

    E(LUMO) :     0.04370063 au (symmetry 1)
  - E(HOMO) :    -0.51104504 au (symmetry 2)
  ------------------------------------------
    gap     :     0.55474567 au

 >>> Writing SIRIFC interface file <<<

 >>>> CPU and wall time for SCF :       0.007       0.007


                       .-----------------------------------.
                       | >>> Final results from SIRIUS <<< |
                       `-----------------------------------'


@    Spin multiplicity:           1
@    Spatial symmetry:            1
@    Total charge of molecule:    0

@    Final HF energy:             -76.053421547594                 
@    Nuclear repulsion:             9.350032217912
@    Electronic energy:           -85.403453765506

@    Final gradient norm:           0.000003871221

 
     Date and time (Linux)  : Sun Sep  8 20:38:51 2013
     Host name              : lpqlx131.ups-tlse.fr                    



 >>>> Total CPU  time used in SIRIUS :      0.01 seconds
 >>>> Total wall time used in SIRIUS :      0.01 seconds

 
     Date and time (Linux)  : Sun Sep  8 20:38:51 2013
     Host name              : lpqlx131.ups-tlse.fr                    


                     .---------------------------------------.
                     | End of Wave Function Section (SIRIUS) |
                     `---------------------------------------'

 Trust radius increased due to good ratio.
 Updated trust radius   0.50000

     Order of analytical energy-derivatives available:   2
     This will be the default.

 Center of mass dipole origin  :    0.000000    0.000000    0.029894

 Center of mass gauge origin   :    0.000000    0.000000    0.029894


                 .------------------------------------------------.
                 | Starting in Static Property Section (ABACUS) - |
                 `------------------------------------------------'


 
     Date and time (Linux)  : Sun Sep  8 20:38:51 2013
     Host name              : lpqlx131.ups-tlse.fr                    


   ***************************************************************************
   ************************ FINAL RESULTS from ABACUS ************************
   ***************************************************************************


 
     Date and time (Linux)  : Sun Sep  8 20:38:51 2013
     Host name              : lpqlx131.ups-tlse.fr                    


 CPU time statistics for ABACUS
 ------------------------------




 >>>> Total CPU  time used in ABACUS:   0.04 seconds
 >>>> Total wall time used in ABACUS:   0.05 seconds


                   .-------------------------------------------.
                   | End of Static Property Section (ABACUS) - |
                   `-------------------------------------------'



           :::::::::::::::::::::::::::::::::::::::::::::::::::::::::::
           ::::::::::::::: Optimization Control Center :::::::::::::::
           :::::::::::::::::::::::::::::::::::::::::::::::::::::::::::



                                Next geometry (au)
                                ------------------

 O          0.0000000000            0.0000000000           -0.0879638432
 H   _1     0.0000000000            1.4225656180            0.9797335611
 H   _2     0.0000000000           -1.4225656180            0.9797335611





                             Optimization information
                             ------------------------

 Iteration number               :       3
 End of optimization            :       F 
 Energy at this geometry is     :     -76.053422
 Energy change from last geom.  :      -0.000010
 Norm of gradient               :       0.000893
 Norm of step                   :       0.007246
 Updated trust radius           :       0.500000
 Total Hessian index            :       0




 **************************************************************************************
 ****************** Output of molecule and basis set info suppressed ******************
 **************************************************************************************



                     .---------------------------------------.
                     | Starting in Integral Section (HERMIT) |
                     `---------------------------------------'



    *************************************************************************
    ****************** Output from HERMIT input processing ******************
    *************************************************************************


 Threshold for neglecting two-electron integrals:  1.00D-12
 Number of two-electron integrals written:       57092 ( 25.7% )
 Megabytes written:                              0.660

 >>>> Total CPU  time used in HERMIT:   0.02 seconds
 >>>> Total wall time used in HERMIT:   0.03 seconds


                        .----------------------------------.
                        | End of Integral Section (HERMIT) |
                        `----------------------------------'



                   .--------------------------------------------.
                   | Starting in Wave Function Section (SIRIUS) |
                   `--------------------------------------------'


 **********************************************************************
 *SIRIUS* a direct, restricted step, second order MCSCF program       *
 **********************************************************************

 (Wave function specification suppressed here, see output above for initial geometry.)


 >>>>> DIIS optimization of Hartree-Fock <<<<<

 C1-DIIS algorithm; max error vectors =   10

 Iter      Total energy        Error norm    Delta(E)  DIIS dim.
 -----------------------------------------------------------------------------
     (Precalculated two-electron integrals are transformed to P-supermatrix elements.
      Threshold for discarding integrals :  1.00D-12 )
@  1    -76.0534225042        4.10250D-03   -9.57D-07    1
      Virial theorem: -V/T =      2.000007
@      MULPOP O      -0.51; H   _1  0.26; H   _2  0.26; 
 -----------------------------------------------------------------------------
@  2    -76.0534234942        7.76812D-04   -9.90D-07    2
      Virial theorem: -V/T =      2.000024
@      MULPOP O      -0.51; H   _1  0.26; H   _2  0.26; 
 -----------------------------------------------------------------------------
@  3    -76.0534235497        2.29905D-04   -5.54D-08    3
      Virial theorem: -V/T =      2.000017
@      MULPOP O      -0.51; H   _1  0.26; H   _2  0.26; 
 -----------------------------------------------------------------------------
@  4    -76.0534235526        7.45510D-05   -2.97D-09    4
      Virial theorem: -V/T =      2.000023
@      MULPOP O      -0.51; H   _1  0.26; H   _2  0.26; 
 -----------------------------------------------------------------------------
@  5    -76.0534235531        1.06890D-05   -4.79D-10    5
      Virial theorem: -V/T =      2.000022
@      MULPOP O      -0.51; H   _1  0.26; H   _2  0.26; 
 -----------------------------------------------------------------------------
@  6    -76.0534235531        2.69339D-06   -1.57D-11    6

@ *** DIIS converged in   6 iterations !
@     Converged SCF energy, gradient:    -76.053423553139    2.69D-06
    - total time used in SIRFCK :              0.00 seconds


 *** SCF orbital energy analysis ***

 Only the five lowest virtual orbital energies printed in each symmetry.

 Number of electrons :   10
 Orbital occupations :    3    1    1    0

 Sym       Hartree-Fock orbital energies

  1    -20.56297009    -1.36272140    -0.58383712     0.04372444     0.24065556
         0.25256662     0.32200292     0.74460966

  2     -0.51094744     0.24531063     1.24402051     1.72806447     3.49050239
         5.49202240

  3     -0.73286483     0.07231994     0.26323860     0.31877750     0.69700531
         1.24369348

  4      1.50362483     3.55942278

    E(LUMO) :     0.04372444 au (symmetry 1)
  - E(HOMO) :    -0.51094744 au (symmetry 2)
  ------------------------------------------
    gap     :     0.55467189 au

 >>> Writing SIRIFC interface file <<<

 >>>> CPU and wall time for SCF :       0.008       0.008


                       .-----------------------------------.
                       | >>> Final results from SIRIUS <<< |
                       `-----------------------------------'


@    Spin multiplicity:           1
@    Spatial symmetry:            1
@    Total charge of molecule:    0

@    Final HF energy:             -76.053423553139                 
@    Nuclear repulsion:             9.346957743637
@    Electronic energy:           -85.400381296776

@    Final gradient norm:           0.000002693386

 
     Date and time (Linux)  : Sun Sep  8 20:38:51 2013
     Host name              : lpqlx131.ups-tlse.fr                    



 >>>> Total CPU  time used in SIRIUS :      0.01 seconds
 >>>> Total wall time used in SIRIUS :      0.01 seconds

 
     Date and time (Linux)  : Sun Sep  8 20:38:51 2013
     Host name              : lpqlx131.ups-tlse.fr                    


                     .---------------------------------------.
                     | End of Wave Function Section (SIRIUS) |
                     `---------------------------------------'

 Trust radius squarely increased due to very good ratio.
 Updated trust radius   0.50000

     Order of analytical energy-derivatives available:   2
     This will be the default.

 Center of mass dipole origin  :    0.000000    0.000000    0.031527

 Center of mass gauge origin   :    0.000000    0.000000    0.031527


                 .------------------------------------------------.
                 | Starting in Static Property Section (ABACUS) - |
                 `------------------------------------------------'


 
     Date and time (Linux)  : Sun Sep  8 20:38:51 2013
     Host name              : lpqlx131.ups-tlse.fr                    


   ***************************************************************************
   ************************ FINAL RESULTS from ABACUS ************************
   ***************************************************************************


 
     Date and time (Linux)  : Sun Sep  8 20:38:51 2013
     Host name              : lpqlx131.ups-tlse.fr                    


 CPU time statistics for ABACUS
 ------------------------------




 >>>> Total CPU  time used in ABACUS:   0.04 seconds
 >>>> Total wall time used in ABACUS:   0.04 seconds


                   .-------------------------------------------.
                   | End of Static Property Section (ABACUS) - |
                   `-------------------------------------------'



           :::::::::::::::::::::::::::::::::::::::::::::::::::::::::::
           ::::::::::::::: Optimization Control Center :::::::::::::::
           :::::::::::::::::::::::::::::::::::::::::::::::::::::::::::



                               Final geometry (au)
                               -------------------

 O          0.0000000000            0.0000000000           -0.0879638432
 H   _1     0.0000000000            1.4225656180            0.9797335611
 H   _2     0.0000000000           -1.4225656180            0.9797335611





                             Optimization information
                             ------------------------

 Iteration number               :       4
 End of optimization            :       T 
 Energy at this geometry is     :     -76.053424
 Energy change from last geom.  :      -0.000002
 Norm of gradient               :       0.000002
 Norm of step                   :       0.000010
 Updated trust radius           :       0.500000
 Total Hessian index            :       0




        *****************************************************************
        ******** Output from **PROPE input processing for ABACUS ********
        *****************************************************************



 The following molecular properties will be calculated in this run:
 ------------------------------------------------------------------

 Default print level:        0

      The molecular gradient
      The molecular Hessian
      Vibrational analysis
      Quadrupole moments
      Dipole moment gradient
      Nuclear magnetic shieldings
      Magnetic susceptibilities
      Molecular rotational g-factor
      Natural orbital connection is used
      for perturbation dependent basis sets.

 Center of mass dipole origin  :    0.000000    0.000000    0.031527

 Center of mass gauge origin   :    0.000000    0.000000    0.031527


                 .------------------------------------------------.
                 | Starting in Static Property Section (ABACUS) - |
                 `------------------------------------------------'


 
     Date and time (Linux)  : Sun Sep  8 20:38:51 2013
     Host name              : lpqlx131.ups-tlse.fr                    

 Integral transformation: Total CPU and WALL times (sec)       0.012       0.013


   ***************************************************************************
   ************************ FINAL RESULTS from ABACUS ************************
   ***************************************************************************


 
     Date and time (Linux)  : Sun Sep  8 20:38:51 2013
     Host name              : lpqlx131.ups-tlse.fr                    


                             Molecular geometry (au)
                             -----------------------

 O          0.0000000000            0.0000000000           -0.0879638432
 H   _1     0.0000000000            1.4225656180            0.9797335611
 H   _2     0.0000000000           -1.4225656180            0.9797335611





                        Molecular wave function and energy
                        ----------------------------------

     Spin multiplicity  1     State number       1     Total charge       0

     Total energy        -76.0534235531 au (Hartrees)
                         -2069.51892879 eV
                           -199678.2328 kJ/mol


                             Relativistic corrections
                             ------------------------

     Darwin correction:                          0.1973997964 au
     Mass-velocity correction:                  -0.2489050268 au

     Total relativistic correction:             -0.0515052303 au (0.0677%)
     Non-relativistic + relativistic energy:   -76.1049287835 au




                             Molecular gradient (au)
                             -----------------------

                         O    z    -0.0000014458
                         H    y    -0.0000002597
                         H    z     0.0000014458



 O          0.0000000000            0.0000000000           -0.0000014458
 H   _1     0.0000000000           -0.0000001298            0.0000007229
 H   _2     0.0000000000            0.0000001298            0.0000007229





                              Molecular Hessian (au)
                              ----------------------


           Symmetry 1

           O    z      H    y      H    z

 O    z    0.529756
 H    y   -0.483340    0.939804
 H    z   -0.529756    0.483340    0.529756


           Symmetry 2

           O    x      H    x

 O    x    0.000001
 H    x   -0.000001    0.000001


           Symmetry 3

           O    y      H    y      H    z

 O    y    0.813488
 H    y   -0.813488    0.813488
 H    z   -0.610557    0.610557    0.458249


           Symmetry 4

           H    x

 H    x   -0.000000




            O      x    O      y    O      z    H   _1 x    H   _1 y    H   _1 z

 O      x    0.000001
 O      y    0.000000    0.813488
 O      z    0.000000    0.000000    0.529756

 H   _1 x   -0.000001    0.000000    0.000000    0.000000
 H   _1 y    0.000000   -0.406744   -0.241670    0.000000    0.438323
 H   _1 z    0.000000   -0.305278   -0.264878    0.000000    0.273474    0.247001

 H   _2 x   -0.000001    0.000000    0.000000    0.000000    0.000000    0.000000
 H   _2 y    0.000000   -0.406744    0.241670    0.000000   -0.031579    0.031804
 H   _2 z    0.000000    0.305278   -0.264878    0.000000   -0.031804    0.017877


            H   _2 x    H   _2 y    H   _2 z

 H   _2 x    0.000000
 H   _2 y    0.000000    0.438323
 H   _2 z    0.000000   -0.273474    0.247001





                                  Dipole moment
                                  -------------

                 au               Debye          C m (/(10**-30)
              0.863936           2.195907           7.324757


                             Dipole moment components
                             ------------------------

                 au               Debye          C m (/(10**-30)

      z      0.86393634         2.19590700         7.32475732


   Units:   1 a.u. =   2.54175 Debye 
            1 a.u. =   8.47835 (10**-30) C m (SI)




                           Dipole moment gradient (au)
                           ---------------------------


    Symmetry 1
                       Ez

        O    z    -0.44817426
        H    y    -0.05949075
        H    z     0.44817426

    Symmetry 2
                       Ex

        O    x    -0.80915842
        H    x     0.80915842

    Symmetry 3
                       Ey

        O    y    -0.59851522
        H    y     0.59851522
        H    z    -0.15809689



                       Ex             Ey             Ez

      O      x    -0.80915842     0.00000000     0.00000000
      O      y     0.00000000    -0.59851522     0.00000000
      O      z     0.00000000     0.00000000    -0.44817426

      H   _1 x     0.40457921     0.00000000     0.00000000
      H   _1 y     0.00000000     0.29925761    -0.02974537
      H   _1 z     0.00000000    -0.07904844     0.22408713

      H   _2 x     0.40457921     0.00000000     0.00000000
      H   _2 y     0.00000000     0.29925761     0.02974537
      H   _2 z     0.00000000     0.07904844     0.22408713



                            +-------------------------+
                            ! APT Population Analysis !
                            +-------------------------+


      [ Reference : J. Cioslowski, J.Am.Chem.Soc. 111 (1989) 8333 ]

                            O        -0.618616
                            H   _1    0.309308
                            H   _2    0.309308



        *****************************************************************
        ************* ABACUS - Molecular quadrupole moments *************
        *****************************************************************


  Units:  C m**2/(10**(-40))   (SI) 
          Debye*AAngstroem     (cgs)


  Principal values (au, SI and cgs) and axes:
  -------------------------------------------

  Q_aa         1.9385      8.6973      2.6074      0.0000    0.0000    1.0000
  Q_bb        -0.1829     -0.8205     -0.2460      0.0000    1.0000    0.0000
  Q_cc        -1.7557     -7.8769     -2.3614      1.0000    0.0000    0.0000


                          Total quadrupole moments (au)
                          -----------------------------

                         Ex          Ey          Ez

            Ex      -1.755663    0.000000    0.000000
            Ey       0.000000    1.938532    0.000000
            Ez       0.000000    0.000000   -0.182869



                 Total quadrupole moments (cgs, Debye*AAngstroem)
                 ------------------------------------------------

                         Ex          Ey          Ez

            Ex      -2.361427    0.000000    0.000000
            Ey       0.000000    2.607392    0.000000
            Ez       0.000000    0.000000   -0.245966



                          Total quadrupole moments (SI)
                          -----------------------------

                         Ex          Ey          Ez

            Ex      -7.876871    0.000000    0.000000
            Ey       0.000000    8.697325    0.000000
            Ez       0.000000    0.000000   -0.820453



   ****************************************************************************
   ************************ ABACUS - MAGNETIZABILITIES ************************
   ****************************************************************************


  Units:  JT**(-2)/(10**(-30))   (SI) 
          ppm cm**(3) mol**(-1)  (cgs)

 London orbitals (GIAOs) used.


  Magnetizabilities                    au          SI         cgs
  ---------------------------------------------------------------

  Isotropic magnetizability:      -2.8986   -228.7311    -13.7745
  Diamagnetic contribution:       -3.2053   -252.9298    -15.2318
  Paramagnetic contribution:       0.3067     24.1987      1.4573
  1st anisotropy:                 -0.0339     -2.6747     -0.1611
  2nd anisotropy:                  0.0367      2.8936      0.1743



  Principal values (au, SI, and cgs) and axes:
  --------------------------------------------

  khi_aa      -2.9005   -228.8770    -13.7833      1.0000    0.0000    0.0000
  khi_bb      -2.8742   -226.8020    -13.6583      0.0000    1.0000    0.0000
  khi_cc      -2.9212   -230.5142    -13.8819      0.0000    0.0000    1.0000


                        Total magnetizability tensor (au)
                        ---------------------------------

                       Bx                  By                  Bz

  Bx        -2.900467588758     -0.000000000000     -0.000000000000
[...]

   A           -0.28411923      0.00000000      0.00000000
   B            0.00000000     -0.30894841      0.00000000
   C            0.00000000      0.00000000     -0.36028438


  Diamagnetic contribution in principal axis system (a.u.):
  ---------------------------------------------------------

   A            0.00967533      0.00000000      0.00000000
   B            0.00000000      0.04014974      0.00000000
   C            0.00000000      0.00000000      0.02526520


  ******************************************************************************
  ************************ ABACUS - CHEMICAL SHIELDINGS ************************
  ******************************************************************************



                 Shielding tensors in symmetry coordinates (ppm)
                 -----------------------------------------------


    Symmetry 2
                       By

        O    y   369.63085158
        H    y    80.33032998
        H    z    16.32979188

    Symmetry 3
                       Bx

        O    x   310.84798987
        H    x    48.70433203

    Symmetry 4
                       Bz

        O    z   322.28061723
        H    y    19.03845476
        H    z    62.14877542




  Chemical shielding for O     :
  ==============================


  Shielding constant:    334.2532 ppm
  Anisotropy:             53.0665 ppm
  Asymmetry:               0.3232    

  S parameter:            53.9823 ppm
  A parameter:             0.0000 ppm


  Total shielding tensor (ppm):
  -----------------------------

 String on input: "O       "
 String on input: "O       "
                    Bx             By             Bz

  O      x   310.84798987     0.00000000     0.00000000
  O      y     0.00000000   369.63085158     0.00000000
  O      z     0.00000000     0.00000000   322.28061723


  Diamagnetic and paramagnetic contributions (ppm):
  -------------------------------------------------

                 Bx         By         Bz            Bx         By         Bz

  O      x   421.5951     0.0000     0.0000     -110.7471     0.0000     0.0000
  O      y     0.0000   414.6992     0.0000        0.0000   -45.0684     0.0000
  O      z     0.0000     0.0000   415.5314        0.0000     0.0000   -93.2508

  Diamagnetic contribution:    417.275236         Paramagnetic:     -83.022083


  Antisymmetric and traceless symmetric parts (ppm):
  --------------------------------------------------

                 Bx         By         Bz            Bx         By         Bz

  O      x     0.0000     0.0000     0.0000      -23.4052     0.0000     0.0000
  O      y     0.0000     0.0000     0.0000        0.0000    35.3777     0.0000
  O      z     0.0000     0.0000     0.0000        0.0000     0.0000   -11.9725


  Principal values and axes:
  --------------------------

  O         310.847990  =  334.25  -  23.41:     1.000000  0.000000  0.000000
  O         322.280617  =  334.25  -  11.97:     0.000000  0.000000  1.000000
  O         369.630852  =  334.25  +  35.38:     0.000000  1.000000  0.000000


  Chemical shielding for H   _1:
  ==============================


  Shielding constant:     31.8639 ppm
  Anisotropy:             20.5467 ppm
  Asymmetry:               0.0968    

  S parameter:            20.5788 ppm
  A parameter:             0.6772 ppm


  Total shielding tensor (ppm):
  -----------------------------

 String on input: "H   _1  "
 String on input: "H__1    "
                    Bx             By             Bz

  H   _1 x    24.35216601     0.00000000     0.00000000
  H   _1 y     0.00000000    40.16516499     9.51922738
  H   _1 z     0.00000000     8.16489594    31.07438771


  Diamagnetic and paramagnetic contributions (ppm):
  -------------------------------------------------

                 Bx         By         Bz            Bx         By         Bz

  H   _1 x    13.8316     0.0000     0.0000       10.5205     0.0000     0.0000
  H   _1 y     0.0000    37.5261    17.3240        0.0000     2.6391    -7.8048
  H   _1 z     0.0000    14.5528    23.4110        0.0000    -6.3879     7.6634

  Diamagnetic contribution:     24.922911         Paramagnetic:       6.940995


  Antisymmetric and traceless symmetric parts (ppm):
  --------------------------------------------------

                 Bx         By         Bz            Bx         By         Bz

  H   _1 x     0.0000     0.0000     0.0000       -7.5117     0.0000     0.0000
  H   _1 y     0.0000     0.0000     0.6772        0.0000     8.3013     8.8421
  H   _1 z     0.0000    -0.6772     0.0000        0.0000     8.8421    -0.7895


  Principal values and axes:
  --------------------------

  H   _1     24.352166  =   31.86  -   7.51:     1.000000  0.000000  0.000000
  H   _1     25.677814  =   31.86  -   6.19:     0.000000 -0.520964  0.853578
  H   _1     45.561739  =   31.86  +  13.70:     0.000000  0.853578  0.520964


  Chemical shielding for H   _2:
  ==============================


  Shielding constant:     31.8639 ppm
  Anisotropy:             20.5467 ppm
  Asymmetry:               0.0968    

  S parameter:            20.5788 ppm
  A parameter:             0.6772 ppm


  Total shielding tensor (ppm):
  -----------------------------

 String on input: "H   _2  "
 String on input: "H__2    "
                    Bx             By             Bz

  H   _2 x    24.35216601     0.00000000     0.00000000
  H   _2 y     0.00000000    40.16516499    -9.51922738
  H   _2 z     0.00000000    -8.16489594    31.07438771


  Diamagnetic and paramagnetic contributions (ppm):
  -------------------------------------------------

                 Bx         By         Bz            Bx         By         Bz

  H   _2 x    13.8316     0.0000     0.0000       10.5205     0.0000     0.0000
  H   _2 y     0.0000    37.5261   -17.3240        0.0000     2.6391     7.8048
  H   _2 z     0.0000   -14.5528    23.4110        0.0000     6.3879     7.6634

  Diamagnetic contribution:     24.922911         Paramagnetic:       6.940995


  Antisymmetric and traceless symmetric parts (ppm):
  --------------------------------------------------

                 Bx         By         Bz            Bx         By         Bz

  H   _2 x     0.0000     0.0000     0.0000       -7.5117     0.0000     0.0000
  H   _2 y     0.0000     0.0000    -0.6772        0.0000     8.3013    -8.8421
  H   _2 z     0.0000     0.6772     0.0000        0.0000    -8.8421    -0.7895


  Principal values and axes:
  --------------------------

  H   _2     24.352166  =   31.86  -   7.51:     1.000000  0.000000  0.000000
  H   _2     25.677814  =   31.86  -   6.19:     0.000000  0.520964  0.853578
  H   _2     45.561739  =   31.86  +  13.70:     0.000000  0.853578 -0.520964


                         +--------------------------------+
                         ! Summary of chemical shieldings !
                         +--------------------------------+

@1  Definitions from J. Mason, Solid state Nuc. Magn. Res. 2 (1993), 285

@1 London orbitals (GIAOs) has been used.

@1 atom   shielding       dia      para     skew      span     (aniso     asym)
@1 ----------------------------------------------------------------------------
@1 O       334.2532  417.2752  -83.0221    0.6110   58.7829   53.0665    0.3232
@1 H   _1   31.8639   24.9229    6.9410    0.8750   21.2096   20.5467    0.0968
@1 H   _2   31.8639   24.9229    6.9410    0.8750   21.2096   20.5467    0.0968



                         +--------------------------------+
                         ! Summary of chemical shieldings !
                         +--------------------------------+

@2  Definitions from Smith, Palke, and Grieg, Concepts in Mag. Res. 4 (1992), 107

@2 London orbitals (GIAOs) has been used.

@2 atom   shielding       dia      para     aniso      asym        S        A
@2 ----------------------------------------------------------------------------
@2 O       334.2532  417.2752  -83.0221   53.0665    0.3232   53.9823    0.0000
@2 H   _1   31.8639   24.9229    6.9410   20.5467    0.0968   20.5788    0.6772
@2 H   _2   31.8639   24.9229    6.9410   20.5467    0.0968   20.5788    0.6772



   Interatomic separations (in Angstrom):
   --------------------------------------

            O           H   _1      H   _2
            ------      ------      ------
 O     :    0.000000
 H   _1:    0.941232    0.000000
 H   _2:    0.941232    1.505579    0.000000


  Max    interatomic separation is    1.5056 Angstrom (    2.8451 Bohr)
  between atoms    3 and    2, "H   _2" and "H   _1".

  Min HX interatomic separation is    0.9412 Angstrom (    1.7787 Bohr)


  Bond distances (Angstrom):
  --------------------------

                  atom 1     atom 2       distance
                  ------     ------       --------
  bond distance:  H   _1     O            0.941232
  bond distance:  H   _2     O            0.941232


  Bond angles (degrees):
  ----------------------

                  atom 1     atom 2     atom 3         angle
                  ------     ------     ------         -----
  bond angle:     H   _1     O          H   _2       106.220




   ****************************************************************************
   *************** ABACUS - ROTATIONAL AND VIBRATIONAL ANALYSIS ***************
   ****************************************************************************


 Norm of (unprojected) molecular gradient (au) :     0.00000178


 Conversion factors used:

    Hartree to (cm)-1      : 219474.62934
    a.m.u.  to a.u.        :   1822.88848
    Bohr    to Angstrom    :  0.529177211
    a.u.    to A**4amu-1   :   142.943572
    a.u.    to km (mol)-1  :      974.864


 Vibrational analysis for parent molecule only.
  Norm of projected gradient     0.000002


                         Isotopic Molecule No. 1
                         ======================= 


                                 Isotopic Masses
                                 ---------------

                           O          15.994915
                           H   _1      1.007825
                           H   _2      1.007825

                       Total mass:    18.010565 amu
                       Natural abundance:  99.730 %

 Center-of-mass coordinates (a.u.):    0.000000    0.000000    0.031527


 Principal moments of inertia (u*A**2) and principal axes
 --------------------------------------------------------

   IA       0.571437          0.000000    1.000000    0.000000
   IB       1.142252          0.000000    0.000000    1.000000
   IC       1.713689          1.000000    0.000000    0.000000


 Rotational constants
 --------------------

 The molecule is planar.

               A                   B                   C

         884400.2059         442440.8238         294907.0363 MHz
           29.500415           14.758237            9.837040 cm-1



  Vibrational Frequencies and IR Intensities
  ------------------------------------------



  mode   irrep        frequency             IR intensity
  ============================================================
                 cm-1       hartrees     km/mol   (D/A)**2/amu
  ------------------------------------------------------------

   2      A1     4142.55    0.018875     25.487   0.6032
   3      A1     1726.25    0.007865     85.612   2.0261

   1      B2     4244.53    0.019340     88.275   2.0891






  Normal Coordinates (bohrs*amu**(1/2)):
  --------------------------------------


                1  4245     2  4143     3  1726 
  ----------------------------------------------

    O      x    0.000000    0.000000    0.000000
    O      y   -0.068292    0.000000   -0.000000
    O      z   -0.000000   -0.048869   -0.067888

    H   _1 x    0.000000    0.000000    0.000000
    H   _1 y    0.541919    0.571649   -0.411503
    H   _1 z    0.406734    0.387793    0.538713

    H   _2 x    0.000000    0.000000    0.000000
    H   _2 y    0.541919   -0.571649    0.411503
    H   _2 z   -0.406734    0.387793    0.538713



  Analysis in redundant internal coordinates
  ------------------------------------------



                          Expanded array of atoms (Bohr)
                          ------------------------------


               Column   1     Column   2     Column   3     Column   4
       1       8.00000000     0.00000000     0.00000000    -0.08796757
       2       1.00000000     0.00000000     1.42256245     0.97973543
       3       1.00000000     0.00000000    -1.42256245     0.97973543
    ==== End of matrix output ====


                          Redundant internal coordinates
                          ------------------------------

           (Auxiliary bonds are not printed at this print level.)

       1   Regular bond                 1   2               0.94123 Ang.
       2   Regular bond                 1   3               0.94123 Ang.
       4   Regular angle                2   1   3           106.220 deg.

 Total number of redundant internal coordinates:     4


                          Normal coordinates (internal)
                          -----------------------------


                1  4245     2  4143     3  1726 
  ----------------------------------------------

    1 stre      0.732195    0.719319    0.035015
    2 stre     -0.732195    0.719319    0.035015
    4 bend     -0.000000   -0.006845   -0.823277



  Dipole Gradient in Normal Coordinate Basis (D/(A*amu**(1/2)))
  -------------------------------------------------------------


  mode           dMA/dQi        dMB/dQi        dMC/dQi
  ----------------------------------------------------
   1            0.000000       1.445367       0.000000
   2            0.000000      -0.000000       0.776645
   3            0.000000       0.000000       1.423397



                              Total Molecular Energy
                              ----------------------

             electronic     vibrational           total    energy 

             -76.053424        0.023040      -76.030384    Hartrees
           -16691796.94         5056.67    -16686740.27    cm-1
             -199678.23           60.49      -199617.74    kJ/mol
              -47724.24           14.46       -47709.79    kcal/mol


                          Molecular Partition Functions
                          -----------------------------

 Qtran is evaluated per mol at 1 atm. pressure.
 Qrot does not include symmetry numbers.
 Qvib does not include zero point energies
 (i.e., energy scale has vibrational ground state as zero).


 Temp.(K)  Translational     Rotational    Vibrational      Total

    50.00     3.4600D+04           6.07         1.0000   2.100919D+05
   100.00     1.9573D+05          16.43         1.0000   3.216556D+06
   200.00     1.1072D+06          45.43         1.0000   5.030578D+07
   273.15     2.4136D+06          72.07         1.0001   1.739647D+08
   298.15     3.0043D+06          82.07         1.0002   2.466226D+08
   300.00     3.0511D+06          82.83         1.0003   2.527798D+08
   400.00     6.2633D+06         127.03         1.0020   7.972183D+08
   500.00     1.0942D+07         177.11         1.0070   1.951498D+09
   600.00     1.7260D+07         232.46         1.0163   4.077454D+09
   700.00     2.5375D+07         292.60         1.0300   7.647497D+09
   800.00     3.5431D+07         357.19         1.0481   1.326391D+10
   900.00     4.7562D+07         425.94         1.0702   2.168134D+10
  1000.00     6.1895D+07         498.61         1.0963   3.383307D+10
  1500.00     1.7056D+08         914.57         1.2816   1.999106D+11
  2000.00     3.5013D+08        1406.97         1.5548   7.659240D+11


                                +------------------+
                                ! Polarizabilities !
                                +------------------+


 Vibrational polarizabilities calculated acc. to Rinaldi et al.,
 Chem.Phys.Lett. 128 (1986) 177-181.


                        Vibrational Polarizabilities (au)
                        ---------------------------------

                         Ex          Ey          Ez

            Ex       0.000000    0.000000    0.000000
            Ey       0.000000    0.132814   -0.000000
            Ez       0.000000   -0.000000    0.818993



                   Vibrational Polarizabilities (angstroms**3)
                   -------------------------------------------

                         Ex          Ey          Ez

            Ex       0.000000    0.000000    0.000000
            Ey       0.000000    0.019681   -0.000000
            Ez       0.000000   -0.000000    0.121362



                   Vibrational Polarizabilities (angstroms**3)
                   -------------------------------------------

               (Along principal axes of moments of inertia)

                         EA          EB          EC

            EA       0.019681   -0.000000    0.000000
            EB      -0.000000    0.121362    0.000000
            EC       0.000000    0.000000    0.000000



 Vibrational mean polarization :    0.1187 cm**3 mol**-1


 CPU time statistics for ABACUS
 ------------------------------




 >>>> Total CPU  time used in ABACUS:   0.37 seconds
 >>>> Total wall time used in ABACUS:   0.37 seconds


                   .-------------------------------------------.
                   | End of Static Property Section (ABACUS) - |
                   `-------------------------------------------'



          <<<<<<<<<<<<<<<<<<<<<<<<<<<<<<<<<<<<<<<<<<<<<<<<<<<<<<<<<<<<<<
          <<<<<<<<<<<<<<<<<<<<  End of Optimization <<<<<<<<<<<<<<<<<<<<
          <<<<<<<<<<<<<<<<<<<<<<<<<<<<<<<<<<<<<<<<<<<<<<<<<<<<<<<<<<<<<<



                                  Final geometry
                                  --------------

 O          0.0000000000            0.0000000000           -0.0879638432
 H   _1     0.0000000000            1.4225656180            0.9797335611
 H   _2     0.0000000000           -1.4225656180            0.9797335611



@ Iter      Energy        Change       GradNorm  Index   StepLen    TrustRad #Rej
@ -------------------------------------------------------------------------------
@   0      -76.051460     0.000000     0.061238    0    0.095872*   0.500000   0 
@   1      -76.053317    -0.001857     0.013668    0    0.020967*   0.500000   0 
@   2      -76.053412    -0.000095     0.002077    0    0.010281*   0.500000   0 
@   3      -76.053422    -0.000010     0.000893    0    0.007246*   0.500000   0 
@   4      -76.053424    -0.000002     0.000002    0    0.000010*   0.500000   0 

@  *) Newton step taken.


   Interatomic separations (in Angstrom):
   --------------------------------------

            O           H   _1      H   _2
            ------      ------      ------
 O     :    0.000000
 H   _1:    0.941232    0.000000
 H   _2:    0.941232    1.505579    0.000000


  Max    interatomic separation is    1.5056 Angstrom (    2.8451 Bohr)
  between atoms    3 and    2, "H   _2" and "H   _1".

  Min HX interatomic separation is    0.9412 Angstrom (    1.7787 Bohr)


  Bond distances (Angstrom):
  --------------------------

                  atom 1     atom 2       distance
                  ------     ------       --------
  bond distance:  H   _1     O            0.941232
  bond distance:  H   _2     O            0.941232


  Bond angles (degrees):
  ----------------------

                  atom 1     atom 2     atom 3         angle
                  ------     ------     ------         -----
  bond angle:     H   _1     O          H   _2       106.220



@ Geometry converged in  5 iterations!

@ Energy at final geometry is       :     -76.053424 a.u.
@ Energy change during optimization :      -0.001964 a.u.
@                                             -5.157 kJ/mol

 >>>> Total CPU  time used in DALTON:   0.81 seconds
 >>>> Total wall time used in DALTON:   0.82 seconds

 
     Date and time (Linux)  : Sun Sep  8 20:38:51 2013
     Host name              : lpqlx131.ups-tlse.fr                    
