

     ************************************************************************
     *************** Dalton - An Electronic Structure Program ***************
     ************************************************************************

    This is output from DALTON (Release Dalton2013 patch 0)
   ----------------------------------------------------------------------------
    NOTE:
     
    Dalton is an experimental code for the evaluation of molecular
    properties using (MC)SCF, DFT, CI, and CC wave functions.
    The authors accept no responsibility for the performance of
    the code or for the correctness of the results.
     
    The code (in whole or part) is provided under a licence and
    is not to be reproduced for further distribution without
    the written permission of the authors or their representatives.
     
    See the home page "http://daltonprogram.org" for further information.
     
    If results obtained with this code are published,
    the appropriate citations would be both of:
     
       K. Aidas, C. Angeli, K. L. Bak, V. Bakken, R. Bast,
       L. Boman, O. Christiansen, R. Cimiraglia, S. Coriani,
       P. Dahle, E. K. Dalskov, U. Ekstroem, T. Enevoldsen,
       J. J. Eriksen, P. Ettenhuber, B. Fernandez, L. Ferrighi,
       H. Fliegl, L. Frediani, K. Hald, A. Halkier, C. Haettig,
       H. Heiberg, T. Helgaker, A. C. Hennum, H. Hettema,
       E. Hjertenaes, S. Hoest, I.-M. Hoeyvik, M. F. Iozzi,
       B. Jansik, H. J. Aa. Jensen, D. Jonsson, P. Joergensen,
       J. Kauczor, S. Kirpekar, T. Kjaergaard, W. Klopper,
       S. Knecht, R. Kobayashi, H. Koch, J. Kongsted, A. Krapp,
       K. Kristensen, A. Ligabue, O. B. Lutnaes, J. I. Melo,
       K. V. Mikkelsen, R. H. Myhre, C. Neiss, C. B. Nielsen,
       P. Norman, J. Olsen, J. M. H. Olsen, A. Osted,
       M. J. Packer, F. Pawlowski, T. B. Pedersen, P. F. Provasi,
       S. Reine, Z. Rinkevicius, T. A. Ruden, K. Ruud, V. Rybkin,
       P. Salek, C. C. M. Samson, A. Sanchez de Meras, T. Saue,
       S. P. A. Sauer, B. Schimmelpfennig, K. Sneskov,
       A. H. Steindal, K. O. Sylvester-Hvid, P. R. Taylor,
       A. M. Teale, E. I. Tellgren, D. P. Tew, A. J. Thorvaldsen,
       L. Thoegersen, O. Vahtras, M. A. Watson, D. J. D. Wilson,
       M. Ziolkowski and H. Aagren.
       The Dalton quantum chemistry program system.
       WIREs Comput. Mol. Sci. 2013. doi: 10.1002/wcms.1172
    
    and
    
       Dalton, a Molecular Electronic Structure Program,
       Release DALTON2013.0 (2013), see http://daltonprogram.org
   ----------------------------------------------------------------------------

    Authors in alphabetical order (major contribution(s) in parenthesis):

  Kestutis Aidas,           Vilnius University,           Lithuania   (QM/MM)
  Celestino Angeli,         University of Ferrara,        Italy       (NEVPT2)
  Keld L. Bak,              UNI-C,                        Denmark     (AOSOPPA, non-adiabatic coupling, magnetic properties)
  Vebjoern Bakken,          University of Oslo,           Norway      (DALTON; geometry optimizer, symmetry detection)
  Radovan Bast,             KTH Stockholm                 Sweden      (DALTON installation and execution frameworks)
  Linus Boman,              NTNU,                         Norway      (Cholesky decomposition and subsystems)
  Ove Christiansen,         Aarhus University,            Denmark     (CC module)
  Renzo Cimiraglia,         University of Ferrara,        Italy       (NEVPT2)
  Sonia Coriani,            University of Trieste,        Italy       (CC module, MCD in RESPONS)
  Paal Dahle,               University of Oslo,           Norway      (Parallelization)
  Erik K. Dalskov,          UNI-C,                        Denmark     (SOPPA)
  Thomas Enevoldsen,        Univ. of Southern Denmark,    Denmark     (SOPPA)
  Janus J. Eriksen,         Aarhus University,            Denmark     (PE-MP2/SOPPA, TDA)
  Berta Fernandez,          U. of Santiago de Compostela, Spain       (doublet spin, ESR in RESPONS)
  Lara Ferrighi,            Aarhus University,            Denmark     (PCM Cubic response)
  Heike Fliegl,             University of Oslo,           Norway      (CCSD(R12))
  Luca Frediani,            UiT The Arctic U. of Norway,  Norway      (PCM)
  Bin Gao,                  UiT The Arctic U. of Norway,  Norway      (Gen1Int library)
  Christof Haettig,         Ruhr-University Bochum,       Germany     (CC module)
  Kasper Hald,              Aarhus University,            Denmark     (CC module)
  Asger Halkier,            Aarhus University,            Denmark     (CC module)
  Hanne Heiberg,            University of Oslo,           Norway      (geometry analysis, selected one-electron integrals)
  Trygve Helgaker,          University of Oslo,           Norway      (DALTON; ABACUS, ERI, DFT modules, London, and much more)
  Alf Christian Hennum,     University of Oslo,           Norway      (Parity violation)
  Hinne Hettema,            University of Auckland,       New Zealand (quadratic response in RESPONS; SIRIUS supersymmetry)
  Eirik Hjertenaes,         NTNU,                         Norway      (Cholesky decomposition)
  Maria Francesca Iozzi,    University of Oslo,           Norway      (RPA)
  Brano Jansik              Technical Univ. of Ostrava    Czech Rep.  (DFT cubic response)
  Hans Joergen Aa. Jensen,  Univ. of Southern Denmark,    Denmark     (DALTON; SIRIUS, RESPONS, ABACUS modules, London, and much more)
  Dan Jonsson,              UiT The Arctic U. of Norway,  Norway      (cubic response in RESPONS module)
  Poul Joergensen,          Aarhus University,            Denmark     (RESPONS, ABACUS, and CC modules)
  Joanna Kauczor,           Linkoeping University,        Sweden      (Complex polarization propagator (CPP) module)
  Sheela Kirpekar,          Univ. of Southern Denmark,    Denmark     (Mass-velocity & Darwin integrals)
  Wim Klopper,              KIT Karlsruhe,                Germany     (R12 code in CC, SIRIUS, and ABACUS modules)
  Stefan Knecht,            ETH Zurich,                   Switzerland (Parallel CI and MCSCF)
  Rika Kobayashi,           Australian National Univ.,    Australia   (DIIS in CC, London in MCSCF)
  Henrik Koch,              NTNU,                         Norway      (CC module, Cholesky decomposition)
  Jacob Kongsted,           Univ. of Southern Denmark,    Denmark     (Polarizable embedding, QM/MM)
  Andrea Ligabue,           University of Modena,         Italy       (CTOCD, AOSOPPA)
  Ola B. Lutnaes,           University of Oslo,           Norway      (DFT Hessian)
  Juan I. Melo,             University of Buenos Aires,   Argentina   (LRESC, Relativistic Effects on NMR Shieldings)
  Kurt V. Mikkelsen,        University of Copenhagen,     Denmark     (MC-SCRF and QM/MM)
  Rolf H. Myhre,            NTNU,                         Norway      (Cholesky, subsystems and ECC2)
  Christian Neiss,          Univ. Erlangen-Nuernberg,     Germany     (CCSD(R12))
  Christian B. Nielsen,     University of Copenhagen,     Denmark     (QM/MM)
  Patrick Norman,           Linkoeping University,        Sweden      (Cubic response and complex response in RESPONS)
  Jeppe Olsen,              Aarhus University,            Denmark     (SIRIUS CI/density modules)
  Jogvan Magnus H. Olsen,   Univ. of Southern Denmark,    Denmark     (Polarizable embedding, PE library, QM/MM)
  Anders Osted,             Copenhagen University,        Denmark     (QM/MM)
  Martin J. Packer,         University of Sheffield,      UK          (SOPPA)
  Filip Pawlowski,          Kazimierz Wielki University   Poland      (CC3)
  Thomas B. Pedersen,       University of Oslo,           Norway      (Cholesky decomposition)
  Patricio F. Provasi,      University of Northeastern,   Argentina   (Analysis of coupling constants in localized orbitals)
  Zilvinas Rinkevicius,     KTH Stockholm,                Sweden      (open-shell DFT, ESR)
  Elias Rudberg,            KTH Stockholm,                Sweden      (DFT grid and basis info)
  Torgeir A. Ruden,         University of Oslo,           Norway      (Numerical derivatives in ABACUS)
  Kenneth Ruud,             UiT The Arctic U. of Norway,  Norway      (DALTON; ABACUS magnetic properties and  much more)
  Pawel Salek,              KTH Stockholm,                Sweden      (DALTON; DFT code)
  Claire C. M. Samson       University of Karlsruhe       Germany     (Boys localization, r12 integrals in ERI)
  Alfredo Sanchez de Meras, University of Valencia,       Spain       (CC module, Cholesky decomposition)
  Trond Saue,               Paul Sabatier University,     France      (direct Fock matrix construction)
  Stephan P. A. Sauer,      University of Copenhagen,     Denmark     (SOPPA(CCSD), SOPPA prop., AOSOPPA, vibrational g-factors)
  Bernd Schimmelpfennig,    Forschungszentrum Karlsruhe,  Germany     (AMFI module)
  Kristian Sneskov,         Aarhus University,            Denmark     (QM/MM, PE-CC)
  Arnfinn H. Steindal,      UiT The Arctic U. of Norway,  Norway      (parallel QM/MM)
  K. O. Sylvester-Hvid,     University of Copenhagen,     Denmark     (MC-SCRF)
  Peter R. Taylor,          VLSCI/Univ. of Melbourne,     Australia   (Symmetry handling ABACUS, integral transformation)
  Andrew M. Teale,          University of Nottingham,     England     (DFT-AC, DFT-D)
  David P. Tew,             University of Bristol,        England     (CCSD(R12))
  Olav Vahtras,             KTH Stockholm,                Sweden      (triplet response, spin-orbit, ESR, TDDFT, open-shell DFT)
  David J. Wilson,          La Trobe University,          Australia   (DFT Hessian and DFT magnetizabilities)
  Hans Agren,               KTH Stockholm,                Sweden      (SIRIUS module, RESPONS, MC-SCRF solvation model)
 --------------------------------------------------------------------------------

     Date and time (Linux)  : Sun Sep  8 20:38:51 2013
     Host name              : lpqlx131.ups-tlse.fr                    

 * Work memory size             :    64000000 =  488.28 megabytes.

 * Directories for basis set searches:
   1) /home/bast/DALTON-2013.0-Source/build/test_geoopt_prop2
   2) /home/bast/DALTON-2013.0-Source/build/basis


Compilation information
-----------------------

 Who compiled             | bast
 Host                     | lpqlx131.ups-tlse.fr
 System                   | Linux-3.8.5-201.fc18.x86_64
 CMake generator          | Unix Makefiles
 Processor                | x86_64
 64-bit integers          | OFF
 MPI                      | OFF
 Fortran compiler         | /usr/bin/gfortran
 Fortran compiler version | GNU Fortran (GCC) 4.7.2 20121109 (Red Hat 4.7.2-8)
 C compiler               | /usr/bin/gcc
 C compiler version       | gcc (GCC) 4.7.2 20121109 (Red Hat 4.7.2-8)
 C++ compiler             | /usr/bin/g++
 C++ compiler version     | g++ (GCC) 4.7.2 20121109 (Red Hat 4.7.2-8)
 Static linking           | OFF
 Last Git revision        | f34203295a86316e27f9e7b44f9b6769c4a046c0
 Configuration time       | 2013-09-08 20:31:27.952056


   Content of the .dal input file
 ----------------------------------

**DALTON INPUT                                    
.OPTIMIZE                                         
*OPTIMIZE                                         
.2NDORDER                                         
**WAVE FUNCTION                                   
.HF                                               
**RESPONSE                                        
*CUBIC                                            
.THG                                              
.DIPLEN                                           
.FREQUE                                           
 1                                                
 0.0592                                           
**END OF DALTON INPUT                             


   Content of the .mol file
 ----------------------------

BASIS                                                                          
6-311++G**                                                                     
Geometry optimization(2nd order), calculation of Third-Harmonic                
generation at the optimized geometry                                           
    2                                                                          
        8.    1                                                                
O     0.0 -0.2249058930 0.0                                                    
        1.    2                                                                
H     1.45235 0.899623 0.0                                                     
H    -1.45235 0.899623 0.0                                                     


       *******************************************************************
       *********** Output from DALTON general input processing ***********
       *******************************************************************

 --------------------------------------------------------------------------------
   Overall default print level:    0
   Print level for DALTON.STAT:    1

    "Old" integral transformation used (limited to max 255 basis functions)
 --------------------------------------------------------------------------------


 Chosen parameters for *OPTIMI :
 -------------------------------

 Default 2nd order method will be used:   Newton method.
 Optimization will be performed in Cartesian coordinates.


 Trust region method will be used to control step (default).



              >>>>>>>>>>>>>>>>>>>>>>>>>>>>>>>>>>>>>>>>>>>>>>>>>>>>>
              >>>>>>>>>> 2nd Order Geometry Optimization >>>>>>>>>>
              >>>>>>>>>>>>>>>>>>>>>>>>>>>>>>>>>>>>>>>>>>>>>>>>>>>>>

 Reading .mol file to determine number of atoms for parallel runs.


                      SYMADD: Requested addition of symmetry
                      --------------------------------------

 Symmetry test threshold:  5.00E-06

 - molecule centered at center of mass and rotated so
   principal axes of inertia are along coordinate axes.

 Symmetry class found: C(2v)          

 The following elements were found:   X  Y     


   ****************************************************************************
   *************** Output of molecule and basis set information ***************
   ****************************************************************************


    The two title cards from your ".mol" input:
    ------------------------------------------------------------------------
 1: Geometry optimization(2nd order), calculation of Third-Harmonic         
 2: generation at the optimized geometry                                    
    ------------------------------------------------------------------------

  Atomic type no.    1
  --------------------
  Nuclear charge:   8.00000
  Number of symmetry independent centers:    1
  Number of basis sets to read;    2
  Basis set file used for this atomic type with Z =   8 :
     "/home/bast/DALTON-2013.0-Source/build/basis/6-311++G**"

  Info about the basis set file: your basis has no documentation.
  Basis set: 6-311++G**                                                                      

  Atomic type no.    2
  --------------------
  Nuclear charge:   1.00000
  Number of symmetry independent centers:    2
  Number of basis sets to read;    2
  Basis set file used for this atomic type with Z =   1 :
     "/home/bast/DALTON-2013.0-Source/build/basis/6-311++G**"

  Info about the basis set file: your basis has no documentation.
  Basis set: 6-311++G**                                                                      


                      SYMADD: Requested addition of symmetry
                      --------------------------------------

 Symmetry test threshold:  5.00E-06

 - molecule centered at center of mass and rotated so
   principal axes of inertia are along coordinate axes.

 Symmetry class found: C(2v)          

 Symmetry Independent Centres             
 ----------------------------
       8 :      0.00000000     0.00000000    -0.12585150  Isotope  1
       1 :      0.00000000     1.45235000     0.99867739  Isotope  1

 The following elements were found:   X  Y     


                         SYMGRP: Point group information
                         -------------------------------

Full point group is: C(2v)          
Represented as:      C2v

   * The point group was generated by:

      Reflection in the yz-plane
      Reflection in the xz-plane

   * Group multiplication table

        |  E   C2z  Oxz  Oyz
   -----+--------------------
     E  |  E   C2z  Oxz  Oyz
    C2z | C2z   E   Oyz  Oxz
    Oxz | Oxz  Oyz   E   C2z
    Oyz | Oyz  Oxz  C2z   E 

   * Character table

        |  E   C2z  Oxz  Oyz
   -----+--------------------
    A1  |   1    1    1    1
    B1  |   1   -1    1   -1
    B2  |   1   -1   -1    1
    A2  |   1    1   -1   -1

   * Direct product table

        | A1   B1   B2   A2 
   -----+--------------------
    A1  | A1   B1   B2   A2 
    B1  | B1   A1   A2   B2 
    B2  | B2   A2   A1   B1 
    A2  | A2   B2   B1   A1 


                                 Isotopic Masses
                                 ---------------

                           O          15.994915
                           H   _1      1.007825
                           H   _2      1.007825

                       Total mass:    18.010565 amu
                       Natural abundance:  99.730 %

 Center-of-mass coordinates (a.u.):    0.000000    0.000000    0.000000


  Atoms and basis sets
  --------------------

  Number of atom types :    2
  Total number of atoms:    3

  Basis set used is "6-311++G**" from the basis set library.

  label    atoms   charge   prim   cont     basis
  ----------------------------------------------------------------------
  O           1    8.0000    35    22      [12s6p1d|5s4p1d]                                   
  H           2    1.0000     9     7      [6s1p|4s1p]                                        
  ----------------------------------------------------------------------
  total:      3   10.0000    53    36
  ----------------------------------------------------------------------
  Spherical harmonic basis used.

  Threshold for neglecting AO integrals:  1.00D-12


  Cartesian Coordinates (a.u.)
  ----------------------------

  Total number of coordinates:    9
  O       :     1  x   0.0000000000    2  y   0.0000000000    3  z  -0.1258515023
  H   / 1 :     4  x   0.0000000000    5  y   1.4523500000    6  z   0.9986773907
  H   / 2 :     7  x   0.0000000000    8  y  -1.4523500000    9  z   0.9986773907


  Symmetry Coordinates
  --------------------

  Number of coordinates in each symmetry:     3    2    3    1

  Symmetry  A1  ( 1)

    1   O     z    3
    2   H     y    [  5  -    8 ]/2
    3   H     z    [  6  +    9 ]/2

  Symmetry  B1  ( 2)

    4   O     x    1
    5   H     x    [  4  +    7 ]/2

  Symmetry  B2  ( 3)

    6   O     y    2
    7   H     y    [  5  +    8 ]/2
    8   H     z    [  6  -    9 ]/2

  Symmetry  A2  ( 4)

    9   H     x    [  4  -    7 ]/2


   Interatomic separations (in Angstrom):
   --------------------------------------

            O           H   _1      H   _2
            ------      ------      ------
 O     :    0.000000
 H   _1:    0.972000    0.000000
 H   _2:    0.972000    1.537101    0.000000


  Max    interatomic separation is    1.5371 Angstrom (    2.9047 Bohr)
  between atoms    3 and    2, "H   _2" and "H   _1".

  Min HX interatomic separation is    0.9720 Angstrom (    1.8368 Bohr)


  Bond distances (Angstrom):
  --------------------------

                  atom 1     atom 2       distance
                  ------     ------       --------
  bond distance:  H   _1     O            0.972000
  bond distance:  H   _2     O            0.972000


  Bond angles (degrees):
  ----------------------

                  atom 1     atom 2     atom 3         angle
                  ------     ------     ------         -----
  bond angle:     H   _1     O          H   _2       104.500




 Principal moments of inertia (u*A**2) and principal axes
 --------------------------------------------------------

   IA       0.633889          0.000000    1.000000    0.000000
   IB       1.190584          0.000000    0.000000    1.000000
   IC       1.824473          1.000000    0.000000    0.000000


 Rotational constants
 --------------------

 The molecule is planar.

               A                   B                   C

         797267.3370         424479.9976         277000.0210 MHz
           26.593976           14.159129            9.239726 cm-1


@  Nuclear repulsion energy :    9.055004525638 Hartree


  Symmetry Orbitals
  -----------------

  Number of orbitals in each symmetry:          17    6   11    2


  Symmetry  A1 ( 1)

    1     O        1s         1
    2     O        1s         2
    3     O        1s         3
    4     O        1s         4
    5     O        1s         5
    6     O        2pz        8
    7     O        2pz       11
    8     O        2pz       14
    9     O        2pz       17
   10     O        3d0       20
   11     O        3d2+      22
   12     H        1s        23 +   24
   13     H        1s        25 +   26
   14     H        1s        27 +   28
   15     H        1s        29 +   30
   16     H        2py       33 -   34
   17     H        2pz       35 +   36


  Symmetry  B1 ( 2)

   18     O        2px        6
   19     O        2px        9
   20     O        2px       12
   21     O        2px       15
   22     O        3d1+      21
   23     H        2px       31 +   32


  Symmetry  B2 ( 3)

   24     O        2py        7
   25     O        2py       10
   26     O        2py       13
   27     O        2py       16
   28     O        3d1-      19
   29     H        1s        23 -   24
   30     H        1s        25 -   26
   31     H        1s        27 -   28
   32     H        1s        29 -   30
   33     H        2py       33 +   34
   34     H        2pz       35 -   36


  Symmetry  A2 ( 4)

   35     O        3d2-      18
   36     H        2px       31 -   32

  Symmetries of electric field:  B1 (2)  B2 (3)  A1 (1)

  Symmetries of magnetic field:  B2 (3)  B1 (2)  A2 (4)


                     .---------------------------------------.
                     | Starting in Integral Section (HERMIT) |
                     `---------------------------------------'



    *************************************************************************
    ****************** Output from HERMIT input processing ******************
    *************************************************************************



     ************************************************************************
     ************************** Output from HERINT **************************
     ************************************************************************


 Threshold for neglecting two-electron integrals:  1.00D-12
 Number of two-electron integrals written:       57092 ( 25.7% )
 Megabytes written:                              0.660

 >>>> Total CPU  time used in HERMIT:   0.03 seconds
 >>>> Total wall time used in HERMIT:   0.03 seconds


                        .----------------------------------.
                        | End of Integral Section (HERMIT) |
                        `----------------------------------'



                   .--------------------------------------------.
                   | Starting in Wave Function Section (SIRIUS) |
                   `--------------------------------------------'


 *** Output from Huckel module :

     Using EWMO model:          F
     Using EHT  model:          T
     Number of Huckel orbitals each symmetry:    4    1    2    0

 Huckel EHT eigenvalues for symmetry :  1
          -20.704225      -1.499390      -0.671093      -0.296848

 Huckel EHT eigenvalues for symmetry :  2
           -0.616200

 Huckel EHT eigenvalues for symmetry :  3
           -0.731017      -0.261127

 **********************************************************************
 *SIRIUS* a direct, restricted step, second order MCSCF program       *
 **********************************************************************

 
     Date and time (Linux)  : Sun Sep  8 20:38:51 2013
     Host name              : lpqlx131.ups-tlse.fr                    

 Title lines from ".mol" input file:
     Geometry optimization(2nd order), calculation of Third-Harmonic         
     generation at the optimized geometry                                    

 Print level on unit LUPRI =   2 is   0
 Print level on unit LUW4  =   2 is   5

@    Restricted, closed shell Hartree-Fock calculation.

 Initial molecular orbitals are obtained according to
 ".MOSTART EHT   " input option

     Wave function specification
     ============================
@    For the wave function of type :      >>> HF <<<
@    Number of closed shell electrons          10
@    Number of electrons in active shells       0
@    Total charge of the molecule               0

@    Spin multiplicity and 2 M_S                1         0
     Total number of symmetries                 4
@    Reference state symmetry                   1

     Orbital specifications
     ======================
     Abelian symmetry species          All |    1    2    3    4
                                       --- |  ---  ---  ---  ---
     Total number of orbitals           36 |   17    6   11    2
     Number of basis functions          36 |   17    6   11    2

      ** Automatic occupation of RHF orbitals **

      -- Initial occupation of symmetries is determined from extended Huckel guess.           
      -- Initial occupation of symmetries is :
@    Occupied SCF orbitals               5 |    3    1    1    0

     Maximum number of Fock   iterations      0
     Maximum number of DIIS   iterations     60
     Maximum number of QC-SCF iterations     60
     Threshold for SCF convergence     1.00D-05


 >>>>> DIIS optimization of Hartree-Fock <<<<<

 C1-DIIS algorithm; max error vectors =   10

 Automatic occupation of symmetries with  10 electrons.

 Iter     Total energy    Error norm  Delta(E)    SCF occupation
 -----------------------------------------------------------------------------
     (Precalculated two-electron integrals are transformed to P-supermatrix elements.
      Threshold for discarding integrals :  1.00D-12 )
@  1  -75.8294835460       2.39D+00  -7.58D+01     3   1   1   0
      Virial theorem: -V/T =      1.997271
@      MULPOP O      -0.56; H   _1  0.28; H   _2  0.28; 
 -----------------------------------------------------------------------------
@  2  -76.0427775618       3.85D-01  -2.13D-01     3   1   1   0
      Virial theorem: -V/T =      2.001859
@      MULPOP O      -0.46; H   _1  0.23; H   _2  0.23; 
 -----------------------------------------------------------------------------
@  3  -76.0506585657       8.69D-02  -7.88D-03     3   1   1   0
      Virial theorem: -V/T =      2.002129
@      MULPOP O      -0.50; H   _1  0.25; H   _2  0.25; 
 -----------------------------------------------------------------------------
@  4  -76.0514148689       2.07D-02  -7.56D-04     3   1   1   0
      Virial theorem: -V/T =      2.001298
@      MULPOP O      -0.51; H   _1  0.26; H   _2  0.26; 
 -----------------------------------------------------------------------------
@  5  -76.0514535670       9.42D-03  -3.87D-05     3   1   1   0
      Virial theorem: -V/T =      2.001693
@      MULPOP O      -0.51; H   _1  0.26; H   _2  0.26; 
 -----------------------------------------------------------------------------
@  6  -76.0514589341       1.95D-03  -5.37D-06     3   1   1   0
      Virial theorem: -V/T =      2.001527
@      MULPOP O      -0.51; H   _1  0.26; H   _2  0.26; 
 -----------------------------------------------------------------------------
@  7  -76.0514595020       3.21D-04  -5.68D-07     3   1   1   0
      Virial theorem: -V/T =      2.001554
@      MULPOP O      -0.51; H   _1  0.26; H   _2  0.26; 
 -----------------------------------------------------------------------------
@  8  -76.0514595189       4.79D-05  -1.69D-08     3   1   1   0
      Virial theorem: -V/T =      2.001554
@      MULPOP O      -0.51; H   _1  0.26; H   _2  0.26; 
 -----------------------------------------------------------------------------
@  9  -76.0514595192       9.11D-06  -2.63D-10     3   1   1   0

@ *** DIIS converged in   9 iterations !
@     Converged SCF energy, gradient:    -76.051459519190    9.11D-06
    - total time used in SIRFCK :              0.00 seconds


 *** SCF orbital energy analysis ***

 Only the five lowest virtual orbital energies printed in each symmetry.

 Number of electrons :   10
 Orbital occupations :    3    1    1    0

 Sym       Hartree-Fock orbital energies

  1    -20.56922370    -1.34804017    -0.58147029     0.04268016     0.24249831
         0.24495339     0.32485716     0.72670592

  2     -0.50896889     0.24568358     1.24411960     1.71081709     3.47137639
         5.48825086

  3     -0.71259788     0.07205205     0.25777257     0.31867226     0.67492512
         1.24798527

  4      1.50204479     3.52160278

    E(LUMO) :     0.04268016 au (symmetry 1)
  - E(HOMO) :    -0.50896889 au (symmetry 2)
  ------------------------------------------
    gap     :     0.55164905 au

 >>> Writing SIRIFC interface file <<<

 >>>> CPU and wall time for SCF :       0.010       0.010


                       .-----------------------------------.
                       | >>> Final results from SIRIUS <<< |
                       `-----------------------------------'


@    Spin multiplicity:           1
@    Spatial symmetry:            1
@    Total charge of molecule:    0

@    Final HF energy:             -76.051459519190                 
@    Nuclear repulsion:             9.055004525638
@    Electronic energy:           -85.106464044828

@    Final gradient norm:           0.000009105820

 
     Date and time (Linux)  : Sun Sep  8 20:38:51 2013
     Host name              : lpqlx131.ups-tlse.fr                    

 (Only coefficients >0.0100 are printed.)

 Molecular orbitals for symmetry species  1
 ------------------------------------------

    Orbital         1        2        3        4        5
   1 O   :1s     0.5515  -0.1140   0.0375  -0.0169  -0.0112
   2 O   :1s     0.4717  -0.1904   0.0639  -0.0299  -0.0191
   3 O   :1s     0.0055   0.5435  -0.1978   0.1118   0.0721
   4 O   :1s    -0.0008   0.3877  -0.3034   0.0048  -0.0172
   5 O   :1s     0.0009  -0.0158  -0.0142   0.9376   2.4976
   6 O   :2pz    0.0018   0.0352   0.2521   0.0371  -0.0909
   7 O   :2pz   -0.0007   0.0605   0.3840   0.0538  -0.0759
   8 O   :2pz    0.0002   0.0192   0.2997   0.0922  -0.5805
   9 O   :2pz    0.0001  -0.0001   0.0602   0.0652   2.1395
  10 O   :3d0   -0.0000   0.0027   0.0163   0.0024  -0.0080
  11 O   :3d2+   0.0001  -0.0075  -0.0048   0.0004   0.0118
  12 H   :1s     0.0002   0.0905   0.0881   0.0012  -0.0180
  13 H   :1s     0.0002   0.0812   0.1527  -0.0639   0.0940
  14 H   :1s    -0.0003  -0.0043   0.0193  -0.0462  -1.5814
  15 H   :1s    -0.0001   0.0077   0.0005  -0.8169  -0.0607
  16 H   :2py   -0.0001  -0.0234  -0.0312  -0.0134  -0.0245
  17 H   :2pz   -0.0001  -0.0145   0.0085  -0.0093   0.0023

 Molecular orbitals for symmetry species  2
 ------------------------------------------

    Orbital         1        2        3
   1 O   :2px    0.2879   0.1158  -0.2478
   2 O   :2px    0.4452   0.0955  -0.8882
   3 O   :2px    0.4127   0.5907   1.5991
   4 O   :2px    0.0826  -1.2808  -0.7322
   5 O   :3d1+   0.0163   0.0065  -0.0037
   6 H   :2px    0.0319  -0.0116   0.0248

 Molecular orbitals for symmetry species  3
 ------------------------------------------

    Orbital         1        2        3
   1 O   :2py    0.2273  -0.0390  -0.0711
   2 O   :2py    0.3500  -0.0736  -0.1027
   3 O   :2py    0.2150   0.0117  -0.0578
   4 O   :2py    0.0145  -0.4679  -2.5222
   5 O   :3d1-   0.0279  -0.0002   0.0232
   6 H   :1s     0.1461  -0.0117   0.0683
   7 H   :1s     0.2175   0.0171  -0.1714
   8 H   :1s     0.0316  -0.0507   3.5956
   9 H   :1s     0.0123   2.4917  -0.4947
  10 H   :2py   -0.0199   0.0107   0.0093
  11 H   :2pz   -0.0269   0.0103   0.0304

 Molecular orbitals for symmetry species  4
 ------------------------------------------

    Orbital         1        2
   1 O   :3d2-  -0.1271   1.0488
   2 H   :2px   -0.6877  -0.3314



 >>>> Total CPU  time used in SIRIUS :      0.01 seconds
 >>>> Total wall time used in SIRIUS :      0.02 seconds

 
     Date and time (Linux)  : Sun Sep  8 20:38:51 2013
     Host name              : lpqlx131.ups-tlse.fr                    


                     .---------------------------------------.
                     | End of Wave Function Section (SIRIUS) |
                     `---------------------------------------'


     Order of analytical energy-derivatives available:   2
     This will be the default.

 Center of mass dipole origin  :    0.000000    0.000000    0.000000

 Center of mass gauge origin   :    0.000000    0.000000    0.000000


                 .------------------------------------------------.
                 | Starting in Static Property Section (ABACUS) - |
                 `------------------------------------------------'


 
     Date and time (Linux)  : Sun Sep  8 20:38:51 2013
     Host name              : lpqlx131.ups-tlse.fr                    


   ***************************************************************************
   ************************ FINAL RESULTS from ABACUS ************************
   ***************************************************************************


 
     Date and time (Linux)  : Sun Sep  8 20:38:52 2013
     Host name              : lpqlx131.ups-tlse.fr                    


                             Molecular geometry (au)
                             -----------------------

 O          0.0000000000            0.0000000000           -0.1258515023
 H   _1     0.0000000000            1.4523500000            0.9986773907
 H   _2     0.0000000000           -1.4523500000            0.9986773907





                        Molecular wave function and energy
                        ----------------------------------

     Spin multiplicity  1     State number       1     Total charge       0

     Total energy        -76.0514595192 au (Hartrees)
                         -2069.46548471 eV
                           -199673.0762 kJ/mol


                             Relativistic corrections
                             ------------------------

     Darwin correction:                          0.1974514209 au
     Mass-velocity correction:                  -0.2489637574 au

     Total relativistic correction:             -0.0515123365 au (0.0677%)
     Non-relativistic + relativistic energy:   -76.1029718556 au




                             Molecular gradient (au)
                             -----------------------

                         O   z     -0.0410235861
                         H   y      0.0495122402
                         H   z      0.0410235861



 O          0.0000000000            0.0000000000           -0.0410235861
 H   _1     0.0000000000            0.0247561201            0.0205117930
 H   _2     0.0000000000           -0.0247561201            0.0205117930





                              Molecular Hessian (au)
                              ----------------------


           Symmetry 1

           O   z       H   y       H   z 

 O   z     0.472256
 H   y    -0.363925    0.780892
 H   z    -0.472256    0.363925    0.472256


           Symmetry 2

           O   x       H   x 

 O   x     0.036481
 H   x    -0.036481    0.036481


           Symmetry 3

           O   y       H   y       H   z 

 O   y     0.657731
 H   y    -0.657731    0.657731
 H   z    -0.481023    0.481023    0.406539


           Symmetry 4

           H   x 

 H   x     0.034091




            O      x    O      y    O      z    H   _1 x    H   _1 y    H   _1 z

 O      x    0.036481
 O      y    0.000000    0.657731
 O      z    0.000000    0.000000    0.472256

 H   _1 x   -0.018240    0.000000    0.000000    0.017643
 H   _1 y    0.000000   -0.328866   -0.181963    0.000000    0.359656
 H   _1 z    0.000000   -0.240512   -0.236128    0.000000    0.211237    0.219699

 H   _2 x   -0.018240    0.000000    0.000000    0.000597    0.000000    0.000000
 H   _2 y    0.000000   -0.328866    0.181963    0.000000   -0.030790    0.029275
 H   _2 z    0.000000    0.240512   -0.236128    0.000000   -0.029275    0.016429


            H   _2 x    H   _2 y    H   _2 z

 H   _2 x    0.017643
 H   _2 y    0.000000    0.359656
 H   _2 z    0.000000   -0.211237    0.219699





                                  Dipole moment
                                  -------------

                 au               Debye          C m (/(10**-30)
              0.887037           2.254623           7.520612


                             Dipole moment components
                             ------------------------

                 au               Debye          C m (/(10**-30)

      z      0.88703692         2.25462282         7.52061221


   Units:   1 a.u. =   2.54175 Debye 
            1 a.u. =   8.47835 (10**-30) C m (SI)




   Interatomic separations (in Angstrom):
   --------------------------------------

            O           H   _1      H   _2
            ------      ------      ------
 O     :    0.000000
 H   _1:    0.972000    0.000000
 H   _2:    0.972000    1.537101    0.000000


  Max    interatomic separation is    1.5371 Angstrom (    2.9047 Bohr)
  between atoms    3 and    2, "H   _2" and "H   _1".

  Min HX interatomic separation is    0.9720 Angstrom (    1.8368 Bohr)


  Bond distances (Angstrom):
  --------------------------

                  atom 1     atom 2       distance
                  ------     ------       --------
  bond distance:  H   _1     O            0.972000
  bond distance:  H   _2     O            0.972000


  Bond angles (degrees):
  ----------------------

                  atom 1     atom 2     atom 3         angle
                  ------     ------     ------         -----
  bond angle:     H   _1     O          H   _2       104.500




 CPU time statistics for ABACUS
 ------------------------------




 >>>> Total CPU  time used in ABACUS:   0.17 seconds
 >>>> Total wall time used in ABACUS:   0.17 seconds


                   .-------------------------------------------.
                   | End of Static Property Section (ABACUS) - |
                   `-------------------------------------------'


 Predicted energy change       -0.002101892400953


  Step in diagonal representation
  -------------------------------


               Column   1     Column   2
       1      -0.01768834     0.06775187
    ==== End of matrix output ====


           :::::::::::::::::::::::::::::::::::::::::::::::::::::::::::
           ::::::::::::::: Optimization Control Center :::::::::::::::
           :::::::::::::::::::::::::::::::::::::::::::::::::::::::::::



                                Next geometry (au)
                                ------------------

 O          0.0000000000            0.0000000000           -0.0863145248
 H   _1     0.0000000000            1.4165838562            0.9789089019
 H   _2     0.0000000000           -1.4165838562            0.9789089019





                             Optimization information
                             ------------------------

 Iteration number               :       0
 End of optimization            :       F 
 Energy at this geometry is     :     -76.051460
 Norm of gradient               :       0.061238
 Norm of step                   :       0.070023
 Updated trust radius           :       0.500000
 Total Hessian index            :       0




 **************************************************************************************
 ****************** Output of molecule and basis set info suppressed ******************
 **************************************************************************************



                     .---------------------------------------.
                     | Starting in Integral Section (HERMIT) |
                     `---------------------------------------'



    *************************************************************************
    ****************** Output from HERMIT input processing ******************
    *************************************************************************


 Threshold for neglecting two-electron integrals:  1.00D-12
 Number of two-electron integrals written:       57092 ( 25.7% )
 Megabytes written:                              0.660

 >>>> Total CPU  time used in HERMIT:   0.03 seconds
 >>>> Total wall time used in HERMIT:   0.03 seconds


                        .----------------------------------.
                        | End of Integral Section (HERMIT) |
                        `----------------------------------'



                   .--------------------------------------------.
                   | Starting in Wave Function Section (SIRIUS) |
                   `--------------------------------------------'


 **********************************************************************
 *SIRIUS* a direct, restricted step, second order MCSCF program       *
 **********************************************************************

 (Wave function specification suppressed here, see output above for initial geometry.)


 >>>>> DIIS optimization of Hartree-Fock <<<<<

 C1-DIIS algorithm; max error vectors =   10

 Iter      Total energy        Error norm    Delta(E)  DIIS dim.
 -----------------------------------------------------------------------------
     (Precalculated two-electron integrals are transformed to P-supermatrix elements.
      Threshold for discarding integrals :  1.00D-12 )
@  1    -76.0525810883        1.29430D-01   -1.12D-03    1
      Virial theorem: -V/T =      2.000743
@      MULPOP O      -0.51; H   _1  0.26; H   _2  0.26; 
 -----------------------------------------------------------------------------
@  2    -76.0533181502        3.85090D-02   -7.37D-04    2
      Virial theorem: -V/T =      1.999142
@      MULPOP O      -0.52; H   _1  0.26; H   _2  0.26; 
 -----------------------------------------------------------------------------
@  3    -76.0533802814        1.74711D-02   -6.21D-05    3
      Virial theorem: -V/T =      2.000114
@      MULPOP O      -0.51; H   _1  0.25; H   _2  0.25; 
 -----------------------------------------------------------------------------
@  4    -76.0533962758        3.06713D-03   -1.60D-05    4
      Virial theorem: -V/T =      1.999788
@      MULPOP O      -0.51; H   _1  0.26; H   _2  0.26; 
 -----------------------------------------------------------------------------
@  5    -76.0533976523        7.91438D-04   -1.38D-06    5
      Virial theorem: -V/T =      1.999832
@      MULPOP O      -0.51; H   _1  0.26; H   _2  0.26; 
 -----------------------------------------------------------------------------
@  6    -76.0533977771        1.49458D-04   -1.25D-07    6
      Virial theorem: -V/T =      1.999836
@      MULPOP O      -0.51; H   _1  0.26; H   _2  0.26; 
 -----------------------------------------------------------------------------
@  7    -76.0533977810        2.50550D-05   -3.90D-09    7
      Virial theorem: -V/T =      1.999836
@      MULPOP O      -0.51; H   _1  0.26; H   _2  0.26; 
 -----------------------------------------------------------------------------
@  8    -76.0533977811        3.84305D-06   -1.00D-10    8

@ *** DIIS converged in   8 iterations !
@     Converged SCF energy, gradient:    -76.053397781074    3.84D-06
    - total time used in SIRFCK :              0.00 seconds


 *** SCF orbital energy analysis ***

 Only the five lowest virtual orbital energies printed in each symmetry.

 Number of electrons :   10
 Orbital occupations :    3    1    1    0

 Sym       Hartree-Fock orbital energies

  1    -20.56241065    -1.36458615    -0.58466220     0.04379880     0.24046764
         0.25348984     0.32179291     0.74743476

  2     -0.51126405     0.24525518     1.24393564     1.72839650     3.49414035
         5.49240293

  3     -0.73453568     0.07236809     0.26368294     0.31886741     0.69880253
         1.24357839

  4      1.50480559     3.56254168

    E(LUMO) :     0.04379880 au (symmetry 1)
  - E(HOMO) :    -0.51126405 au (symmetry 2)
  ------------------------------------------
    gap     :     0.55506285 au

 >>> Writing SIRIFC interface file <<<

 >>>> CPU and wall time for SCF :       0.009       0.009


                       .-----------------------------------.
                       | >>> Final results from SIRIUS <<< |
                       `-----------------------------------'


@    Spin multiplicity:           1
@    Spatial symmetry:            1
@    Total charge of molecule:    0

@    Final HF energy:             -76.053397781074                 
@    Nuclear repulsion:             9.380256467600
@    Electronic energy:           -85.433654248674

@    Final gradient norm:           0.000003843046

 
     Date and time (Linux)  : Sun Sep  8 20:38:52 2013
     Host name              : lpqlx131.ups-tlse.fr                    



 >>>> Total CPU  time used in SIRIUS :      0.01 seconds
 >>>> Total wall time used in SIRIUS :      0.01 seconds

 
     Date and time (Linux)  : Sun Sep  8 20:38:52 2013
     Host name              : lpqlx131.ups-tlse.fr                    


                     .---------------------------------------.
                     | End of Wave Function Section (SIRIUS) |
                     `---------------------------------------'

 Trust radius increased due to good ratio.
 Updated trust radius   0.50000

     Order of analytical energy-derivatives available:   2
     This will be the default.

 Center of mass dipole origin  :    0.000000    0.000000    0.032900

 Center of mass gauge origin   :    0.000000    0.000000    0.032900


                 .------------------------------------------------.
                 | Starting in Static Property Section (ABACUS) - |
                 `------------------------------------------------'


 
     Date and time (Linux)  : Sun Sep  8 20:38:52 2013
     Host name              : lpqlx131.ups-tlse.fr                    


   ***************************************************************************
   ************************ FINAL RESULTS from ABACUS ************************
   ***************************************************************************


 
     Date and time (Linux)  : Sun Sep  8 20:38:52 2013
     Host name              : lpqlx131.ups-tlse.fr                    


 CPU time statistics for ABACUS
 ------------------------------




 >>>> Total CPU  time used in ABACUS:   0.17 seconds
 >>>> Total wall time used in ABACUS:   0.17 seconds


                   .-------------------------------------------.
                   | End of Static Property Section (ABACUS) - |
                   `-------------------------------------------'


 Predicted energy change       -0.000025581101204


  Step in diagonal representation
  -------------------------------


               Column   1     Column   2
       1       0.00580285    -0.00638428
    ==== End of matrix output ====


           :::::::::::::::::::::::::::::::::::::::::::::::::::::::::::
           ::::::::::::::: Optimization Control Center :::::::::::::::
           :::::::::::::::::::::::::::::::::::::::::::::::::::::::::::



                                Next geometry (au)
                                ------------------

 O          0.0000000000            0.0000000000           -0.0879181174
 H   _1     0.0000000000            1.4225241778            0.9797106982
 H   _2     0.0000000000           -1.4225241778            0.9797106982





                             Optimization information
                             ------------------------

 Iteration number               :       1
 End of optimization            :       F 
 Energy at this geometry is     :     -76.053398
 Energy change from last geom.  :      -0.001938
 Norm of gradient               :       0.007134
 Norm of step                   :       0.008627
 Updated trust radius           :       0.500000
 Total Hessian index            :       0




 **************************************************************************************
 ****************** Output of molecule and basis set info suppressed ******************
 **************************************************************************************



                     .---------------------------------------.
                     | Starting in Integral Section (HERMIT) |
                     `---------------------------------------'



    *************************************************************************
    ****************** Output from HERMIT input processing ******************
    *************************************************************************


 Threshold for neglecting two-electron integrals:  1.00D-12
 Number of two-electron integrals written:       57092 ( 25.7% )
 Megabytes written:                              0.660

 >>>> Total CPU  time used in HERMIT:   0.02 seconds
 >>>> Total wall time used in HERMIT:   0.02 seconds


                        .----------------------------------.
                        | End of Integral Section (HERMIT) |
                        `----------------------------------'



                   .--------------------------------------------.
                   | Starting in Wave Function Section (SIRIUS) |
                   `--------------------------------------------'


 **********************************************************************
 *SIRIUS* a direct, restricted step, second order MCSCF program       *
 **********************************************************************

 (Wave function specification suppressed here, see output above for initial geometry.)


 >>>>> DIIS optimization of Hartree-Fock <<<<<

 C1-DIIS algorithm; max error vectors =   10

 Iter      Total energy        Error norm    Delta(E)  DIIS dim.
 -----------------------------------------------------------------------------
     (Precalculated two-electron integrals are transformed to P-supermatrix elements.
      Threshold for discarding integrals :  1.00D-12 )
@  1    -76.0534163300        1.26658D-02   -1.85D-05    1
      Virial theorem: -V/T =      1.999918
@      MULPOP O      -0.51; H   _1  0.26; H   _2  0.26; 
 -----------------------------------------------------------------------------
@  2    -76.0534229017        3.66953D-03   -6.57D-06    2
      Virial theorem: -V/T =      2.000086
@      MULPOP O      -0.51; H   _1  0.26; H   _2  0.26; 
 -----------------------------------------------------------------------------
@  3    -76.0534234083        1.65430D-03   -5.07D-07    3
      Virial theorem: -V/T =      1.999992
@      MULPOP O      -0.51; H   _1  0.26; H   _2  0.26; 
 -----------------------------------------------------------------------------
@  4    -76.0534235399        2.51293D-04   -1.32D-07    4
      Virial theorem: -V/T =      2.000024
@      MULPOP O      -0.51; H   _1  0.26; H   _2  0.26; 
 -----------------------------------------------------------------------------
@  5    -76.0534235489        6.92610D-05   -8.95D-09    5
      Virial theorem: -V/T =      2.000020
@      MULPOP O      -0.51; H   _1  0.26; H   _2  0.26; 
 -----------------------------------------------------------------------------
@  6    -76.0534235498        1.33452D-05   -9.67D-10    6
      Virial theorem: -V/T =      2.000020
@      MULPOP O      -0.51; H   _1  0.26; H   _2  0.26; 
 -----------------------------------------------------------------------------
@  7    -76.0534235499        2.08042D-06   -3.19D-11    7

@ *** DIIS converged in   7 iterations !
@     Converged SCF energy, gradient:    -76.053423549859    2.08D-06
    - total time used in SIRFCK :              0.00 seconds


 *** SCF orbital energy analysis ***

 Only the five lowest virtual orbital energies printed in each symmetry.

 Number of electrons :   10
 Orbital occupations :    3    1    1    0

 Sym       Hartree-Fock orbital energies

  1    -20.56296214    -1.36274110    -0.58384082     0.04372567     0.24065312
         0.25257645     0.32199932     0.74463350

  2     -0.51095001     0.24531017     1.24402010     1.72808619     3.49052800
         5.49202771

  3     -0.73289094     0.07232026     0.26324507     0.31877776     0.69703362
         1.24368845

  4      1.50362809     3.55947155

    E(LUMO) :     0.04372567 au (symmetry 1)
  - E(HOMO) :    -0.51095001 au (symmetry 2)
  ------------------------------------------
    gap     :     0.55467567 au

 >>> Writing SIRIFC interface file <<<

 >>>> CPU and wall time for SCF :       0.008       0.008


                       .-----------------------------------.
                       | >>> Final results from SIRIUS <<< |
                       `-----------------------------------'


@    Spin multiplicity:           1
@    Spatial symmetry:            1
@    Total charge of molecule:    0

@    Final HF energy:             -76.053423549859                 
@    Nuclear repulsion:             9.347343843241
@    Electronic energy:           -85.400767393101

@    Final gradient norm:           0.000002080417

 
     Date and time (Linux)  : Sun Sep  8 20:38:52 2013
     Host name              : lpqlx131.ups-tlse.fr                    



 >>>> Total CPU  time used in SIRIUS :      0.01 seconds
 >>>> Total wall time used in SIRIUS :      0.01 seconds

 
     Date and time (Linux)  : Sun Sep  8 20:38:52 2013
     Host name              : lpqlx131.ups-tlse.fr                    


                     .---------------------------------------.
                     | End of Wave Function Section (SIRIUS) |
                     `---------------------------------------'

 Trust radius squarely increased due to very good ratio.
 Updated trust radius   0.50000

     Order of analytical energy-derivatives available:   2
     This will be the default.

 Center of mass dipole origin  :    0.000000    0.000000    0.031565

 Center of mass gauge origin   :    0.000000    0.000000    0.031565


                 .------------------------------------------------.
                 | Starting in Static Property Section (ABACUS) - |
                 `------------------------------------------------'


 
     Date and time (Linux)  : Sun Sep  8 20:38:52 2013
     Host name              : lpqlx131.ups-tlse.fr                    


   ***************************************************************************
   ************************ FINAL RESULTS from ABACUS ************************
   ***************************************************************************


 
     Date and time (Linux)  : Sun Sep  8 20:38:52 2013
     Host name              : lpqlx131.ups-tlse.fr                    


 CPU time statistics for ABACUS
 ------------------------------




 >>>> Total CPU  time used in ABACUS:   0.17 seconds
 >>>> Total wall time used in ABACUS:   0.17 seconds


                   .-------------------------------------------.
                   | End of Static Property Section (ABACUS) - |
                   `-------------------------------------------'


 Predicted energy change       -0.000000003253451


  Step in diagonal representation
  -------------------------------


               Column   1     Column   2
       1     2.518806D-05  -7.687061D-05
    ==== End of matrix output ====


           :::::::::::::::::::::::::::::::::::::::::::::::::::::::::::
           ::::::::::::::: Optimization Control Center :::::::::::::::
           :::::::::::::::::::::::::::::::::::::::::::::::::::::::::::



                               Final geometry (au)
                               -------------------

 O          0.0000000000            0.0000000000           -0.0879181174
 H   _1     0.0000000000            1.4225241778            0.9797106982
 H   _2     0.0000000000           -1.4225241778            0.9797106982





                             Optimization information
                             ------------------------

 Iteration number               :       2
 End of optimization            :       T 
 Energy at this geometry is     :     -76.053424
 Energy change from last geom.  :      -0.000026
 Norm of gradient               :       0.000083
 Norm of step                   :       0.000081
 Updated trust radius           :       0.500000
 Total Hessian index            :       0



 Center of mass dipole origin  :    0.000000    0.000000    0.031565

 Center of mass gauge origin   :    0.000000    0.000000    0.031565


                 .------------------------------------------------.
                 | Starting in Static Property Section (ABACUS) - |
                 `------------------------------------------------'


 
     Date and time (Linux)  : Sun Sep  8 20:38:52 2013
     Host name              : lpqlx131.ups-tlse.fr                    


   ***************************************************************************
   ************************ FINAL RESULTS from ABACUS ************************
   ***************************************************************************


 
     Date and time (Linux)  : Sun Sep  8 20:38:52 2013
     Host name              : lpqlx131.ups-tlse.fr                    


                             Molecular geometry (au)
                             -----------------------

 O          0.0000000000            0.0000000000           -0.0879181174
 H   _1     0.0000000000            1.4225241778            0.9797106982
 H   _2     0.0000000000           -1.4225241778            0.9797106982





                        Molecular wave function and energy
                        ----------------------------------

     Spin multiplicity  1     State number       1     Total charge       0

     Total energy        -76.0534235499 au (Hartrees)
                         -2069.51892870 eV
                           -199678.2327 kJ/mol


                             Relativistic corrections
                             ------------------------

     Darwin correction:                          0.1973997334 au
     Mass-velocity correction:                  -0.2489049571 au

     Total relativistic correction:             -0.0515052237 au (0.0677%)
     Non-relativistic + relativistic energy:   -76.1049287736 au




                                  Dipole moment
                                  -------------

                 au               Debye          C m (/(10**-30)
              0.863910           2.195841           7.324537


                             Dipole moment components
                             ------------------------

                 au               Debye          C m (/(10**-30)

      z      0.86391034         2.19584092         7.32453691


   Units:   1 a.u. =   2.54175 Debye 
            1 a.u. =   8.47835 (10**-30) C m (SI)




   Interatomic separations (in Angstrom):
   --------------------------------------

            O           H   _1      H   _2
            ------      ------      ------
 O     :    0.000000
 H   _1:    0.941193    0.000000
 H   _2:    0.941193    1.505535    0.000000


  Max    interatomic separation is    1.5055 Angstrom (    2.8450 Bohr)
  between atoms    3 and    2, "H   _2" and "H   _1".

  Min HX interatomic separation is    0.9412 Angstrom (    1.7786 Bohr)


  Bond distances (Angstrom):
  --------------------------

                  atom 1     atom 2       distance
                  ------     ------       --------
  bond distance:  H   _1     O            0.941193
  bond distance:  H   _2     O            0.941193


  Bond angles (degrees):
  ----------------------

                  atom 1     atom 2     atom 3         angle
                  ------     ------     ------         -----
  bond angle:     H   _1     O          H   _2       106.222




 CPU time statistics for ABACUS
 ------------------------------

 REST       00:00:01     *** %



 >>>> Total CPU  time used in ABACUS:   0.01 seconds
 >>>> Total wall time used in ABACUS:   0.00 seconds


                   .-------------------------------------------.
                   | End of Static Property Section (ABACUS) - |
                   `-------------------------------------------'


 ------------------------------------------------------------------------------
  RESPONSE  -  an MCSCF, MC-srDFT, DFT, and SOPPA response property program
 ------------------------------------------------------------------------------


 <<<<<<<<<< OUTPUT FROM RESPONSE INPUT PROCESSING >>>>>>>>>>




 Variable settings for Cubic Response calculation
 ------------------------------------------------

 Second hyperpolarizability calculation :  CRCAL= T
 Calculation of a special processes carried out :
 - Third harmonic generation calculation

  1 B-frequencies  5.920000D-02
  1 C-frequencies  5.920000D-02
  1 D-frequencies  5.920000D-02

 Print level                                    : IPRCR  =   2
 Threshold for non-zero norm of property vectors: THRNRM = 1.000D-09
 Threshold for convergence of lin. resp. eq.s   : THCLR  = 1.000D-03
 Maximum number of iterations in LR solver      : MAXITL =  60
 Direct one-index transformation                : DIROIT = T

    1 A OPERATORS OF SYMMETRY NO:    1 AND LABELS:

          ZDIPLEN 

    1 A OPERATORS OF SYMMETRY NO:    2 AND LABELS:

          XDIPLEN 

    1 A OPERATORS OF SYMMETRY NO:    3 AND LABELS:

          YDIPLEN 

    1 B OPERATORS OF SYMMETRY NO:    1 AND LABELS:

          ZDIPLEN 

    1 B OPERATORS OF SYMMETRY NO:    2 AND LABELS:

          XDIPLEN 

    1 B OPERATORS OF SYMMETRY NO:    3 AND LABELS:

          YDIPLEN 

    1 C OPERATORS OF SYMMETRY NO:    1 AND LABELS:

          ZDIPLEN 

    1 C OPERATORS OF SYMMETRY NO:    2 AND LABELS:

          XDIPLEN 

    1 C OPERATORS OF SYMMETRY NO:    3 AND LABELS:

          YDIPLEN 

    1 D OPERATORS OF SYMMETRY NO:    1 AND LABELS:

          ZDIPLEN 

    1 D OPERATORS OF SYMMETRY NO:    2 AND LABELS:

          XDIPLEN 

    1 D OPERATORS OF SYMMETRY NO:    3 AND LABELS:

          YDIPLEN 

 Integral transformation: Total CPU and WALL times (sec)       0.031       0.032


   SCF energy         :      -76.053423549859474
 -- inactive part     :      -85.400767393100523
 -- nuclear repulsion :        9.347343843241049


                     ***************************************
                     *** RHF response calculation (TDHF) ***
                     ***************************************



 <<<<< Solving set of linear response equations for cubic response >>>>>



 Perturbation symmetry.     KSYMOP:       1
 Perturbation spin symmetry.TRPLET:       F
 Orbital variables.         KZWOPT:      57
 Configuration variables.   KZCONF:       0
 Total number of variables. KZVAR :      57


 CRLRV1 -- linear response calculation for symmetry  1
 CRLRV1 -- operator label : ZDIPLEN 
 CRLRV1 -- frequencies :  0.059200  0.177600



 <<<  SOLVING SETS OF LINEAR EQUATIONS FOR LINEAR RESPONSE PROPERTIES >>>

 Operator symmetry =  1; triplet =   F


 *** THE REQUESTED    2 SOLUTION VECTORS CONVERGED

 Convergence of RSP solution vectors, threshold = 1.00D-03
 ---------------------------------------------------------------
 (dimension of paired reduced space:   24)
 RSP solution vector no.    1; norm of residual   1.19D-04
 RSP solution vector no.    2; norm of residual   1.83D-04

 *** RSPCTL MICROITERATIONS CONVERGED

    ZDIPLEN       freq            LR value
 -----------------------------------------
              0.059200          5.90811667
              0.177600          6.47041526


 Perturbation symmetry.     KSYMOP:       2
 Perturbation spin symmetry.TRPLET:       F
 Orbital variables.         KZWOPT:      31
 Configuration variables.   KZCONF:       0
 Total number of variables. KZVAR :      31


 CRLRV1 -- linear response calculation for symmetry  2
 CRLRV1 -- operator label : XDIPLEN 
 CRLRV1 -- frequencies :  0.059200  0.177600



 <<<  SOLVING SETS OF LINEAR EQUATIONS FOR LINEAR RESPONSE PROPERTIES >>>

 Operator symmetry =  2; triplet =   F


 *** THE REQUESTED    2 SOLUTION VECTORS CONVERGED

 Convergence of RSP solution vectors, threshold = 1.00D-03
 ---------------------------------------------------------------
 (dimension of paired reduced space:   18)
 RSP solution vector no.    1; norm of residual   5.31D-04
 RSP solution vector no.    2; norm of residual   2.00D-04

 *** RSPCTL MICROITERATIONS CONVERGED

    XDIPLEN       freq            LR value
 -----------------------------------------
              0.059200          5.57610310
              0.177600          6.36540193


 Perturbation symmetry.     KSYMOP:       3
 Perturbation spin symmetry.TRPLET:       F
 Orbital variables.         KZWOPT:      46
 Configuration variables.   KZCONF:       0
 Total number of variables. KZVAR :      46


 CRLRV1 -- linear response calculation for symmetry  3
 CRLRV1 -- operator label : YDIPLEN 
 CRLRV1 -- frequencies :  0.059200  0.177600



 <<<  SOLVING SETS OF LINEAR EQUATIONS FOR LINEAR RESPONSE PROPERTIES >>>

 Operator symmetry =  3; triplet =   F


 *** THE REQUESTED    2 SOLUTION VECTORS CONVERGED

 Convergence of RSP solution vectors, threshold = 1.00D-03
 ---------------------------------------------------------------
 (dimension of paired reduced space:   18)
 RSP solution vector no.    1; norm of residual   1.37D-04
 RSP solution vector no.    2; norm of residual   1.68D-04

 *** RSPCTL MICROITERATIONS CONVERGED

    YDIPLEN       freq            LR value
 -----------------------------------------
              0.059200          7.47766337
              0.177600          7.98736176


 Perturbation symmetry.     KSYMOP:       4
 Perturbation spin symmetry.TRPLET:       F
 Orbital variables.         KZWOPT:      21
 Configuration variables.   KZCONF:       0
 Total number of variables. KZVAR :      21


 Perturbation symmetry.     KSYMOP:       1
 Perturbation spin symmetry.TRPLET:       F
 Orbital variables.         KZWOPT:      57
 Configuration variables.   KZCONF:       0
 Total number of variables. KZVAR :      57


 CRLRV2 -- linear response calc for sym:  1
 CRLRV2 -- operator label1: ZDIPLEN 
 CRLRV2 -- operator label2: ZDIPLEN 
 CRLRV2 -- freqr1 :   5.920000D-02
 CRLRV2 -- freqr2 :   5.920000D-02



 <<<  SOLVING SETS OF LINEAR EQUATIONS FOR LINEAR RESPONSE PROPERTIES >>>

 Operator symmetry =  1; triplet =   F


 *** THE REQUESTED    1 SOLUTION VECTORS CONVERGED

 Convergence of RSP solution vectors, threshold = 1.00D-03
 ---------------------------------------------------------------
 (dimension of paired reduced space:   12)
 RSP solution vector no.    1; norm of residual   1.87D-04

 *** RSPCTL MICROITERATIONS CONVERGED
    ZDIPLEN     ZDIPLEN      freq1     freq2                Norm
 ---------------------------------------------------------------
                          0.059200  0.059200         12.88830465


 Perturbation symmetry.     KSYMOP:       2
 Perturbation spin symmetry.TRPLET:       F
 Orbital variables.         KZWOPT:      31
 Configuration variables.   KZCONF:       0
 Total number of variables. KZVAR :      31


 CRLRV2 -- linear response calc for sym:  2
 CRLRV2 -- operator label1: XDIPLEN 
 CRLRV2 -- operator label2: ZDIPLEN 
 CRLRV2 -- freqr1 :   5.920000D-02
 CRLRV2 -- freqr2 :   5.920000D-02



 <<<  SOLVING SETS OF LINEAR EQUATIONS FOR LINEAR RESPONSE PROPERTIES >>>

 Operator symmetry =  2; triplet =   F


 *** THE REQUESTED    1 SOLUTION VECTORS CONVERGED

 Convergence of RSP solution vectors, threshold = 1.00D-03
 ---------------------------------------------------------------
 (dimension of paired reduced space:   10)
 RSP solution vector no.    1; norm of residual   7.53D-04

 *** RSPCTL MICROITERATIONS CONVERGED
    XDIPLEN     ZDIPLEN      freq1     freq2                Norm
 ---------------------------------------------------------------
                          0.059200  0.059200         11.20852998


 Perturbation symmetry.     KSYMOP:       3
 Perturbation spin symmetry.TRPLET:       F
 Orbital variables.         KZWOPT:      46
 Configuration variables.   KZCONF:       0
 Total number of variables. KZVAR :      46


 CRLRV2 -- linear response calc for sym:  3
 CRLRV2 -- operator label1: YDIPLEN 
 CRLRV2 -- operator label2: ZDIPLEN 
 CRLRV2 -- freqr1 :   5.920000D-02
 CRLRV2 -- freqr2 :   5.920000D-02



 <<<  SOLVING SETS OF LINEAR EQUATIONS FOR LINEAR RESPONSE PROPERTIES >>>

 Operator symmetry =  3; triplet =   F


 *** THE REQUESTED    1 SOLUTION VECTORS CONVERGED

 Convergence of RSP solution vectors, threshold = 1.00D-03
 ---------------------------------------------------------------
 (dimension of paired reduced space:   10)
 RSP solution vector no.    1; norm of residual   2.11D-04

 *** RSPCTL MICROITERATIONS CONVERGED
    YDIPLEN     ZDIPLEN      freq1     freq2                Norm
 ---------------------------------------------------------------
                          0.059200  0.059200         13.31549042


 Perturbation symmetry.     KSYMOP:       1
 Perturbation spin symmetry.TRPLET:       F
 Orbital variables.         KZWOPT:      57
 Configuration variables.   KZCONF:       0
 Total number of variables. KZVAR :      57


 CRLRV2 -- linear response calc for sym:  1
 CRLRV2 -- operator label1: XDIPLEN 
 CRLRV2 -- operator label2: XDIPLEN 
 CRLRV2 -- freqr1 :   5.920000D-02
 CRLRV2 -- freqr2 :   5.920000D-02



 <<<  SOLVING SETS OF LINEAR EQUATIONS FOR LINEAR RESPONSE PROPERTIES >>>

 Operator symmetry =  1; triplet =   F


 *** THE REQUESTED    1 SOLUTION VECTORS CONVERGED

 Convergence of RSP solution vectors, threshold = 1.00D-03
 ---------------------------------------------------------------
 (dimension of paired reduced space:   12)
 RSP solution vector no.    1; norm of residual   2.59D-04

 *** RSPCTL MICROITERATIONS CONVERGED
    XDIPLEN     XDIPLEN      freq1     freq2                Norm
 ---------------------------------------------------------------
                          0.059200  0.059200         22.33502916


 Perturbation symmetry.     KSYMOP:       1
 Perturbation spin symmetry.TRPLET:       F
 Orbital variables.         KZWOPT:      57
 Configuration variables.   KZCONF:       0
 Total number of variables. KZVAR :      57


 CRLRV2 -- linear response calc for sym:  1
 CRLRV2 -- operator label1: YDIPLEN 
 CRLRV2 -- operator label2: YDIPLEN 
 CRLRV2 -- freqr1 :   5.920000D-02
 CRLRV2 -- freqr2 :   5.920000D-02



 <<<  SOLVING SETS OF LINEAR EQUATIONS FOR LINEAR RESPONSE PROPERTIES >>>

 Operator symmetry =  1; triplet =   F


 *** THE REQUESTED    1 SOLUTION VECTORS CONVERGED

 Convergence of RSP solution vectors, threshold = 1.00D-03
 ---------------------------------------------------------------
 (dimension of paired reduced space:   12)
 RSP solution vector no.    1; norm of residual   2.67D-04

 *** RSPCTL MICROITERATIONS CONVERGED
    YDIPLEN     YDIPLEN      freq1     freq2                Norm
 ---------------------------------------------------------------
                          0.059200  0.059200         12.46166495


 Perturbation symmetry.     KSYMOP:       4
 Perturbation spin symmetry.TRPLET:       F
 Orbital variables.         KZWOPT:      21
 Configuration variables.   KZCONF:       0
 Total number of variables. KZVAR :      21


 CRLRV2 -- linear response calc for sym:  4
 CRLRV2 -- operator label1: YDIPLEN 
 CRLRV2 -- operator label2: XDIPLEN 
 CRLRV2 -- freqr1 :   5.920000D-02
 CRLRV2 -- freqr2 :   5.920000D-02



 <<<  SOLVING SETS OF LINEAR EQUATIONS FOR LINEAR RESPONSE PROPERTIES >>>

 Operator symmetry =  4; triplet =   F


 *** THE REQUESTED    1 SOLUTION VECTORS CONVERGED

 Convergence of RSP solution vectors, threshold = 1.00D-03
 ---------------------------------------------------------------
 (dimension of paired reduced space:   10)
 RSP solution vector no.    1; norm of residual   1.23D-04

 *** RSPCTL MICROITERATIONS CONVERGED
    YDIPLEN     XDIPLEN      freq1     freq2                Norm
 ---------------------------------------------------------------
                          0.059200  0.059200          7.49887275


 <<<<< CALCULATING CONTRIBUTIONS TO SECOND HYPERPOLARIZABILITY >>>>>


   Contribution                Term         Accumulated
 ------------------------------------------------------
Contribution from C4FOCK:     11.248742029649
 Na T[4] Nb Nc Nd      -11.24874203        -11.24874203
 Na T[3] Nx Nyz         57.24906693         46.00032490
 Na X[3] Ny Nz          89.80243017        135.80275507
 Nx A[3] Ny Nz          24.33278592        160.13554099
 Na X[2] Nyz          -343.36738657       -183.23184559
 Nx A[2] Nyz          -224.23397416       -407.46581975

@ Cubic response function value in a.u. for
@ A operator, symmetry, frequency:   ZDIPLEN    1 -0.177600
@ B operator, symmetry, frequency:   ZDIPLEN    1  0.059200
@ C operator, symmetry, frequency:   ZDIPLEN    1  0.059200
@ D operator, symmetry, frequency:   ZDIPLEN    1  0.059200

@ << A; B, C, D >>  =        -407.46581975



   Contribution                Term         Accumulated
 ------------------------------------------------------
Contribution from C4FOCK:     -5.692269944514
 Na T[4] Nb Nc Nd        5.69226994          5.69226994
 Na T[3] Nx Nyz         26.12996885         31.82223880
 Na X[3] Ny Nz          24.86056456         56.68280336
 Nx A[3] Ny Nz           5.22001635         61.90281970
 Na X[2] Nyz          -188.39637454       -126.49355483
 Nx A[2] Nyz           -36.03832808       -162.53188291

@ Cubic response function value in a.u. for
@ A operator, symmetry, frequency:   XDIPLEN    2 -0.177600
@ B operator, symmetry, frequency:   XDIPLEN    2  0.059200
@ C operator, symmetry, frequency:   ZDIPLEN    1  0.059200
@ D operator, symmetry, frequency:   ZDIPLEN    1  0.059200

@ << A; B, C, D >>  =        -162.53188291



   Contribution                Term         Accumulated
 ------------------------------------------------------
Contribution from C4FOCK:     23.800570722278
 Na T[4] Nb Nc Nd      -23.80057072        -23.80057072
 Na T[3] Nx Nyz         28.65177680          4.85120607
 Na X[3] Ny Nz          66.29101604         71.14222212
 Nx A[3] Ny Nz          19.76735180         90.90957392
 Na X[2] Nyz          -227.28264256       -136.37306864
 Nx A[2] Nyz          -215.23206554       -351.60513418

@ Cubic response function value in a.u. for
@ A operator, symmetry, frequency:   YDIPLEN    3 -0.177600
@ B operator, symmetry, frequency:   YDIPLEN    3  0.059200
@ C operator, symmetry, frequency:   ZDIPLEN    1  0.059200
@ D operator, symmetry, frequency:   ZDIPLEN    1  0.059200

@ << A; B, C, D >>  =        -351.60513418



   Contribution                Term         Accumulated
 ------------------------------------------------------
Contribution from C4FOCK:     -6.270523722335
 Na T[4] Nb Nc Nd        6.27052372          6.27052372
 Na T[3] Nx Nyz         15.23202200         21.50254573
 Na X[3] Ny Nz          20.34465546         41.84720119
 Nx A[3] Ny Nz           5.96429757         47.81149876
 Na X[2] Nyz           -53.67413259         -5.86263383
 Nx A[2] Nyz           -95.07769489       -100.94032872

@ Cubic response function value in a.u. for
@ A operator, symmetry, frequency:   ZDIPLEN    1 -0.177600
@ B operator, symmetry, frequency:   XDIPLEN    2  0.059200
@ C operator, symmetry, frequency:   XDIPLEN    2  0.059200
@ D operator, symmetry, frequency:   ZDIPLEN    1  0.059200

@ << A; B, C, D >>  =        -100.94032872



   Contribution                Term         Accumulated
 ------------------------------------------------------
Contribution from C4FOCK:     25.374002429711
 Na T[4] Nb Nc Nd      -25.37400243        -25.37400243
 Na T[3] Nx Nyz         38.49969550         13.12569308
 Na X[3] Ny Nz          71.36821125         84.49390432
 Nx A[3] Ny Nz          19.18863895        103.68254327
 Na X[2] Nyz          -327.66961136       -223.98706809
 Nx A[2] Nyz          -172.58353215       -396.57060024

@ Cubic response function value in a.u. for
@ A operator, symmetry, frequency:   ZDIPLEN    1 -0.177600
@ B operator, symmetry, frequency:   YDIPLEN    3  0.059200
@ C operator, symmetry, frequency:   YDIPLEN    3  0.059200
@ D operator, symmetry, frequency:   ZDIPLEN    1  0.059200

@ << A; B, C, D >>  =        -396.57060024



   Contribution                Term         Accumulated
 ------------------------------------------------------
Contribution from C4FOCK:     12.478758598251
 Na T[4] Nb Nc Nd      -12.47875860        -12.47875860
 Na T[3] Nx Nyz         67.21438366         54.73562506
 Na X[3] Ny Nz         155.91399997        210.64962503
 Nx A[3] Ny Nz          38.87107132        249.52069635
 Na X[2] Nyz          -922.36580626       -672.84510991
 Nx A[2] Nyz          -582.54376955      -1255.38887946

@ Cubic response function value in a.u. for
@ A operator, symmetry, frequency:   XDIPLEN    2 -0.177600
@ B operator, symmetry, frequency:   XDIPLEN    2  0.059200
@ C operator, symmetry, frequency:   XDIPLEN    2  0.059200
@ D operator, symmetry, frequency:   XDIPLEN    2  0.059200

@ << A; B, C, D >>  =       -1255.38887946



   Contribution                Term         Accumulated
 ------------------------------------------------------
Contribution from C4FOCK:    -10.702641248933
 Na T[4] Nb Nc Nd       10.70264125         10.70264125
 Na T[3] Nx Nyz         12.64942645         23.35206770
 Na X[3] Ny Nz           8.94610875         32.29817644
 Nx A[3] Ny Nz           3.04142007         35.33959652
 Na X[2] Nyz            18.50149452         53.84109104
 Nx A[2] Nyz           -32.33395617         21.50713487

@ Cubic response function value in a.u. for
@ A operator, symmetry, frequency:   YDIPLEN    3 -0.177600
@ B operator, symmetry, frequency:   YDIPLEN    3  0.059200
@ C operator, symmetry, frequency:   XDIPLEN    2  0.059200
@ D operator, symmetry, frequency:   XDIPLEN    2  0.059200

@ << A; B, C, D >>  =          21.50713487



   Contribution                Term         Accumulated
 ------------------------------------------------------
Contribution from C4FOCK:    -12.183783162801
 Na T[4] Nb Nc Nd       12.18378316         12.18378316
 Na T[3] Nx Nyz         21.11380677         33.29758993
 Na X[3] Ny Nz          12.64078978         45.93837972
 Nx A[3] Ny Nz           2.48197529         48.42035501
 Na X[2] Nyz          -100.78182100        -52.36146599
 Nx A[2] Nyz            14.97335675        -37.38810924

@ Cubic response function value in a.u. for
@ A operator, symmetry, frequency:   XDIPLEN    2 -0.177600
@ B operator, symmetry, frequency:   YDIPLEN    3  0.059200
@ C operator, symmetry, frequency:   YDIPLEN    3  0.059200
@ D operator, symmetry, frequency:   XDIPLEN    2  0.059200

@ << A; B, C, D >>  =         -37.38810924



   Contribution                Term         Accumulated
 ------------------------------------------------------
Contribution from C4FOCK:     24.691960849290
 Na T[4] Nb Nc Nd      -24.69196085        -24.69196085
 Na T[3] Nx Nyz         38.57091204         13.87895119
 Na X[3] Ny Nz         111.79009442        125.66904561
 Nx A[3] Ny Nz          32.93700273        158.60604834
 Na X[2] Nyz          -319.85734710       -161.25129876
 Nx A[2] Nyz          -241.28063735       -402.53193611

@ Cubic response function value in a.u. for
@ A operator, symmetry, frequency:   YDIPLEN    3 -0.177600
@ B operator, symmetry, frequency:   YDIPLEN    3  0.059200
@ C operator, symmetry, frequency:   YDIPLEN    3  0.059200
@ D operator, symmetry, frequency:   YDIPLEN    3  0.059200

@ << A; B, C, D >>  =        -402.53193611



  Summary of gamma values for a set of frequencies
 -------------------------------------------------

@ B-freq:  0.059200
@ C-freq:  0.059200
@ D-freq:  0.059200

@ gamma(X;X,X,X)       1255.3889
@ gamma(X;X,Y,Y)         37.3881
@ gamma(X;Y,Y,X)         37.3881
@ gamma(X;Y,X,Y)         37.3881
@ gamma(X;X,Z,Z)        162.5319
@ gamma(X;Z,Z,X)        162.5319
@ gamma(X;Z,X,Z)        162.5319
@ gamma(Y;Y,X,X)        -21.5071
@ gamma(Y;X,X,Y)        -21.5071
@ gamma(Y;X,Y,X)        -21.5071
@ gamma(Y;Y,Y,Y)        402.5319
@ gamma(Y;Y,Z,Z)        351.6051
@ gamma(Y;Z,Z,Y)        351.6051
@ gamma(Y;Z,Y,Z)        351.6051
@ gamma(Z;Z,X,X)        100.9403
@ gamma(Z;X,X,Z)        100.9403
@ gamma(Z;X,Z,X)        100.9403
@ gamma(Z;Z,Y,Y)        396.5706
@ gamma(Z;Y,Y,Z)        396.5706
@ gamma(Z;Y,Z,Y)        396.5706
@ gamma(Z;Z,Z,Z)        407.4658

@ Averaged gamma parallel to the applied field is       618.583111

 >>>> Total CPU  time used in RESPONSE:   0.32 seconds
 >>>> Total wall time used in RESPONSE:   0.32 seconds


          <<<<<<<<<<<<<<<<<<<<<<<<<<<<<<<<<<<<<<<<<<<<<<<<<<<<<<<<<<<<<<
          <<<<<<<<<<<<<<<<<<<<  End of Optimization <<<<<<<<<<<<<<<<<<<<
          <<<<<<<<<<<<<<<<<<<<<<<<<<<<<<<<<<<<<<<<<<<<<<<<<<<<<<<<<<<<<<



                                  Final geometry
                                  --------------

 O          0.0000000000            0.0000000000           -0.0879181174
 H   _1     0.0000000000            1.4225241778            0.9797106982
 H   _2     0.0000000000           -1.4225241778            0.9797106982



@ Iter      Energy        Change       GradNorm  Index   StepLen    TrustRad #Rej
@ -------------------------------------------------------------------------------
@   0      -76.051460     0.000000     0.061238    0    0.070023*   0.500000   0 
@   1      -76.053398    -0.001938     0.007134    0    0.008627*   0.500000   0 
@   2      -76.053424    -0.000026     0.000083    0    0.000081*   0.500000   0 

@  *) Newton step taken.


   Interatomic separations (in Angstrom):
   --------------------------------------

            O           H   _1      H   _2
            ------      ------      ------
 O     :    0.000000
 H   _1:    0.941193    0.000000
 H   _2:    0.941193    1.505535    0.000000


  Max    interatomic separation is    1.5055 Angstrom (    2.8450 Bohr)
  between atoms    3 and    2, "H   _2" and "H   _1".

  Min HX interatomic separation is    0.9412 Angstrom (    1.7786 Bohr)


  Bond distances (Angstrom):
  --------------------------

                  atom 1     atom 2       distance
                  ------     ------       --------
  bond distance:  H   _1     O            0.941193
  bond distance:  H   _2     O            0.941193


  Bond angles (degrees):
  ----------------------

                  atom 1     atom 2     atom 3         angle
                  ------     ------     ------         -----
  bond angle:     H   _1     O          H   _2       106.222



@ Geometry converged in  3 iterations!

@ Energy at final geometry is       :     -76.053424 a.u.
@ Energy change during optimization :      -0.001964 a.u.
@                                             -5.157 kJ/mol

 >>>> Total CPU  time used in DALTON:   0.96 seconds
 >>>> Total wall time used in DALTON:   0.97 seconds

 
     Date and time (Linux)  : Sun Sep  8 20:38:52 2013
     Host name              : lpqlx131.ups-tlse.fr                    
