

     ************************************************************************
     *************** Dalton - An Electronic Structure Program ***************
     ************************************************************************

    This is output from DALTON (Release Dalton2013 patch 0)
   ----------------------------------------------------------------------------
    NOTE:
     
    Dalton is an experimental code for the evaluation of molecular
    properties using (MC)SCF, DFT, CI, and CC wave functions.
    The authors accept no responsibility for the performance of
    the code or for the correctness of the results.
     
    The code (in whole or part) is provided under a licence and
    is not to be reproduced for further distribution without
    the written permission of the authors or their representatives.
     
    See the home page "http://daltonprogram.org" for further information.
     
    If results obtained with this code are published,
    the appropriate citations would be both of:
     
       K. Aidas, C. Angeli, K. L. Bak, V. Bakken, R. Bast,
       L. Boman, O. Christiansen, R. Cimiraglia, S. Coriani,
       P. Dahle, E. K. Dalskov, U. Ekstroem, T. Enevoldsen,
       J. J. Eriksen, P. Ettenhuber, B. Fernandez, L. Ferrighi,
       H. Fliegl, L. Frediani, K. Hald, A. Halkier, C. Haettig,
       H. Heiberg, T. Helgaker, A. C. Hennum, H. Hettema,
       E. Hjertenaes, S. Hoest, I.-M. Hoeyvik, M. F. Iozzi,
       B. Jansik, H. J. Aa. Jensen, D. Jonsson, P. Joergensen,
       J. Kauczor, S. Kirpekar, T. Kjaergaard, W. Klopper,
       S. Knecht, R. Kobayashi, H. Koch, J. Kongsted, A. Krapp,
       K. Kristensen, A. Ligabue, O. B. Lutnaes, J. I. Melo,
       K. V. Mikkelsen, R. H. Myhre, C. Neiss, C. B. Nielsen,
       P. Norman, J. Olsen, J. M. H. Olsen, A. Osted,
       M. J. Packer, F. Pawlowski, T. B. Pedersen, P. F. Provasi,
       S. Reine, Z. Rinkevicius, T. A. Ruden, K. Ruud, V. Rybkin,
       P. Salek, C. C. M. Samson, A. Sanchez de Meras, T. Saue,
       S. P. A. Sauer, B. Schimmelpfennig, K. Sneskov,
       A. H. Steindal, K. O. Sylvester-Hvid, P. R. Taylor,
       A. M. Teale, E. I. Tellgren, D. P. Tew, A. J. Thorvaldsen,
       L. Thoegersen, O. Vahtras, M. A. Watson, D. J. D. Wilson,
       M. Ziolkowski and H. Agren,
       "The Dalton quantum chemistry program system",
       WIREs Comput. Mol. Sci. 2013. (doi: 10.1002/wcms.1172)
    
    and
    
       Dalton, a Molecular Electronic Structure Program,
       Release DALTON2013.0 (2013), see http://daltonprogram.org
   ----------------------------------------------------------------------------

    Authors in alphabetical order (major contribution(s) in parenthesis):

  Kestutis Aidas,           Vilnius University,           Lithuania   (QM/MM)
  Celestino Angeli,         University of Ferrara,        Italy       (NEVPT2)
  Keld L. Bak,              UNI-C,                        Denmark     (AOSOPPA, non-adiabatic coupling, magnetic properties)
  Vebjoern Bakken,          University of Oslo,           Norway      (DALTON; geometry optimizer, symmetry detection)
  Radovan Bast,             KTH Stockholm                 Sweden      (DALTON installation and execution frameworks)
  Linus Boman,              NTNU,                         Norway      (Cholesky decomposition and subsystems)
  Ove Christiansen,         Aarhus University,            Denmark     (CC module)
  Renzo Cimiraglia,         University of Ferrara,        Italy       (NEVPT2)
  Sonia Coriani,            University of Trieste,        Italy       (CC module, MCD in RESPONS)
  Paal Dahle,               University of Oslo,           Norway      (Parallelization)
  Erik K. Dalskov,          UNI-C,                        Denmark     (SOPPA)
  Thomas Enevoldsen,        Univ. of Southern Denmark,    Denmark     (SOPPA)
  Janus J. Eriksen,         Aarhus University,            Denmark     (PE-MP2/SOPPA, TDA)
  Berta Fernandez,          U. of Santiago de Compostela, Spain       (doublet spin, ESR in RESPONS)
  Lara Ferrighi,            Aarhus University,            Denmark     (PCM Cubic response)
  Heike Fliegl,             University of Oslo,           Norway      (CCSD(R12))
  Luca Frediani,            UiT The Arctic U. of Norway,  Norway      (PCM)
  Bin Gao,                  UiT The Arctic U. of Norway,  Norway      (Gen1Int library)
  Christof Haettig,         Ruhr-University Bochum,       Germany     (CC module)
  Kasper Hald,              Aarhus University,            Denmark     (CC module)
  Asger Halkier,            Aarhus University,            Denmark     (CC module)
  Hanne Heiberg,            University of Oslo,           Norway      (geometry analysis, selected one-electron integrals)
  Trygve Helgaker,          University of Oslo,           Norway      (DALTON; ABACUS, ERI, DFT modules, London, and much more)
  Alf Christian Hennum,     University of Oslo,           Norway      (Parity violation)
  Hinne Hettema,            University of Auckland,       New Zealand (quadratic response in RESPONS; SIRIUS supersymmetry)
  Eirik Hjertenaes,         NTNU,                         Norway      (Cholesky decomposition)
  Maria Francesca Iozzi,    University of Oslo,           Norway      (RPA)
  Brano Jansik              Technical Univ. of Ostrava    Czech Rep.  (DFT cubic response)
  Hans Joergen Aa. Jensen,  Univ. of Southern Denmark,    Denmark     (DALTON; SIRIUS, RESPONS, ABACUS modules, London, and much more)
  Dan Jonsson,              UiT The Arctic U. of Norway,  Norway      (cubic response in RESPONS module)
  Poul Joergensen,          Aarhus University,            Denmark     (RESPONS, ABACUS, and CC modules)
  Joanna Kauczor,           Linkoeping University,        Sweden      (Complex polarization propagator (CPP) module)
  Sheela Kirpekar,          Univ. of Southern Denmark,    Denmark     (Mass-velocity & Darwin integrals)
  Wim Klopper,              KIT Karlsruhe,                Germany     (R12 code in CC, SIRIUS, and ABACUS modules)
  Stefan Knecht,            ETH Zurich,                   Switzerland (Parallel CI and MCSCF)
  Rika Kobayashi,           Australian National Univ.,    Australia   (DIIS in CC, London in MCSCF)
  Henrik Koch,              NTNU,                         Norway      (CC module, Cholesky decomposition)
  Jacob Kongsted,           Univ. of Southern Denmark,    Denmark     (Polarizable embedding, QM/MM)
  Andrea Ligabue,           University of Modena,         Italy       (CTOCD, AOSOPPA)
  Ola B. Lutnaes,           University of Oslo,           Norway      (DFT Hessian)
  Juan I. Melo,             University of Buenos Aires,   Argentina   (LRESC, Relativistic Effects on NMR Shieldings)
  Kurt V. Mikkelsen,        University of Copenhagen,     Denmark     (MC-SCRF and QM/MM)
  Rolf H. Myhre,            NTNU,                         Norway      (Cholesky, subsystems and ECC2)
  Christian Neiss,          Univ. Erlangen-Nuernberg,     Germany     (CCSD(R12))
  Christian B. Nielsen,     University of Copenhagen,     Denmark     (QM/MM)
  Patrick Norman,           Linkoeping University,        Sweden      (Cubic response and complex response in RESPONS)
  Jeppe Olsen,              Aarhus University,            Denmark     (SIRIUS CI/density modules)
  Jogvan Magnus H. Olsen,   Univ. of Southern Denmark,    Denmark     (Polarizable embedding, PE library, QM/MM)
  Anders Osted,             Copenhagen University,        Denmark     (QM/MM)
  Martin J. Packer,         University of Sheffield,      UK          (SOPPA)
  Filip Pawlowski,          Kazimierz Wielki University   Poland      (CC3)
  Thomas B. Pedersen,       University of Oslo,           Norway      (Cholesky decomposition)
  Patricio F. Provasi,      University of Northeastern,   Argentina   (Analysis of coupling constants in localized orbitals)
  Zilvinas Rinkevicius,     KTH Stockholm,                Sweden      (open-shell DFT, ESR)
  Elias Rudberg,            KTH Stockholm,                Sweden      (DFT grid and basis info)
  Torgeir A. Ruden,         University of Oslo,           Norway      (Numerical derivatives in ABACUS)
  Kenneth Ruud,             UiT The Arctic U. of Norway,  Norway      (DALTON; ABACUS magnetic properties and  much more)
  Pawel Salek,              KTH Stockholm,                Sweden      (DALTON; DFT code)
  Claire C. M. Samson       University of Karlsruhe       Germany     (Boys localization, r12 integrals in ERI)
  Alfredo Sanchez de Meras, University of Valencia,       Spain       (CC module, Cholesky decomposition)
  Trond Saue,               Paul Sabatier University,     France      (direct Fock matrix construction)
  Stephan P. A. Sauer,      University of Copenhagen,     Denmark     (SOPPA(CCSD), SOPPA prop., AOSOPPA, vibrational g-factors)
  Bernd Schimmelpfennig,    Forschungszentrum Karlsruhe,  Germany     (AMFI module)
  Kristian Sneskov,         Aarhus University,            Denmark     (QM/MM, PE-CC)
  Arnfinn H. Steindal,      UiT The Arctic U. of Norway,  Norway      (parallel QM/MM)
  K. O. Sylvester-Hvid,     University of Copenhagen,     Denmark     (MC-SCRF)
  Peter R. Taylor,          VLSCI/Univ. of Melbourne,     Australia   (Symmetry handling ABACUS, integral transformation)
  Andrew M. Teale,          University of Nottingham,     England     (DFT-AC, DFT-D)
  David P. Tew,             University of Bristol,        England     (CCSD(R12))
  Olav Vahtras,             KTH Stockholm,                Sweden      (triplet response, spin-orbit, ESR, TDDFT, open-shell DFT)
  David J. Wilson,          La Trobe University,          Australia   (DFT Hessian and DFT magnetizabilities)
  Hans Agren,               KTH Stockholm,                Sweden      (SIRIUS module, RESPONS, MC-SCRF solvation model)
 --------------------------------------------------------------------------------

     Date and time (Linux)  : Mon Oct 21 14:49:50 2013
     Host name              : c10-6.local                             

 * Work memory size             :    64000000 =  488.28 megabytes.

 * Directories for basis set searches:
   1) /home/arnfinn/release_dalton/DALTON/test/2013-10-21T14_49-testjob-pid-48374
   2) /home/arnfinn/release_dalton/build-RB-intel12.1.2-release/basis


Compilation information
-----------------------

 Who compiled             | arnfinn
 Host                     | stallo-2.local
 System                   | Linux-2.6.32-358.6.2.el6.x86_64
 CMake generator          | Unix Makefiles
 Processor                | x86_64
 64-bit integers          | OFF
 MPI                      | OFF
 Fortran compiler         | /global/apps/intel/composer_xe_2011_sp1.8.273/bin/
                          | intel64/ifort
 C compiler               | /global/apps/intel/composer_xe_2011_sp1.8.273/bin/
                          | intel64/icc
 C compiler version       | icc (ICC) 13.0.1 20121010
 C++ compiler             | /global/apps/intel/composer_xe_2011_sp1.8.273/bin/
                          | intel64/icpc
 C++ compiler version     | icpc (ICC) 13.0.1 20121010
 BLAS                     | -Wl,--start-group;/global/apps/intel/2013.1/mkl/li
                          | b/intel64/libmkl_core.so;/global/apps/intel/2013.1
                          | /mkl/lib/intel64/libmkl_intel_lp64.so;/global/apps
                          | /intel/2013.1/mkl/lib/intel64/libmkl_sequential.so
                          | ;/usr/lib64/libpthread.so;/usr/lib64/libm.so;-open
                          | mp;-Wl,--end-group
 LAPACK                   | -Wl,--start-group;/global/apps/intel/2013.1/mkl/li
                          | b/intel64/libmkl_lapack95_lp64.a;/global/apps/inte
                          | l/2013.1/mkl/lib/intel64/libmkl_intel_lp64.so;-ope
                          | nmp;-Wl,--end-group
 Static linking           | OFF
 Last Git revision        | 9e5bb7f558e1ee66d0614a37cb4fb8c71086ba4e
 Configuration time       | 2013-10-15 12:56:50.249803


   Content of the .dal input file
 ----------------------------------

**DALTON INPUT                                    
.OPTIMIZE                                         
*OPTIMIZE                                         
.CARTES                                           
.INITHE                                           
.RF                                               
.PSB                                              
.BAKER                                            
**WAVE FUNCTION                                   
.HF                                               
**END OF DALTON INPUT                             


   Content of the .mol file
 ----------------------------

BASIS                                                                          
STO-3G                                                                         
First order minimization in Cartesian coordinates, where the initial           
Hessian is calculated analytically                                             
Atomtypes=3 Generators=1 Z                                                     
Charge=8.0 Atoms=1                                                             
O     6.1169594363        0.0000000000        0.0000000000             *       
Charge=6.0 Atoms=7                                                             
C    -0.4281183799       -2.2595362151        0.0000000000             *       
C    -2.9286935224       -1.4347871225        0.0000000000             *       
C    -3.4656164013        1.1411808224        0.0000000000             *       
C    -1.5061149145        2.8972276388        0.0000000000             *       
C     0.9961412279        2.0785184368        0.0000000000             *       
C     1.5529020669       -0.5103443405        0.0000000000             *       
C     4.3100239391       -1.4696981757        0.0000000000             *       
Charge=1.0 Atoms=6                                                             
H     4.6927731310       -3.5243404323        0.0000000000             *       
H    -0.0483891239       -4.2673340819        0.0000000000             *       
H    -4.4516781974       -2.7942683921        0.0000000000             *       
H    -5.4051670195        1.7780840801        0.0000000000             *       
H    -1.9265366341        4.8949599174        0.0000000000             *       
H     2.4915143918        3.4703378645        0.0000000000             *       


       *******************************************************************
       *********** Output from DALTON general input processing ***********
       *******************************************************************

 --------------------------------------------------------------------------------
   Overall default print level:    0
   Print level for DALTON.STAT:    1

    "Old" integral transformation used (limited to max 255 basis functions)
 --------------------------------------------------------------------------------


 Chosen parameters for *OPTIMI :
 -------------------------------

 1st order method with PSB update will be used.
 Optimization will be performed in Cartesian coordinates.
 Initial Hessian will be calculated.
 
 
 Rational function method will be used to control step.
 
 Baker's convergence criteria will be used.



              >>>>>>>>>>>>>>>>>>>>>>>>>>>>>>>>>>>>>>>>>>>>>>>>>>>>>
              >>>>>>>>>> 1st Order Geometry Optimization >>>>>>>>>>
              >>>>>>>>>>>>>>>>>>>>>>>>>>>>>>>>>>>>>>>>>>>>>>>>>>>>>

 Reading .mol file to determine number of atoms for parallel runs.


   ****************************************************************************
   *************** Output of molecule and basis set information ***************
   ****************************************************************************


    The two title cards from your ".mol" input:
    ------------------------------------------------------------------------
 1: First order minimization in Cartesian coordinates, where the initial    
 2: Hessian is calculated analytically                                      
    ------------------------------------------------------------------------

  Atomic type no.    1
  --------------------
  Nuclear charge:   8.00000
  Number of symmetry independent centers:    1
  Number of basis sets to read;    2
  Basis set file used for this atomic type with Z =   8 :
     "/home/arnfinn/release_dalton/build-RB-intel12.1.2-release/basis/STO-3G"

  Atomic type no.    2
  --------------------
  Nuclear charge:   6.00000
  Number of symmetry independent centers:    7
  Number of basis sets to read;    2
  Basis set file used for this atomic type with Z =   6 :
     "/home/arnfinn/release_dalton/build-RB-intel12.1.2-release/basis/STO-3G"

  Atomic type no.    3
  --------------------
  Nuclear charge:   1.00000
  Number of symmetry independent centers:    6
  Number of basis sets to read;    2
  Basis set file used for this atomic type with Z =   1 :
     "/home/arnfinn/release_dalton/build-RB-intel12.1.2-release/basis/STO-3G"


                         SYMGRP: Point group information
                         -------------------------------

Point group: Cs 

   * The point group was generated by:

      Reflection in the xy-plane

   * Group multiplication table

        |  E   Oxy
   -----+----------
     E  |  E   Oxy
    Oxy | Oxy   E 

   * Character table

        |  E   Oxy
   -----+----------
    A'  |   1    1
    A"  |   1   -1

   * Direct product table

        | A'   A" 
   -----+----------
    A'  | A'   A" 
    A"  | A"   A' 


                                 Isotopic Masses
                                 ---------------

                           O          15.994915
                           C          12.000000
                           C          12.000000
                           C          12.000000
                           C          12.000000
                           C          12.000000
                           C          12.000000
                           C          12.000000
                           H           1.007825
                           H           1.007825
                           H           1.007825
                           H           1.007825
                           H           1.007825
                           H           1.007825

                       Total mass:   106.041865 amu
                       Natural abundance:  92.244 %

 Center-of-mass coordinates (a.u.):    0.712197    0.045875    0.000000


  Atoms and basis sets
  --------------------

  Number of atom types :    3
  Total number of atoms:   14

  Basis set used is "STO-3G" from the basis set library.

  label    atoms   charge   prim   cont     basis
  ----------------------------------------------------------------------
  O           1    8.0000    15     5      [6s3p|2s1p]                                        
  C           7    6.0000    15     5      [6s3p|2s1p]                                        
  H           6    1.0000     3     1      [3s|1s]                                            
  ----------------------------------------------------------------------
  total:     14   56.0000   138    46
  ----------------------------------------------------------------------

  Threshold for neglecting AO integrals:  1.00D-12


  Cartesian Coordinates (a.u.)
  ----------------------------

  Total number of coordinates:   42
  O       :     1  x   6.1169594363    2  y   0.0000000000    3  z   0.0000000000
  C       :     4  x  -0.4281183799    5  y  -2.2595362151    6  z   0.0000000000
  C       :     7  x  -2.9286935224    8  y  -1.4347871225    9  z   0.0000000000
  C       :    10  x  -3.4656164013   11  y   1.1411808224   12  z   0.0000000000
  C       :    13  x  -1.5061149145   14  y   2.8972276388   15  z   0.0000000000
  C       :    16  x   0.9961412279   17  y   2.0785184368   18  z   0.0000000000
  C       :    19  x   1.5529020669   20  y  -0.5103443405   21  z   0.0000000000
  C       :    22  x   4.3100239391   23  y  -1.4696981757   24  z   0.0000000000
  H       :    25  x   4.6927731310   26  y  -3.5243404323   27  z   0.0000000000
  H       :    28  x  -0.0483891239   29  y  -4.2673340819   30  z   0.0000000000
  H       :    31  x  -4.4516781974   32  y  -2.7942683921   33  z   0.0000000000
  H       :    34  x  -5.4051670195   35  y   1.7780840801   36  z   0.0000000000
  H       :    37  x  -1.9265366341   38  y   4.8949599174   39  z   0.0000000000
  H       :    40  x   2.4915143918   41  y   3.4703378645   42  z   0.0000000000


  Symmetry Coordinates
  --------------------

  Number of coordinates in each symmetry:    28   14

  Symmetry  A'  ( 1)

    1   O     x    1
    2   O     y    2
    3   C     x    4
    4   C     y    5
    5   C     x    7
    6   C     y    8
    7   C     x   10
    8   C     y   11
    9   C     x   13
   10   C     y   14
   11   C     x   16
   12   C     y   17
   13   C     x   19
   14   C     y   20
   15   C     x   22
   16   C     y   23
   17   H     x   25
   18   H     y   26
   19   H     x   28
   20   H     y   29
   21   H     x   31
   22   H     y   32
   23   H     x   34
   24   H     y   35
   25   H     x   37
   26   H     y   38
   27   H     x   40
   28   H     y   41

  Symmetry  A"  ( 2)

   29   O     z    3
   30   C     z    6
   31   C     z    9
   32   C     z   12
   33   C     z   15
   34   C     z   18
   35   C     z   21
   36   C     z   24
   37   H     z   27
   38   H     z   30
   39   H     z   33
   40   H     z   36
   41   H     z   39
   42   H     z   42


   Interatomic separations (in Angstrom):
   --------------------------------------

            O           C           C           C           C           C     
            ------      ------      ------      ------      ------      ------
 O     :    0.000000
 C     :    3.664091    0.000000
 C     :    4.846595    1.393364    0.000000
 C     :    5.106712    2.412913    1.392440    0.000000
 C     :    4.315478    2.787829    2.412844    1.392384    0.000000
 C     :    2.924537    2.416158    2.787496    2.412600    1.393211    0.000000
 C     :    2.430247    1.398482    2.421487    2.795792    2.423212    1.401290
 C     :    1.232543    2.541915    3.830609    4.340456    3.848742    2.569190
 H     :    2.011520    2.791291    4.181939    4.973320    4.723118    3.552081
 H     :    3.967829    1.081316    2.137737    3.385472    3.869002    3.403267
 H     :    5.784854    2.147897    1.080309    2.146926    3.391257    3.867804
 H     :    6.169421    3.391419    2.146625    1.080287    2.146601    3.391155
 H     :    4.982660    3.868140    3.391279    2.146896    1.080311    2.147859
 H     :    2.655768    3.403054    3.868387    3.384765    2.137083    1.081038

            C           C           H           H           H           H     
            ------      ------      ------      ------      ------      ------
 C     :    0.000000
 C     :    1.544806    0.000000
 H     :    2.303165    1.105974    0.000000
 H     :    2.161163    2.740634    2.539536    0.000000
 H     :    3.399579    4.689176    4.854433    2.457051    0.000000
 H     :    3.876079    5.420723    6.035500    4.274303    2.471634    0.000000
 H     :    3.401741    4.715428    5.667384    4.949294    4.282759    2.471648
 H     :    2.164252    2.785651    3.880391    4.309552    4.948676    4.273620

            H           H     
            ------      ------
 H     :    0.000000
 H     :    2.456472    0.000000


  Max    interatomic separation is    6.1694 Angstrom (   11.6585 Bohr)
  between atoms   12 and    1, "H     " and "O     ".

  Min HX interatomic separation is    1.0803 Angstrom (    2.0414 Bohr)

  Min YX interatomic separation is    1.2325 Angstrom (    2.3292 Bohr)


  Bond distances (Angstrom):
  --------------------------

                  atom 1     atom 2       distance
                  ------     ------       --------
  bond distance:  C          C            1.393364
  bond distance:  C          C            1.392440
  bond distance:  C          C            1.392384
  bond distance:  C          C            1.393211
  bond distance:  C          C            1.398482
  bond distance:  C          C            1.401290
  bond distance:  C          O            1.232543
  bond distance:  C          C            1.544806
  bond distance:  H          C            1.105974
  bond distance:  H          C            1.081316
  bond distance:  H          C            1.080309
  bond distance:  H          C            1.080287
  bond distance:  H          C            1.080311
  bond distance:  H          C            1.081038


  Bond angles (degrees):
  ----------------------

                  atom 1     atom 2     atom 3         angle
                  ------     ------     ------         -----
  bond angle:     C          C          C            120.303
  bond angle:     C          C          H            118.963
  bond angle:     C          C          H            120.734
  bond angle:     C          C          C            120.028
  bond angle:     C          C          H            119.993
  bond angle:     C          C          H            119.980
  bond angle:     C          C          C            120.092
  bond angle:     C          C          H            119.953
  bond angle:     C          C          H            119.955
  bond angle:     C          C          C            120.017
  bond angle:     C          C          H            119.981
  bond angle:     C          C          H            120.002
  bond angle:     C          C          C            120.255
  bond angle:     C          C          H            118.937
  bond angle:     C          C          H            120.809
  bond angle:     C          C          C            119.307
  bond angle:     C          C          C            119.371
  bond angle:     C          C          C            121.323
  bond angle:     O          C          C            121.691
  bond angle:     O          C          H            118.571
  bond angle:     C          C          H            119.738




 Principal moments of inertia (u*A**2) and principal axes
 --------------------------------------------------------

   IA      96.535361          0.990129   -0.140157    0.000000
   IB     331.276445          0.140157    0.990129    0.000000
   IC     427.811806          0.000000    0.000000    1.000000


 Rotational constants
 --------------------

 The molecule is planar.

               A                   B                   C

           5235.1698           1525.5507           1181.3115 MHz
            0.174626            0.050887            0.039404 cm-1


@  Nuclear repulsion energy :  318.786099174063 Hartree


  Symmetry Orbitals
  -----------------

  Number of orbitals in each symmetry:          38    8


  Symmetry  A' ( 1)

    1     O        1s         1
    2     O        1s         2
    3     O        2px        3
    4     O        2py        4
    5     C        1s         6
    6     C        1s         7
    7     C        2px        8
    8     C        2py        9
    9     C        1s        11
   10     C        1s        12
   11     C        2px       13
   12     C        2py       14
   13     C        1s        16
   14     C        1s        17
   15     C        2px       18
   16     C        2py       19
   17     C        1s        21
   18     C        1s        22
   19     C        2px       23
   20     C        2py       24
   21     C        1s        26
   22     C        1s        27
   23     C        2px       28
   24     C        2py       29
   25     C        1s        31
   26     C        1s        32
   27     C        2px       33
   28     C        2py       34
   29     C        1s        36
   30     C        1s        37
   31     C        2px       38
   32     C        2py       39
   33     H        1s        41
   34     H        1s        42
   35     H        1s        43
   36     H        1s        44
   37     H        1s        45
   38     H        1s        46


  Symmetry  A" ( 2)

   39     O        2pz        5
   40     C        2pz       10
   41     C        2pz       15
   42     C        2pz       20
   43     C        2pz       25
   44     C        2pz       30
   45     C        2pz       35
   46     C        2pz       40

  Symmetries of electric field:  A' (1)  A' (1)  A" (2)

  Symmetries of magnetic field:  A" (2)  A" (2)  A' (1)


                     .---------------------------------------.
                     | Starting in Integral Section (HERMIT) |
                     `---------------------------------------'



    *************************************************************************
    ****************** Output from HERMIT input processing ******************
    *************************************************************************



     ************************************************************************
     ************************** Output from HERINT **************************
     ************************************************************************


 Threshold for neglecting two-electron integrals:  1.00D-12
 Number of two-electron integrals written:      317804 ( 54.3% )
 Megabytes written:                              3.641

 >>>  Time used in TWOINT     is   0.63 seconds
 >>>> Total CPU  time used in HERMIT:   0.68 seconds
 >>>> Total wall time used in HERMIT:   0.69 seconds


                        .----------------------------------.
                        | End of Integral Section (HERMIT) |
                        `----------------------------------'



                   .--------------------------------------------.
                   | Starting in Wave Function Section (SIRIUS) |
                   `--------------------------------------------'


 *** Output from Huckel module :

     Using EWMO model:          T
     Using EHT  model:          F
     Number of Huckel orbitals each symmetry:   38    8

 EWMO - Energy Weighted Maximum Overlap - is a Huckel type method,
        which normally is better than Extended Huckel Theory.
 Reference: Linderberg and Ohrn, Propagators in Quantum Chemistry (Wiley, 1973)

 Huckel EWMO eigenvalues for symmetry :  1
          -20.684509     -11.364910     -11.355634     -11.354404     -11.350433
          -11.347695     -11.347137     -11.344051      -1.937277      -1.688861
           -1.462555      -1.374139      -1.084597      -0.992398      -0.928861
           -0.827915      -0.685638      -0.615758      -0.576302      -0.549965
           -0.501198      -0.469348      -0.403632      -0.389221      -0.163595
           -0.145320      -0.131954      -0.121191      -0.120104      -0.119878
           -0.118006      -0.111891      -0.100556      -0.098225      -0.096233
           -0.093226      -0.082654      -0.074529

 Huckel EWMO eigenvalues for symmetry :  2
           -0.842895      -0.686614      -0.486244      -0.476534      -0.313469
           -0.249478      -0.230641      -0.178625

 **********************************************************************
 *SIRIUS* a direct, restricted step, second order MCSCF program       *
 **********************************************************************

 
     Date and time (Linux)  : Mon Oct 21 14:49:51 2013
     Host name              : c10-6.local                             

 Title lines from ".mol" input file:
     First order minimization in Cartesian coordinates, where the initial    
     Hessian is calculated analytically                                      

 Print level on unit LUPRI =   2 is   0
 Print level on unit LUW4  =   2 is   5

@    Restricted, closed shell Hartree-Fock calculation.

 Initial molecular orbitals are obtained according to
 ".MOSTART EWMO  " input option

     Wave function specification
     ============================
@    For the wave function of type :      >>> HF <<<
@    Number of closed shell electrons          56
@    Number of electrons in active shells       0
@    Total charge of the molecule               0

@    Spin multiplicity and 2 M_S                1         0
     Total number of symmetries                 2
@    Reference state symmetry                   1

     Orbital specifications
     ======================
     Abelian symmetry species          All |    1    2
                                       --- |  ---  ---
     Total number of orbitals           46 |   38    8
     Number of basis functions          46 |   38    8

      ** Automatic occupation of RHF orbitals **

      -- Initial occupation of symmetries is determined from extended Huckel guess.           
      -- Initial occupation of symmetries is :
@    Occupied SCF orbitals              28 |   24    4

     Maximum number of Fock   iterations      0
     Maximum number of DIIS   iterations     60
     Maximum number of QC-SCF iterations     60
     Threshold for SCF convergence     1.00D-05


 >>>>> DIIS optimization of Hartree-Fock <<<<<

 C1-DIIS algorithm; max error vectors =    5

 Automatic occupation of symmetries with  56 electrons.

 Iter     Total energy    Error norm  Delta(E)    SCF occupation
 -----------------------------------------------------------------------------
     (Precalculated two-electron integrals are transformed to P-supermatrix elements.
      Threshold for discarding integrals :  1.00D-12 )
@  1  -338.641754918       2.27D+00  -3.39D+02    24   4
      Virial theorem: -V/T =      2.005526
@      MULPOP O      -1.04; C       0.22; C       0.15; C       0.23; C       0.16; C       0.20; C       0.14; C       0.87; H      -0.16; H      -0.15; 
@             H      -0.15; H      -0.15; H      -0.15; H      -0.15; 
 -----------------------------------------------------------------------------
@  2  -338.950716588       1.55D+00  -3.09D-01    24   4
      Virial theorem: -V/T =      2.009688
@      MULPOP O       0.48; C      -0.14; C      -0.06; C      -0.10; C      -0.05; C      -0.07; C      -0.15; C      -0.45; H       0.06; H       0.10; 
@             H       0.09; H       0.09; H       0.09; H       0.12; 
 -----------------------------------------------------------------------------
@  3  -339.113084668       2.14D-01  -1.62D-01    24   4
      Virial theorem: -V/T =      2.008738
@      MULPOP O      -0.27; C      -0.05; C      -0.07; C      -0.07; C      -0.08; C      -0.08; C       0.01; C       0.22; H       0.03; H       0.07; 
@             H       0.07; H       0.07; H       0.07; H       0.08; 
 -----------------------------------------------------------------------------
@  4  -339.117474314       5.04D-02  -4.39D-03    24   4
      Virial theorem: -V/T =      2.008993
@      MULPOP O      -0.20; C      -0.06; C      -0.06; C      -0.05; C      -0.06; C      -0.05; C      -0.03; C       0.12; H       0.06; H       0.07; 
@             H       0.06; H       0.06; H       0.06; H       0.08; 
 -----------------------------------------------------------------------------
@  5  -339.117832434       1.61D-02  -3.58D-04    24   4
      Virial theorem: -V/T =      2.008960
@      MULPOP O      -0.21; C      -0.06; C      -0.06; C      -0.06; C      -0.07; C      -0.06; C      -0.01; C       0.12; H       0.05; H       0.06; 
@             H       0.07; H       0.07; H       0.07; H       0.08; 
 -----------------------------------------------------------------------------
@  6  -339.117871104       4.91D-03  -3.87D-05    24   4
      Virial theorem: -V/T =      2.008959
@      MULPOP O      -0.21; C      -0.06; C      -0.06; C      -0.06; C      -0.06; C      -0.06; C      -0.02; C       0.13; H       0.05; H       0.07; 
@             H       0.07; H       0.07; H       0.07; H       0.08; 
 -----------------------------------------------------------------------------
@  7  -339.117875627       1.79D-03  -4.52D-06    24   4
      Virial theorem: -V/T =      2.008961
@      MULPOP O      -0.21; C      -0.06; C      -0.06; C      -0.06; C      -0.06; C      -0.06; C      -0.02; C       0.13; H       0.05; H       0.07; 
@             H       0.07; H       0.07; H       0.07; H       0.08; 
 -----------------------------------------------------------------------------
@  8  -339.117876311       8.10D-04  -6.84D-07    24   4
      Virial theorem: -V/T =      2.008962
@      MULPOP O      -0.21; C      -0.06; C      -0.06; C      -0.06; C      -0.06; C      -0.06; C      -0.02; C       0.13; H       0.05; H       0.07; 
@             H       0.07; H       0.07; H       0.07; H       0.08; 
 -----------------------------------------------------------------------------
@  9  -339.117876450       2.60D-04  -1.39D-07    24   4
      Virial theorem: -V/T =      2.008962
@      MULPOP O      -0.21; C      -0.06; C      -0.06; C      -0.06; C      -0.06; C      -0.06; C      -0.02; C       0.13; H       0.05; H       0.07; 
@             H       0.07; H       0.07; H       0.07; H       0.08; 
 -----------------------------------------------------------------------------
@ 10  -339.117876466       1.39D-04  -1.57D-08    24   4
      Virial theorem: -V/T =      2.008963
@      MULPOP O      -0.21; C      -0.06; C      -0.06; C      -0.06; C      -0.06; C      -0.06; C      -0.02; C       0.13; H       0.05; H       0.07; 
@             H       0.07; H       0.07; H       0.07; H       0.08; 
 -----------------------------------------------------------------------------
@ 11  -339.117876470       4.77D-05  -3.64D-09    24   4
      Virial theorem: -V/T =      2.008963
@      MULPOP O      -0.21; C      -0.06; C      -0.06; C      -0.06; C      -0.06; C      -0.06; C      -0.02; C       0.13; H       0.05; H       0.07; 
@             H       0.07; H       0.07; H       0.07; H       0.08; 
 -----------------------------------------------------------------------------
@ 12  -339.117876470       1.70D-05  -2.76D-10    24   4
      Virial theorem: -V/T =      2.008963
@      MULPOP O      -0.21; C      -0.06; C      -0.06; C      -0.06; C      -0.06; C      -0.06; C      -0.02; C       0.13; H       0.05; H       0.07; 
@             H       0.07; H       0.07; H       0.07; H       0.08; 
 -----------------------------------------------------------------------------
@ 13  -339.117876470       7.41D-06  -6.38D-11    24   4

@ *** DIIS converged in  13 iterations !
@     Converged SCF energy, gradient:   -339.117876469908    7.41D-06
    - total time used in SIRFCK :              0.00 seconds


 *** SCF orbital energy analysis ***

 Only the five lowest virtual orbital energies printed in each symmetry.

 Number of electrons :   56
 Orbital occupations :   24    4

 Sym       Hartree-Fock orbital energies

  1    -20.28497823   -11.11845694   -11.04702118   -11.04219629   -11.04167112
       -11.04119198   -11.03857082   -11.03831184    -1.31772092    -1.10288758
        -0.97551170    -0.96612558    -0.81763368    -0.78025249    -0.73269292
        -0.66419553    -0.61291096    -0.57703291    -0.55601117    -0.54405136
        -0.51850843    -0.45727704    -0.44154906    -0.33588335     0.55316112
         0.60637307     0.63487339     0.67887641     0.71203353

  2     -0.48381715    -0.42303845    -0.29036092    -0.28123570     0.21206443
         0.25969514     0.33867899     0.50638113

    E(LUMO) :     0.21206443 au (symmetry 2)
  - E(HOMO) :    -0.28123570 au (symmetry 2)
  ------------------------------------------
    gap     :     0.49330013 au

 >>> Writing SIRIFC interface file <<<

 >>>> CPU and wall time for SCF :       0.095       0.121


                       .-----------------------------------.
                       | >>> Final results from SIRIUS <<< |
                       `-----------------------------------'


@    Spin multiplicity:           1
@    Spatial symmetry:            1
@    Total charge of molecule:    0

@    Final HF energy:            -339.117876469908                 
@    Nuclear repulsion:           318.786099174063
@    Electronic energy:          -657.903975643971

@    Final gradient norm:           0.000007413330

 
     Date and time (Linux)  : Mon Oct 21 14:49:51 2013
     Host name              : c10-6.local                             

 (Only coefficients >0.0100 are printed.)

 Molecular orbitals for symmetry species  1
 ------------------------------------------

    Orbital        20       21       22       23       24       25       26
   1 O   :1s     0.0092  -0.0729   0.0158  -0.0121  -0.0018   0.0135   0.0043
   2 O   :1s    -0.0465   0.3916  -0.0906   0.0682   0.0123  -0.0696  -0.0158
   3 O   :2px   -0.0072   0.4566   0.0400   0.0947   0.5426   0.1448   0.0084
   4 O   :2py   -0.0646   0.3403  -0.3110   0.1085  -0.6413   0.0002   0.0564
   5 C   :1s    -0.0264   0.0230   0.0106   0.0084   0.0090   0.0316  -0.0398
   6 C   :1s     0.0838  -0.0796  -0.0313  -0.0231  -0.0343  -0.2045   0.2497
   7 C   :2px   -0.1388  -0.1015   0.2531  -0.1755  -0.1096  -0.1086  -0.1377
   8 C   :2py    0.3174  -0.0430  -0.1616  -0.2416  -0.0304   0.2357  -0.2636
   9 C   :1s    -0.0194  -0.0155  -0.0039  -0.0076  -0.0096   0.0424  -0.0433
  10 C   :1s     0.0610   0.0548   0.0171   0.0168   0.0357  -0.2646   0.2831
  11 C   :2px    0.2823   0.0511  -0.2484   0.1252   0.0951   0.0669  -0.4197
  12 C   :2py    0.1212  -0.0482   0.1998   0.2492  -0.0239   0.1627  -0.2171
  13 C   :1s     0.0026  -0.0058  -0.0103   0.0025  -0.0023   0.0338  -0.0452
  14 C   :1s    -0.0073   0.0159   0.0263  -0.0073   0.0115  -0.2158   0.2904
  15 C   :2px   -0.0849   0.2179   0.2752  -0.1516  -0.0193   0.1249  -0.4750
  16 C   :2py   -0.0469   0.0872  -0.1737  -0.2854   0.0103  -0.0592   0.0578
  17 C   :1s     0.0264  -0.0049  -0.0006   0.0057  -0.0081   0.0541  -0.0100
  18 C   :1s    -0.0842   0.0166   0.0094  -0.0119   0.0294  -0.3349   0.0745
  19 C   :2px   -0.1271  -0.2107  -0.2632   0.1595   0.0813  -0.0855  -0.3136
  20 C   :2py    0.3153  -0.0775   0.1210   0.2535  -0.0365  -0.2134   0.1451
  21 C   :1s     0.0170   0.0046   0.0099  -0.0079   0.0071   0.0138  -0.0598
  22 C   :1s    -0.0531  -0.0113  -0.0321   0.0191  -0.0238  -0.0970   0.3679
  23 C   :2px    0.2748   0.1904   0.2720  -0.1194  -0.0592  -0.2536  -0.1227
  24 C   :2py    0.1327  -0.0201  -0.1199  -0.2710   0.0962  -0.2424  -0.0940
  25 C   :1s    -0.0013  -0.0071  -0.0204   0.0013  -0.0353   0.0946   0.0435
  26 C   :1s     0.0035   0.0264   0.0670  -0.0027   0.1624  -0.5451  -0.2439
  27 C   :2px   -0.0740   0.1521  -0.0958   0.1406   0.3120  -0.5151  -0.3219
  28 C   :2py   -0.0497   0.0439   0.0992   0.3013  -0.1094   0.0930  -0.1026
  29 C   :1s    -0.0033   0.0239   0.0254  -0.0025  -0.0065  -0.1423  -0.0954
  30 C   :1s     0.0107  -0.0785  -0.0991   0.0115   0.0341   0.8345   0.5761
  31 C   :2px    0.0630  -0.2676   0.2121  -0.0775  -0.1390  -0.4382  -0.1417
  32 C   :2py   -0.0283  -0.2805   0.0127  -0.0568   0.1281  -0.0405  -0.2761
  33 H   :1s     0.0260   0.1773  -0.0534   0.0713  -0.3335  -0.4700  -0.5340
  34 H   :1s    -0.2564  -0.0136   0.1974   0.2142  -0.0440   0.4058  -0.3471
  35 H   :1s    -0.2248   0.0235   0.0642  -0.2718  -0.0535   0.3160  -0.6181
  36 H   :1s     0.0541  -0.1577  -0.3166   0.0556   0.0376   0.2577  -0.6407
  37 H   :1s     0.2496  -0.0218   0.1850   0.2262  -0.0543   0.3995  -0.2365
  38 H   :1s     0.2222   0.1118   0.0906  -0.2744  -0.0408   0.4488  -0.0275

 Molecular orbitals for symmetry species  2
 ------------------------------------------

    Orbital         1        2        3        4        5        6
   1 O   :2pz    0.2894  -0.5535  -0.0240   0.2905  -0.5072   0.0006
   2 C   :2pz    0.2963   0.1423   0.4788  -0.2323  -0.3363   0.5739
   3 C   :2pz    0.2533   0.2467   0.4375   0.2805  -0.1992  -0.5677
   4 C   :2pz    0.2367   0.2854  -0.0412   0.4979   0.4966  -0.0044
   5 C   :2pz    0.2499   0.2454  -0.4799   0.2037  -0.1903   0.5728
   6 C   :2pz    0.2890   0.1410  -0.4394  -0.3013  -0.3440  -0.5664
   7 C   :2pz    0.3647   0.0102   0.0373  -0.5122   0.4631  -0.0122
   8 C   :2pz    0.3277  -0.4956  -0.0098   0.1166   0.4297   0.0025



 >>>> Total CPU  time used in SIRIUS :      0.13 seconds
 >>>> Total wall time used in SIRIUS :      0.17 seconds

 
     Date and time (Linux)  : Mon Oct 21 14:49:51 2013
     Host name              : c10-6.local                             


                     .---------------------------------------.
                     | End of Wave Function Section (SIRIUS) |
                     `---------------------------------------'


     Order of analytical energy-derivatives available:   2
     This will be the default.

 Center of mass dipole origin  :    0.712197    0.045875    0.000000

 Center of mass gauge origin   :    0.712197    0.045875    0.000000


                 .------------------------------------------------.
                 | Starting in Static Property Section (ABACUS) - |
                 `------------------------------------------------'


 
     Date and time (Linux)  : Mon Oct 21 14:49:51 2013
     Host name              : c10-6.local                             


   ***************************************************************************
   ************************ FINAL RESULTS from ABACUS ************************
   ***************************************************************************


 
     Date and time (Linux)  : Mon Oct 21 14:50:02 2013
     Host name              : c10-6.local                             


                             Molecular geometry (au)
                             -----------------------

 O          6.1169594363            0.0000000000            0.0000000000
 C         -0.4281183799           -2.2595362151            0.0000000000
 C         -2.9286935224           -1.4347871225            0.0000000000
 C         -3.4656164013            1.1411808224            0.0000000000
 C         -1.5061149145            2.8972276388            0.0000000000
 C          0.9961412279            2.0785184368            0.0000000000
 C          1.5529020669           -0.5103443405            0.0000000000
 C          4.3100239391           -1.4696981757            0.0000000000
 H          4.6927731310           -3.5243404323            0.0000000000
 H         -0.0483891239           -4.2673340819            0.0000000000
 H         -4.4516781974           -2.7942683921            0.0000000000
 H         -5.4051670195            1.7780840801            0.0000000000
 H         -1.9265366341            4.8949599174            0.0000000000
 H          2.4915143918            3.4703378645            0.0000000000





                        Molecular wave function and energy
                        ----------------------------------

     Spin multiplicity  1     State number       1     Total charge       0

     Total energy       -339.1178764699 au (Hartrees)
                         -9227.86682909 eV
                           -890353.8474 kJ/mol


                             Relativistic corrections
                             ------------------------

     Darwin correction:                          0.4014799572 au
     Mass-velocity correction:                  -0.5102515425 au

     Total relativistic correction:             -0.1087715853 au (0.0321%)
     Non-relativistic + relativistic energy:  -339.2266480552 au




                             Molecular gradient (au)
                             -----------------------

                         O    x     0.0166181707
                         O    y     0.0120917750
                         C    x     0.0070983803
                         C    y    -0.0107263964
                         C    x    -0.0088989439
                         C    y    -0.0062740457
                         C    x    -0.0077395813
                         C    y     0.0034853173
                         C    x    -0.0045685962
                         C    y     0.0116283997
                         C    x     0.0082326947
                         C    y     0.0055833298
                         C    x    -0.0083720175
                         C    y     0.0143938234
                         C    x    -0.0116867446
                         C    y    -0.0311748942
                         H    x     0.0134007458
                         H    y    -0.0005071195
                         H    x    -0.0032386246
                         H    y     0.0011565011
                         H    x     0.0014315185
                         H    y     0.0015614024
                         H    x     0.0024595005
                         H    y    -0.0007489985
                         H    x    -0.0000302270
                         H    y    -0.0021102848
                         H    x    -0.0047062754
                         H    y     0.0016411901



 O          0.0166181707            0.0120917750            0.0000000000
 C          0.0070983803           -0.0107263964            0.0000000000
 C         -0.0088989439           -0.0062740457            0.0000000000
 C         -0.0077395813            0.0034853173            0.0000000000
 C         -0.0045685962            0.0116283997            0.0000000000
 C          0.0082326947            0.0055833298            0.0000000000
 C         -0.0083720175            0.0143938234            0.0000000000
 C         -0.0116867446           -0.0311748942            0.0000000000
 H          0.0134007458           -0.0005071195            0.0000000000
 H         -0.0032386246            0.0011565011            0.0000000000
 H          0.0014315185            0.0015614024            0.0000000000
 H          0.0024595005           -0.0007489985            0.0000000000
 H         -0.0000302270           -0.0021102848            0.0000000000
 H         -0.0047062754            0.0016411901            0.0000000000





                              Molecular Hessian (au)
                              ----------------------


           Symmetry 1

           O    x      O    y      C    x      C    y      C    x      C    y

 O    x    0.660931
 O    y    0.455782    0.478157
 C    x   -0.000220    0.006919    0.812642
 C    y    0.009640    0.001081   -0.042562    1.005555
 C    x   -0.002603   -0.000589   -0.376998    0.146693    0.923935
 C    y   -0.000392    0.001056   -0.034025   -0.217083    0.110208    0.904353
 C    x   -0.000042    0.000876    0.043389    0.050531   -0.208714    0.129942
 C    y   -0.000988   -0.000057    0.195619    0.012950   -0.052210   -0.391116
 C    x   -0.000315   -0.000916   -0.169724   -0.033731    0.130449   -0.145363
 C    y   -0.001087    0.001435   -0.034754   -0.005712   -0.001978   -0.069413
 C    x    0.004836    0.001647    0.124754   -0.003378   -0.078515    0.088164
 C    y   -0.007716   -0.004830   -0.137933   -0.066323    0.088075   -0.095837
 C    x   -0.070863   -0.016343   -0.286264   -0.176628   -0.084134    0.026447
 C    y   -0.031226    0.024235   -0.016991   -0.283341   -0.115826    0.134706
 C    x   -0.597360   -0.393633   -0.039010    0.002559    0.002013   -0.006844
 C    y   -0.409609   -0.465314   -0.030062    0.012479   -0.003195   -0.002460
 H    x    0.005510   -0.054139    0.002988    0.001499    0.000219   -0.000244
 H    y   -0.014486   -0.036756   -0.000861    0.001204   -0.000094   -0.000318
 H    x    0.000354    0.000676   -0.094367    0.071470   -0.000084    0.040137
 H    y    0.000145   -0.000232    0.073545   -0.464146   -0.007458   -0.002091
 H    x   -0.000687    0.000086   -0.016286   -0.028633   -0.303228   -0.199588
 H    y    0.000405   -0.000049    0.018178    0.014203   -0.199485   -0.258062
 H    x    0.000205   -0.000028    0.000425    0.000956    0.002204   -0.007799
 H    y   -0.000019    0.000089   -0.000653   -0.007118    0.039052   -0.003303
 H    x   -0.000044   -0.000182   -0.000733   -0.000575   -0.005142   -0.002447
 H    y    0.000039    0.000052   -0.000804    0.002065   -0.004287   -0.001440
 H    x    0.000298   -0.000157   -0.000597    0.002160    0.000597    0.001804
 H    y   -0.000489    0.001134    0.004383   -0.005814    0.001093    0.001008

           C    x      C    y      C    x      C    y      C    x      C    y

 C    x    1.005461
 C    y   -0.063365    0.831975
 C    x   -0.309718   -0.007981    0.811522
 C    y   -0.190054   -0.290140   -0.041195    1.016472
 C    x   -0.084794   -0.122295   -0.375988    0.149690    0.921168
 C    y    0.021103    0.141086   -0.030131   -0.219146    0.110098    0.889128
 C    x   -0.014619   -0.052675    0.037701    0.047469   -0.193018    0.105276
 C    y   -0.050886   -0.154827    0.187863    0.016241   -0.050011   -0.369370
 C    x    0.000510    0.000069    0.004342    0.000595   -0.010151    0.017429
 C    y   -0.002388   -0.001344   -0.000322   -0.008943    0.040471   -0.002765
 H    x    0.000054   -0.000095    0.000582    0.001826   -0.006390   -0.001052
 H    y    0.000236    0.000102   -0.000306   -0.000021    0.000821    0.000510
 H    x   -0.007121    0.000058   -0.000622   -0.000519   -0.005438   -0.002430
 H    y    0.001848    0.000115    0.000005    0.002177   -0.004664   -0.000978
 H    x    0.012810    0.014889   -0.000674    0.001834    0.000939    0.001340
 H    y   -0.032117   -0.014497    0.003711   -0.005982    0.001651    0.000371
 H    x   -0.443130    0.119078   -0.014595    0.016159   -0.002430   -0.004403
 H    y    0.119078   -0.119512   -0.030637    0.013600   -0.002910   -0.004345
 H    x    0.011384   -0.033949   -0.096574    0.080914   -0.000784    0.039129
 H    y    0.012953   -0.013098    0.080730   -0.464902   -0.007252   -0.001220
 H    x   -0.005472    0.003846   -0.016385   -0.028899   -0.294190   -0.198785
 H    y    0.002245   -0.001638    0.018276    0.014334   -0.202033   -0.266281

           C    x      C    y      C    x      C    y      H    x      H    y

 C    x    0.803532
 C    y    0.022042    0.822887
 C    x   -0.209451    0.041608    0.944128
 C    y    0.067312   -0.161559    0.261597    1.020268
 H    x    0.001651    0.028747   -0.097498    0.077875    0.093610
 H    y   -0.007535   -0.002124    0.075765   -0.394248   -0.054012    0.431431
 H    x    0.011466   -0.031095    0.001567   -0.001886   -0.000086    0.000413
 H    y    0.012078   -0.013133    0.001414    0.002231   -0.000250   -0.000079
 H    x   -0.004888    0.004503    0.000052   -0.001372   -0.000060    0.000008
 H    y    0.002158   -0.000987    0.000387    0.000654    0.000028    0.000025
 H    x    0.002176   -0.001264   -0.000800    0.000562    0.000017   -0.000075
 H    y   -0.001023   -0.000506    0.000330   -0.000026   -0.000073    0.000045
 H    x   -0.006691    0.000048    0.000708    0.001718   -0.000529    0.000106
 H    y    0.001912    0.000430   -0.000382    0.000027    0.000019   -0.000003
 H    x    0.013403    0.012487    0.000951   -0.000702   -0.000068    0.000021
 H    y   -0.030491   -0.012652   -0.000892    0.001002   -0.000130    0.000233

           H    x      H    y      H    x      H    y      H    x      H    y

 H    x    0.091034
 H    y   -0.076917    0.475645
 H    x    0.002296   -0.000257    0.307876
 H    y   -0.000376    0.001524    0.207322    0.261065
 H    x    0.000114   -0.000282    0.001403   -0.000074    0.453085
 H    y    0.001754   -0.000078   -0.000347    0.002366   -0.123931    0.116268
 H    x    0.000195    0.000146    0.000629   -0.001437    0.001937    0.000656
 H    y    0.000137   -0.000433    0.000563   -0.000551    0.000393    0.001827
 H    x    0.000692    0.000648   -0.000182   -0.000349   -0.000611   -0.001277
 H    y   -0.001423   -0.000522   -0.000347   -0.000081    0.000709    0.000695

           H    x      H    y      H    x      H    y

 H    x    0.093293
 H    y   -0.083824    0.475744
 H    x    0.002351   -0.000199    0.299213
 H    y   -0.000303    0.001502    0.209401    0.267081


           Symmetry 2

           O    z      C    z      C    z      C    z      C    z      C    z

 O    z    0.031058
 C    z    0.001115    0.190301
 C    z   -0.001472   -0.088358    0.188333
 C    z    0.000084    0.009561   -0.087497    0.189873
 C    z   -0.001154   -0.011392    0.009876   -0.087325    0.188056
 C    z   -0.000362    0.008929   -0.011024    0.009616   -0.087492    0.191033
 C    z    0.020243   -0.086195    0.012283   -0.011958    0.011309   -0.086768
 C    z   -0.073342    0.003899    0.010000   -0.000972    0.009735    0.003209
 H    z    0.022697   -0.000777   -0.000847    0.000178   -0.000935    0.001331
 H    z    0.000688   -0.051472    0.005659    0.010505   -0.000994    0.009792
 H    z   -0.000113    0.004799   -0.051584    0.004922    0.010398   -0.000932
 H    z    0.000219    0.010552    0.005323   -0.052529    0.005389    0.010357
 H    z    0.000058   -0.000938    0.010301    0.004932   -0.051566    0.004748
 H    z    0.000282    0.009976   -0.000993    0.010611    0.006094   -0.052435

           C    z      C    z      H    z      H    z      H    z      H    z

 C    z    0.189337
 C    z   -0.090248    0.213652
 H    z    0.016104   -0.063804    0.025304
 H    z    0.002926   -0.005285    0.000280    0.035488
 H    z    0.010331   -0.000010    0.000036   -0.005987    0.035604
 H    z   -0.001127   -0.001443    0.000076   -0.000268   -0.005920    0.035558
 H    z    0.010405   -0.000011   -0.000130   -0.001381   -0.000143   -0.005849
 H    z    0.003359   -0.005379    0.000486    0.000049   -0.001401   -0.000338

           H    z      H    z

 H    z    0.035633
 H    z   -0.006060    0.035748




            O      x    O      y    O      z    C      x    C      y    C      z

 O      x    0.660931
 O      y    0.455782    0.478157
 O      z    0.000000    0.000000    0.031058

 C      x   -0.000220    0.006919    0.000000    0.812642
 C      y    0.009640    0.001081    0.000000   -0.042562    1.005555
 C      z    0.000000    0.000000    0.001115    0.000000    0.000000    0.190301

 C      x   -0.002603   -0.000589    0.000000   -0.376998    0.146693    0.000000
 C      y   -0.000392    0.001056    0.000000   -0.034025   -0.217083    0.000000
 C      z    0.000000    0.000000   -0.001472    0.000000    0.000000   -0.088358

 C      x   -0.000042    0.000876    0.000000    0.043389    0.050531    0.000000
 C      y   -0.000988   -0.000057    0.000000    0.195619    0.012950    0.000000
 C      z    0.000000    0.000000    0.000084    0.000000    0.000000    0.009561

 C      x   -0.000315   -0.000916    0.000000   -0.169724   -0.033731    0.000000
 C      y   -0.001087    0.001435    0.000000   -0.034754   -0.005712    0.000000
 C      z    0.000000    0.000000   -0.001154    0.000000    0.000000   -0.011392

 C      x    0.004836    0.001647    0.000000    0.124754   -0.003378    0.000000
 C      y   -0.007716   -0.004830    0.000000   -0.137933   -0.066323    0.000000
 C      z    0.000000    0.000000   -0.000362    0.000000    0.000000    0.008929

 C      x   -0.070863   -0.016343    0.000000   -0.286264   -0.176628    0.000000
 C      y   -0.031226    0.024235    0.000000   -0.016991   -0.283341    0.000000
 C      z    0.000000    0.000000    0.020243    0.000000    0.000000   -0.086195

 C      x   -0.597360   -0.393633    0.000000   -0.039010    0.002559    0.000000
 C      y   -0.409609   -0.465314    0.000000   -0.030062    0.012479    0.000000
 C      z    0.000000    0.000000   -0.073342    0.000000    0.000000    0.003899

 H      x    0.005510   -0.054139    0.000000    0.002988    0.001499    0.000000
 H      y   -0.014486   -0.036756    0.000000   -0.000861    0.001204    0.000000
 H      z    0.000000    0.000000    0.022697    0.000000    0.000000   -0.000777

 H      x    0.000354    0.000676    0.000000   -0.094367    0.071470    0.000000
 H      y    0.000145   -0.000232    0.000000    0.073545   -0.464146    0.000000
 H      z    0.000000    0.000000    0.000688    0.000000    0.000000   -0.051472

 H      x   -0.000687    0.000086    0.000000   -0.016286   -0.028633    0.000000
 H      y    0.000405   -0.000049    0.000000    0.018178    0.014203    0.000000
 H      z    0.000000    0.000000   -0.000113    0.000000    0.000000    0.004799

 H      x    0.000205   -0.000028    0.000000    0.000425    0.000956    0.000000
 H      y   -0.000019    0.000089    0.000000   -0.000653   -0.007118    0.000000
 H      z    0.000000    0.000000    0.000219    0.000000    0.000000    0.010552

 H      x   -0.000044   -0.000182    0.000000   -0.000733   -0.000575    0.000000
 H      y    0.000039    0.000052    0.000000   -0.000804    0.002065    0.000000
 H      z    0.000000    0.000000    0.000058    0.000000    0.000000   -0.000938

 H      x    0.000298   -0.000157    0.000000   -0.000597    0.002160    0.000000
 H      y   -0.000489    0.001134    0.000000    0.004383   -0.005814    0.000000
 H      z    0.000000    0.000000    0.000282    0.000000    0.000000    0.009976


            C      x    C      y    C      z    C      x    C      y    C      z

 C      x    0.923935
 C      y    0.110208    0.904353
 C      z    0.000000    0.000000    0.188333

 C      x   -0.208714    0.129942    0.000000    1.005461
 C      y   -0.052210   -0.391116    0.000000   -0.063365    0.831975
 C      z    0.000000    0.000000   -0.087497    0.000000    0.000000    0.189873

 C      x    0.130449   -0.145363    0.000000   -0.309718   -0.007981    0.000000
 C      y   -0.001978   -0.069413    0.000000   -0.190054   -0.290140    0.000000
 C      z    0.000000    0.000000    0.009876    0.000000    0.000000   -0.087325

 C      x   -0.078515    0.088164    0.000000   -0.084794   -0.122295    0.000000
 C      y    0.088075   -0.095837    0.000000    0.021103    0.141086    0.000000
 C      z    0.000000    0.000000   -0.011024    0.000000    0.000000    0.009616

 C      x   -0.084134    0.026447    0.000000   -0.014619   -0.052675    0.000000
 C      y   -0.115826    0.134706    0.000000   -0.050886   -0.154827    0.000000
 C      z    0.000000    0.000000    0.012283    0.000000    0.000000   -0.011958

 C      x    0.002013   -0.006844    0.000000    0.000510    0.000069    0.000000
 C      y   -0.003195   -0.002460    0.000000   -0.002388   -0.001344    0.000000
 C      z    0.000000    0.000000    0.010000    0.000000    0.000000   -0.000972

 H      x    0.000219   -0.000244    0.000000    0.000054   -0.000095    0.000000
 H      y   -0.000094   -0.000318    0.000000    0.000236    0.000102    0.000000
 H      z    0.000000    0.000000   -0.000847    0.000000    0.000000    0.000178

 H      x   -0.000084    0.040137    0.000000   -0.007121    0.000058    0.000000
 H      y   -0.007458   -0.002091    0.000000    0.001848    0.000115    0.000000
 H      z    0.000000    0.000000    0.005659    0.000000    0.000000    0.010505

 H      x   -0.303228   -0.199588    0.000000    0.012810    0.014889    0.000000
 H      y   -0.199485   -0.258062    0.000000   -0.032117   -0.014497    0.000000
 H      z    0.000000    0.000000   -0.051584    0.000000    0.000000    0.004922

 H      x    0.002204   -0.007799    0.000000   -0.443130    0.119078    0.000000
 H      y    0.039052   -0.003303    0.000000    0.119078   -0.119512    0.000000
 H      z    0.000000    0.000000    0.005323    0.000000    0.000000   -0.052529

 H      x   -0.005142   -0.002447    0.000000    0.011384   -0.033949    0.000000
 H      y   -0.004287   -0.001440    0.000000    0.012953   -0.013098    0.000000
 H      z    0.000000    0.000000    0.010301    0.000000    0.000000    0.004932

 H      x    0.000597    0.001804    0.000000   -0.005472    0.003846    0.000000
 H      y    0.001093    0.001008    0.000000    0.002245   -0.001638    0.000000
 H      z    0.000000    0.000000   -0.000993    0.000000    0.000000    0.010611


            C      x    C      y    C      z    C      x    C      y    C      z

 C      x    0.811522
 C      y   -0.041195    1.016472
 C      z    0.000000    0.000000    0.188056

 C      x   -0.375988    0.149690    0.000000    0.921168
 C      y   -0.030131   -0.219146    0.000000    0.110098    0.889128
 C      z    0.000000    0.000000   -0.087492    0.000000    0.000000    0.191033

 C      x    0.037701    0.047469    0.000000   -0.193018    0.105276    0.000000
 C      y    0.187863    0.016241    0.000000   -0.050011   -0.369370    0.000000
 C      z    0.000000    0.000000    0.011309    0.000000    0.000000   -0.086768

 C      x    0.004342    0.000595    0.000000   -0.010151    0.017429    0.000000
 C      y   -0.000322   -0.008943    0.000000    0.040471   -0.002765    0.000000
 C      z    0.000000    0.000000    0.009735    0.000000    0.000000    0.003209

 H      x    0.000582    0.001826    0.000000   -0.006390   -0.001052    0.000000
 H      y   -0.000306   -0.000021    0.000000    0.000821    0.000510    0.000000
 H      z    0.000000    0.000000   -0.000935    0.000000    0.000000    0.001331

 H      x   -0.000622   -0.000519    0.000000   -0.005438   -0.002430    0.000000
 H      y    0.000005    0.002177    0.000000   -0.004664   -0.000978    0.000000
 H      z    0.000000    0.000000   -0.000994    0.000000    0.000000    0.009792

 H      x   -0.000674    0.001834    0.000000    0.000939    0.001340    0.000000
 H      y    0.003711   -0.005982    0.000000    0.001651    0.000371    0.000000
 H      z    0.000000    0.000000    0.010398    0.000000    0.000000   -0.000932

 H      x   -0.014595    0.016159    0.000000   -0.002430   -0.004403    0.000000
 H      y   -0.030637    0.013600    0.000000   -0.002910   -0.004345    0.000000
 H      z    0.000000    0.000000    0.005389    0.000000    0.000000    0.010357

 H      x   -0.096574    0.080914    0.000000   -0.000784    0.039129    0.000000
 H      y    0.080730   -0.464902    0.000000   -0.007252   -0.001220    0.000000
 H      z    0.000000    0.000000   -0.051566    0.000000    0.000000    0.004748

 H      x   -0.016385   -0.028899    0.000000   -0.294190   -0.198785    0.000000
 H      y    0.018276    0.014334    0.000000   -0.202033   -0.266281    0.000000
 H      z    0.000000    0.000000    0.006094    0.000000    0.000000   -0.052435


            C      x    C      y    C      z    C      x    C      y    C      z

 C      x    0.803532
 C      y    0.022042    0.822887
 C      z    0.000000    0.000000    0.189337

 C      x   -0.209451    0.041608    0.000000    0.944128
 C      y    0.067312   -0.161559    0.000000    0.261597    1.020268
 C      z    0.000000    0.000000   -0.090248    0.000000    0.000000    0.213652

 H      x    0.001651    0.028747    0.000000   -0.097498    0.077875    0.000000
 H      y   -0.007535   -0.002124    0.000000    0.075765   -0.394248    0.000000
 H      z    0.000000    0.000000    0.016104    0.000000    0.000000   -0.063804

 H      x    0.011466   -0.031095    0.000000    0.001567   -0.001886    0.000000
 H      y    0.012078   -0.013133    0.000000    0.001414    0.002231    0.000000
 H      z    0.000000    0.000000    0.002926    0.000000    0.000000   -0.005285

 H      x   -0.004888    0.004503    0.000000    0.000052   -0.001372    0.000000
 H      y    0.002158   -0.000987    0.000000    0.000387    0.000654    0.000000
 H      z    0.000000    0.000000    0.010331    0.000000    0.000000   -0.000010

 H      x    0.002176   -0.001264    0.000000   -0.000800    0.000562    0.000000
 H      y   -0.001023   -0.000506    0.000000    0.000330   -0.000026    0.000000
 H      z    0.000000    0.000000   -0.001127    0.000000    0.000000   -0.001443

 H      x   -0.006691    0.000048    0.000000    0.000708    0.001718    0.000000
 H      y    0.001912    0.000430    0.000000   -0.000382    0.000027    0.000000
 H      z    0.000000    0.000000    0.010405    0.000000    0.000000   -0.000011

 H      x    0.013403    0.012487    0.000000    0.000951   -0.000702    0.000000
 H      y   -0.030491   -0.012652    0.000000   -0.000892    0.001002    0.000000
 H      z    0.000000    0.000000    0.003359    0.000000    0.000000   -0.005379


            H      x    H      y    H      z    H      x    H      y    H      z

 H      x    0.093610
 H      y   -0.054012    0.431431
 H      z    0.000000    0.000000    0.025304

 H      x   -0.000086    0.000413    0.000000    0.091034
 H      y   -0.000250   -0.000079    0.000000   -0.076917    0.475645
 H      z    0.000000    0.000000    0.000280    0.000000    0.000000    0.035488

 H      x   -0.000060    0.000008    0.000000    0.002296   -0.000257    0.000000
 H      y    0.000028    0.000025    0.000000   -0.000376    0.001524    0.000000
 H      z    0.000000    0.000000    0.000036    0.000000    0.000000   -0.005987

 H      x    0.000017   -0.000075    0.000000    0.000114   -0.000282    0.000000
 H      y   -0.000073    0.000045    0.000000    0.001754   -0.000078    0.000000
 H      z    0.000000    0.000000    0.000076    0.000000    0.000000   -0.000268

 H      x   -0.000529    0.000106    0.000000    0.000195    0.000146    0.000000
 H      y    0.000019   -0.000003    0.000000    0.000137   -0.000433    0.000000
 H      z    0.000000    0.000000   -0.000130    0.000000    0.000000   -0.001381

 H      x   -0.000068    0.000021    0.000000    0.000692    0.000648    0.000000
 H      y   -0.000130    0.000233    0.000000   -0.001423   -0.000522    0.000000
 H      z    0.000000    0.000000    0.000486    0.000000    0.000000    0.000049


            H      x    H      y    H      z    H      x    H      y    H      z

 H      x    0.307876
 H      y    0.207322    0.261065
 H      z    0.000000    0.000000    0.035604

 H      x    0.001403   -0.000074    0.000000    0.453085
 H      y   -0.000347    0.002366    0.000000   -0.123931    0.116268
 H      z    0.000000    0.000000   -0.005920    0.000000    0.000000    0.035558

 H      x    0.000629   -0.001437    0.000000    0.001937    0.000656    0.000000
 H      y    0.000563   -0.000551    0.000000    0.000393    0.001827    0.000000
 H      z    0.000000    0.000000   -0.000143    0.000000    0.000000   -0.005849

 H      x   -0.000182   -0.000349    0.000000   -0.000611   -0.001277    0.000000
 H      y   -0.000347   -0.000081    0.000000    0.000709    0.000695    0.000000
 H      z    0.000000    0.000000   -0.001401    0.000000    0.000000   -0.000338


            H      x    H      y    H      z    H      x    H      y    H      z

 H      x    0.093293
 H      y   -0.083824    0.475744
 H      z    0.000000    0.000000    0.035633

 H      x    0.002351   -0.000199    0.000000    0.299213
 H      y   -0.000303    0.001502    0.000000    0.209401    0.267081
 H      z    0.000000    0.000000   -0.006060    0.000000    0.000000    0.035748





                                  Dipole moment
                                  -------------

                 au               Debye          C m (/(10**-30)
              0.739177           1.878802           6.267007


                             Dipole moment components
                             ------------------------

                 au               Debye          C m (/(10**-30)

      x     -0.67941126        -1.72689105        -5.76028852
      y     -0.29117632        -0.74009634        -2.46869567


   Units:   1 a.u. =   2.54175 Debye 
            1 a.u. =   8.47835 (10**-30) C m (SI)




   Interatomic separations (in Angstrom):
   --------------------------------------

            O           C           C           C           C           C     
            ------      ------      ------      ------      ------      ------
 O     :    0.000000
 C     :    3.664091    0.000000
 C     :    4.846595    1.393364    0.000000
 C     :    5.106712    2.412913    1.392440    0.000000
 C     :    4.315478    2.787829    2.412844    1.392384    0.000000
 C     :    2.924537    2.416158    2.787496    2.412600    1.393211    0.000000
 C     :    2.430247    1.398482    2.421487    2.795792    2.423212    1.401290
 C     :    1.232543    2.541915    3.830609    4.340456    3.848742    2.569190
 H     :    2.011520    2.791291    4.181939    4.973320    4.723118    3.552081
 H     :    3.967829    1.081316    2.137737    3.385472    3.869002    3.403267
 H     :    5.784854    2.147897    1.080309    2.146926    3.391257    3.867804
 H     :    6.169421    3.391419    2.146625    1.080287    2.146601    3.391155
 H     :    4.982660    3.868140    3.391279    2.146896    1.080311    2.147859
 H     :    2.655768    3.403054    3.868387    3.384765    2.137083    1.081038

            C           C           H           H           H           H     
            ------      ------      ------      ------      ------      ------
 C     :    0.000000
 C     :    1.544806    0.000000
 H     :    2.303165    1.105974    0.000000
 H     :    2.161163    2.740634    2.539536    0.000000
 H     :    3.399579    4.689176    4.854433    2.457051    0.000000
 H     :    3.876079    5.420723    6.035500    4.274303    2.471634    0.000000
 H     :    3.401741    4.715428    5.667384    4.949294    4.282759    2.471648
 H     :    2.164252    2.785651    3.880391    4.309552    4.948676    4.273620

            H           H     
            ------      ------
 H     :    0.000000
 H     :    2.456472    0.000000


  Max    interatomic separation is    6.1694 Angstrom (   11.6585 Bohr)
  between atoms   12 and    1, "H     " and "O     ".

  Min HX interatomic separation is    1.0803 Angstrom (    2.0414 Bohr)

  Min YX interatomic separation is    1.2325 Angstrom (    2.3292 Bohr)


  Bond distances (Angstrom):
  --------------------------

                  atom 1     atom 2       distance
                  ------     ------       --------
  bond distance:  C          C            1.393364
  bond distance:  C          C            1.392440
  bond distance:  C          C            1.392384
  bond distance:  C          C            1.393211
  bond distance:  C          C            1.398482
  bond distance:  C          C            1.401290
  bond distance:  C          O            1.232543
  bond distance:  C          C            1.544806
  bond distance:  H          C            1.105974
  bond distance:  H          C            1.081316
  bond distance:  H          C            1.080309
  bond distance:  H          C            1.080287
  bond distance:  H          C            1.080311
  bond distance:  H          C            1.081038


  Bond angles (degrees):
  ----------------------

                  atom 1     atom 2     atom 3         angle
                  ------     ------     ------         -----
  bond angle:     C          C          C            120.303
  bond angle:     C          C          H            118.963
  bond angle:     C          C          H            120.734
  bond angle:     C          C          C            120.028
  bond angle:     C          C          H            119.993
  bond angle:     C          C          H            119.980
  bond angle:     C          C          C            120.092
  bond angle:     C          C          H            119.953
  bond angle:     C          C          H            119.955
  bond angle:     C          C          C            120.017
  bond angle:     C          C          H            119.981
  bond angle:     C          C          H            120.002
  bond angle:     C          C          C            120.255
  bond angle:     C          C          H            118.937
  bond angle:     C          C          H            120.809
  bond angle:     C          C          C            119.307
  bond angle:     C          C          C            119.371
  bond angle:     C          C          C            121.323
  bond angle:     O          C          C            121.691
  bond angle:     O          C          H            118.571
  bond angle:     C          C          H            119.738




 CPU time statistics for ABACUS
 ------------------------------

 TWOTEX     00:00:03      32 %
 RHSIDE     00:00:06      60 %

 TOTAL      00:00:11     100 %


 >>>> Total CPU  time used in ABACUS:  10.64 seconds
 >>>> Total wall time used in ABACUS:  10.87 seconds


                   .-------------------------------------------.
                   | End of Static Property Section (ABACUS) - |
                   `-------------------------------------------'

 
 Initial Hessian has been calculated.
 

 Predicted energy change       -0.003047453947962


           :::::::::::::::::::::::::::::::::::::::::::::::::::::::::::
           ::::::::::::::: Optimization Control Center :::::::::::::::
           :::::::::::::::::::::::::::::::::::::::::::::::::::::::::::



                                Next geometry (au)
                                ------------------

 O          6.0877357481            0.0269377902            0.0000000000
 C         -0.4164260866           -2.2571372413            0.0000000000
 C         -2.9042613749           -1.4391997015            0.0000000000
 C         -3.4398956877            1.1269389480            0.0000000000
 C         -1.4849062416            2.8766356865            0.0000000000
 C          1.0001131519            2.0581289371            0.0000000000
 C          1.5535149280           -0.5157722335            0.0000000000
 C          4.2725724050           -1.3956189846            0.0000000000
 H          4.5097366300           -3.4712152449            0.0000000000
 H          0.0008416176           -4.2615546375            0.0000000000
 H         -4.4295466146           -2.8024555322            0.0000000000
 H         -5.3843538679            1.7660744833            0.0000000000
 H         -1.9045991242            4.8790435736            0.0000000000
 H          2.5394745168            3.4091941566            0.0000000000





                             Optimization information
                             ------------------------

 Iteration number               :       0
 End of optimization            :       F 
 Energy at this geometry is     :    -339.117876
 Norm of gradient               :       0.035516
 Norm of step                   :       0.241076
 Updated trust radius           :       0.500000
 Total Hessian index            :       0




 **************************************************************************************
 ****************** Output of molecule and basis set info suppressed ******************
 **************************************************************************************



                     .---------------------------------------.
                     | Starting in Integral Section (HERMIT) |
                     `---------------------------------------'



    *************************************************************************
    ****************** Output from HERMIT input processing ******************
    *************************************************************************


 Threshold for neglecting two-electron integrals:  1.00D-12
 Number of two-electron integrals written:      318507 ( 54.5% )
 Megabytes written:                              3.648

 >>>  Time used in TWOINT     is   0.63 seconds
 >>>> Total CPU  time used in HERMIT:   0.66 seconds
 >>>> Total wall time used in HERMIT:   0.67 seconds


                        .----------------------------------.
                        | End of Integral Section (HERMIT) |
                        `----------------------------------'



                   .--------------------------------------------.
                   | Starting in Wave Function Section (SIRIUS) |
                   `--------------------------------------------'


 **********************************************************************
 *SIRIUS* a direct, restricted step, second order MCSCF program       *
 **********************************************************************

 (Wave function specification suppressed here, see output above for initial geometry.)


[...]
         0.61489084     0.63217279     0.68530713     0.71596822

  2     -0.49108770    -0.42953259    -0.29344124    -0.28336957     0.21026161
         0.26175879     0.34468862     0.51295717

    E(LUMO) :     0.21026161 au (symmetry 2)
  - E(HOMO) :    -0.28336957 au (symmetry 2)
  ------------------------------------------
    gap     :     0.49363118 au

 >>> Writing SIRIFC interface file <<<

 >>>> CPU and wall time for SCF :       0.070       0.086


                       .-----------------------------------.
                       | >>> Final results from SIRIUS <<< |
                       `-----------------------------------'


@    Spin multiplicity:           1
@    Spatial symmetry:            1
@    Total charge of molecule:    0

@    Final HF energy:            -339.120841914182                 
@    Nuclear repulsion:           320.968965389380
@    Electronic energy:          -660.089807303562

@    Final gradient norm:           0.000003294846

 
     Date and time (Linux)  : Mon Oct 21 14:50:05 2013
     Host name              : c10-6.local                             



 >>>> Total CPU  time used in SIRIUS :      0.09 seconds
 >>>> Total wall time used in SIRIUS :      0.12 seconds

 
     Date and time (Linux)  : Mon Oct 21 14:50:05 2013
     Host name              : c10-6.local                             


                     .---------------------------------------.
                     | End of Wave Function Section (SIRIUS) |
                     `---------------------------------------'

 Trust radius squarely increased due to very good ratio.
 Updated trust radius   0.50000

     Order of analytical energy-derivatives available:   2
     This will be the default.

 Center of mass dipole origin  :    0.713494    0.050651    0.000000

 Center of mass gauge origin   :    0.713494    0.050651    0.000000


                 .------------------------------------------------.
                 | Starting in Static Property Section (ABACUS) - |
                 `------------------------------------------------'


 
     Date and time (Linux)  : Mon Oct 21 14:50:05 2013
     Host name              : c10-6.local                             


   ***************************************************************************
   ************************ FINAL RESULTS from ABACUS ************************
   ***************************************************************************


 
     Date and time (Linux)  : Mon Oct 21 14:50:07 2013
     Host name              : c10-6.local                             


 CPU time statistics for ABACUS
 ------------------------------

 TWOTEX     00:00:01      96 %

 TOTAL      00:00:01     100 %


 >>>> Total CPU  time used in ABACUS:   1.48 seconds
 >>>> Total wall time used in ABACUS:   1.49 seconds


                   .-------------------------------------------.
                   | End of Static Property Section (ABACUS) - |
                   `-------------------------------------------'


 Predicted energy change       -0.000000055725538


           :::::::::::::::::::::::::::::::::::::::::::::::::::::::::::
           ::::::::::::::: Optimization Control Center :::::::::::::::
           :::::::::::::::::::::::::::::::::::::::::::::::::::::::::::



                               Final geometry (au)
                               -------------------

 O          6.0902251395            0.0191752996            0.0000000000
 C         -0.4142635011           -2.2555992892            0.0000000000
 C         -2.9023987120           -1.4404190760            0.0000000000
 C         -3.4387644964            1.1259167010            0.0000000000
 C         -1.4860706527            2.8783249553            0.0000000000
 C          0.9997369765            2.0622861643            0.0000000000
 C          1.5514272875           -0.5105969087            0.0000000000
 C          4.2698191472           -1.3974297296            0.0000000000
 H          4.4958274429           -3.4708097120            0.0000000000
 H          0.0100450301           -4.2584267828            0.0000000000
 H         -4.4262194814           -2.8051532039            0.0000000000
 H         -5.3836372180            1.7630956860            0.0000000000
 H         -1.9074098899            4.8801893062            0.0000000000
 H          2.5416829278            3.4094465895            0.0000000000





                             Optimization information
                             ------------------------

 Iteration number               :       2
 End of optimization            :       T 
 Energy at this geometry is     :    -339.120842
 Energy change from last geom.  :      -0.000012
 Norm of gradient               :       0.000370
 Norm of step                   :       0.000370
 Updated trust radius           :       0.500000
 Total Hessian index            :       0



 Center of mass dipole origin  :    0.713494    0.050651    0.000000

 Center of mass gauge origin   :    0.713494    0.050651    0.000000


                 .------------------------------------------------.
                 | Starting in Static Property Section (ABACUS) - |
                 `------------------------------------------------'


 
     Date and time (Linux)  : Mon Oct 21 14:50:07 2013
     Host name              : c10-6.local                             


   ***************************************************************************
   ************************ FINAL RESULTS from ABACUS ************************
   ***************************************************************************


 
     Date and time (Linux)  : Mon Oct 21 14:50:07 2013
     Host name              : c10-6.local                             


                             Molecular geometry (au)
                             -----------------------

 O          6.0902251395            0.0191752996            0.0000000000
 C         -0.4142635011           -2.2555992892            0.0000000000
 C         -2.9023987120           -1.4404190760            0.0000000000
 C         -3.4387644964            1.1259167010            0.0000000000
 C         -1.4860706527            2.8783249553            0.0000000000
 C          0.9997369765            2.0622861643            0.0000000000
 C          1.5514272875           -0.5105969087            0.0000000000
 C          4.2698191472           -1.3974297296            0.0000000000
 H          4.4958274429           -3.4708097120            0.0000000000
 H          0.0100450301           -4.2584267828            0.0000000000
 H         -4.4262194814           -2.8051532039            0.0000000000
 H         -5.3836372180            1.7630956860            0.0000000000
 H         -1.9074098899            4.8801893062            0.0000000000
 H          2.5416829278            3.4094465895            0.0000000000





                        Molecular wave function and energy
                        ----------------------------------

     Spin multiplicity  1     State number       1     Total charge       0

     Total energy       -339.1208419142 au (Hartrees)
                         -9227.94752293 eV
                           -890361.6332 kJ/mol


                             Relativistic corrections
                             ------------------------

     Darwin correction:                          0.4014811807 au
     Mass-velocity correction:                  -0.5102607533 au

     Total relativistic correction:             -0.1087795726 au (0.0321%)
     Non-relativistic + relativistic energy:  -339.2296214868 au




                                  Dipole moment
                                  -------------

                 au               Debye          C m (/(10**-30)
              0.753316           1.914737           6.386876


                             Dipole moment components
                             ------------------------

                 au               Debye          C m (/(10**-30)

      x     -0.70263896        -1.78592999        -5.95722120
      y     -0.27163005        -0.69041467        -2.30297546


   Units:   1 a.u. =   2.54175 Debye 
            1 a.u. =   8.47835 (10**-30) C m (SI)




   Interatomic separations (in Angstrom):
   --------------------------------------

            O           C           C           C           C           C     
            ------      ------      ------      ------      ------      ------
 O     :    0.000000
 C     :    3.646448    0.000000
 C     :    4.820967    1.385529    0.000000
 C     :    5.076421    2.400754    1.387390    0.000000
 C     :    4.285192    2.775329    2.405140    1.388417    0.000000
 C     :    2.902641    2.404325    2.774807    2.400452    1.384500    0.000000
 C     :    2.418134    1.390938    2.407677    2.779072    2.408261    1.392459
 C     :    1.220628    2.519966    3.795442    4.292196    3.794328    2.519188
 H     :    2.030421    2.676702    4.059732    4.852519    4.616131    3.463496
 H     :    3.933979    1.083374    2.144539    3.383650    3.858699    3.385531
 H     :    5.762262    2.142861    1.082491    2.144858    3.386172    3.857298
 H     :    6.141438    3.381959    2.144249    1.083008    2.145274    3.381644
 H     :    4.952590    3.857878    3.385911    2.145591    1.082551    2.142487
 H     :    2.597074    3.381370    3.858251    3.387572    2.149846    1.083514

            C           C           H           H           H           H     
            ------      ------      ------      ------      ------      ------
 C     :    0.000000
 C     :    1.513125    0.000000
 H     :    2.209424    1.103685    0.000000
 H     :    2.144447    2.715405    2.410086    0.000000
 H     :    3.388274    4.661651    4.734466    2.470325    0.000000
 H     :    3.862080    5.375204    5.916324    4.277852    2.469934    0.000000
 H     :    3.389384    4.660566    5.568710    4.941250    4.279761    2.470778
 H     :    2.139562    2.703081    3.784879    4.273101    4.940739    4.283433

            H           H     
            ------      ------
 H     :    0.000000
 H     :    2.479663    0.000000


  Max    interatomic separation is    6.1414 Angstrom (   11.6056 Bohr)
  between atoms   12 and    1, "H     " and "O     ".

  Min HX interatomic separation is    1.0825 Angstrom (    2.0456 Bohr)

  Min YX interatomic separation is    1.2206 Angstrom (    2.3067 Bohr)


  Bond distances (Angstrom):
  --------------------------

                  atom 1     atom 2       distance
                  ------     ------       --------
  bond distance:  C          C            1.385529
  bond distance:  C          C            1.387390
  bond distance:  C          C            1.388417
  bond distance:  C          C            1.384500
  bond distance:  C          C            1.390938
  bond distance:  C          C            1.392459
  bond distance:  C          O            1.220628
  bond distance:  C          C            1.513125
  bond distance:  H          C            1.103685
  bond distance:  H          C            1.083374
  bond distance:  H          C            1.082491
  bond distance:  H          C            1.083008
  bond distance:  H          C            1.082551
  bond distance:  H          C            1.083514


  Bond angles (degrees):
  ----------------------

                  atom 1     atom 2     atom 3         angle
                  ------     ------     ------         -----
  bond angle:     C          C          C            120.263
  bond angle:     C          C          H            120.102
  bond angle:     C          C          H            119.635
  bond angle:     C          C          C            119.945
  bond angle:     C          C          H            120.012
  bond angle:     C          C          H            120.043
  bond angle:     C          C          C            120.101
  bond angle:     C          C          H            119.945
  bond angle:     C          C          H            119.954
  bond angle:     C          C          C            119.920
  bond angle:     C          C          H            120.020
  bond angle:     C          C          H            120.060
  bond angle:     C          C          C            120.276
  bond angle:     C          C          H            120.683
  bond angle:     C          C          H            119.041
  bond angle:     C          C          C            119.494
  bond angle:     C          C          C            120.335
  bond angle:     C          C          C            120.170
  bond angle:     O          C          C            124.043
  bond angle:     O          C          H            121.668
  bond angle:     C          C          H            114.289




 CPU time statistics for ABACUS
 ------------------------------




 >>>> Total CPU  time used in ABACUS:   0.03 seconds
 >>>> Total wall time used in ABACUS:   0.03 seconds


                   .-------------------------------------------.
                   | End of Static Property Section (ABACUS) - |
                   `-------------------------------------------'



          <<<<<<<<<<<<<<<<<<<<<<<<<<<<<<<<<<<<<<<<<<<<<<<<<<<<<<<<<<<<<<
          <<<<<<<<<<<<<<<<<<<<  End of Optimization <<<<<<<<<<<<<<<<<<<<
          <<<<<<<<<<<<<<<<<<<<<<<<<<<<<<<<<<<<<<<<<<<<<<<<<<<<<<<<<<<<<<



                                  Final geometry
                                  --------------

 O          6.0902251395            0.0191752996            0.0000000000
 C         -0.4142635011           -2.2555992892            0.0000000000
 C         -2.9023987120           -1.4404190760            0.0000000000
 C         -3.4387644964            1.1259167010            0.0000000000
 C         -1.4860706527            2.8783249553            0.0000000000
 C          0.9997369765            2.0622861643            0.0000000000
 C          1.5514272875           -0.5105969087            0.0000000000
 C          4.2698191472           -1.3974297296            0.0000000000
 H          4.4958274429           -3.4708097120            0.0000000000
 H          0.0100450301           -4.2584267828            0.0000000000
 H         -4.4262194814           -2.8051532039            0.0000000000
 H         -5.3836372180            1.7630956860            0.0000000000
 H         -1.9074098899            4.8801893062            0.0000000000
 H          2.5416829278            3.4094465895            0.0000000000



@ Iter      Energy        Change       GradNorm  Index   StepLen    TrustRad #Rej
@ -------------------------------------------------------------------------------
@   0     -339.117876     0.000000     0.035516    0    0.241076*   0.500000   0 
@   1     -339.120830    -0.002954     0.003155    0    0.021781*   0.500000   0 
@   2     -339.120842    -0.000012     0.000370    0    0.000370*   0.500000   0 

@  *) Newton step taken.


   Interatomic separations (in Angstrom):
   --------------------------------------

            O           C           C           C           C           C     
            ------      ------      ------      ------      ------      ------
 O     :    0.000000
 C     :    3.646448    0.000000
 C     :    4.820967    1.385529    0.000000
 C     :    5.076421    2.400754    1.387390    0.000000
 C     :    4.285192    2.775329    2.405140    1.388417    0.000000
 C     :    2.902641    2.404325    2.774807    2.400452    1.384500    0.000000
 C     :    2.418134    1.390938    2.407677    2.779072    2.408261    1.392459
 C     :    1.220628    2.519966    3.795442    4.292196    3.794328    2.519188
 H     :    2.030421    2.676702    4.059732    4.852519    4.616131    3.463496
 H     :    3.933979    1.083374    2.144539    3.383650    3.858699    3.385531
 H     :    5.762262    2.142861    1.082491    2.144858    3.386172    3.857298
 H     :    6.141438    3.381959    2.144249    1.083008    2.145274    3.381644
 H     :    4.952590    3.857878    3.385911    2.145591    1.082551    2.142487
 H     :    2.597074    3.381370    3.858251    3.387572    2.149846    1.083514

            C           C           H           H           H           H     
            ------      ------      ------      ------      ------      ------
 C     :    0.000000
 C     :    1.513125    0.000000
 H     :    2.209424    1.103685    0.000000
 H     :    2.144447    2.715405    2.410086    0.000000
 H     :    3.388274    4.661651    4.734466    2.470325    0.000000
 H     :    3.862080    5.375204    5.916324    4.277852    2.469934    0.000000
 H     :    3.389384    4.660566    5.568710    4.941250    4.279761    2.470778
 H     :    2.139562    2.703081    3.784879    4.273101    4.940739    4.283433

            H           H     
            ------      ------
 H     :    0.000000
 H     :    2.479663    0.000000


  Max    interatomic separation is    6.1414 Angstrom (   11.6056 Bohr)
  between atoms   12 and    1, "H     " and "O     ".

  Min HX interatomic separation is    1.0825 Angstrom (    2.0456 Bohr)

  Min YX interatomic separation is    1.2206 Angstrom (    2.3067 Bohr)


  Bond distances (Angstrom):
  --------------------------

                  atom 1     atom 2       distance
                  ------     ------       --------
  bond distance:  C          C            1.385529
  bond distance:  C          C            1.387390
  bond distance:  C          C            1.388417
  bond distance:  C          C            1.384500
  bond distance:  C          C            1.390938
  bond distance:  C          C            1.392459
  bond distance:  C          O            1.220628
  bond distance:  C          C            1.513125
  bond distance:  H          C            1.103685
  bond distance:  H          C            1.083374
  bond distance:  H          C            1.082491
  bond distance:  H          C            1.083008
  bond distance:  H          C            1.082551
  bond distance:  H          C            1.083514


  Bond angles (degrees):
  ----------------------

                  atom 1     atom 2     atom 3         angle
                  ------     ------     ------         -----
  bond angle:     C          C          C            120.263
  bond angle:     C          C          H            120.102
  bond angle:     C          C          H            119.635
  bond angle:     C          C          C            119.945
  bond angle:     C          C          H            120.012
  bond angle:     C          C          H            120.043
  bond angle:     C          C          C            120.101
  bond angle:     C          C          H            119.945
  bond angle:     C          C          H            119.954
  bond angle:     C          C          C            119.920
  bond angle:     C          C          H            120.020
  bond angle:     C          C          H            120.060
  bond angle:     C          C          C            120.276
  bond angle:     C          C          H            120.683
  bond angle:     C          C          H            119.041
  bond angle:     C          C          C            119.494
  bond angle:     C          C          C            120.335
  bond angle:     C          C          C            120.170
  bond angle:     O          C          C            124.043
  bond angle:     O          C          H            121.668
  bond angle:     C          C          H            114.289



@ Geometry converged in  3 iterations!

@ Energy at final geometry is       :    -339.120842 a.u.
@ Energy change during optimization :      -0.002965 a.u.
@                                             -7.786 kJ/mol
 
 >>>> Total CPU  time used in DALTON:  16.12 seconds
 >>>> Total wall time used in DALTON:  16.55 seconds

 
     Date and time (Linux)  : Mon Oct 21 14:50:07 2013
     Host name              : c10-6.local                             
