

     ************************************************************************
     *************** Dalton - An Electronic Structure Program ***************
     ************************************************************************

    This is output from DALTON (Release Dalton2013 patch 0)
   ----------------------------------------------------------------------------
    NOTE:
     
    Dalton is an experimental code for the evaluation of molecular
    properties using (MC)SCF, DFT, CI, and CC wave functions.
    The authors accept no responsibility for the performance of
    the code or for the correctness of the results.
     
    The code (in whole or part) is provided under a licence and
    is not to be reproduced for further distribution without
    the written permission of the authors or their representatives.
     
    See the home page "http://daltonprogram.org" for further information.
     
    If results obtained with this code are published,
    the appropriate citations would be both of:
     
       K. Aidas, C. Angeli, K. L. Bak, V. Bakken, R. Bast,
       L. Boman, O. Christiansen, R. Cimiraglia, S. Coriani,
       P. Dahle, E. K. Dalskov, U. Ekstroem, T. Enevoldsen,
       J. J. Eriksen, P. Ettenhuber, B. Fernandez, L. Ferrighi,
       H. Fliegl, L. Frediani, K. Hald, A. Halkier, C. Haettig,
       H. Heiberg, T. Helgaker, A. C. Hennum, H. Hettema,
       E. Hjertenaes, S. Hoest, I.-M. Hoeyvik, M. F. Iozzi,
       B. Jansik, H. J. Aa. Jensen, D. Jonsson, P. Joergensen,
       J. Kauczor, S. Kirpekar, T. Kjaergaard, W. Klopper,
       S. Knecht, R. Kobayashi, H. Koch, J. Kongsted, A. Krapp,
       K. Kristensen, A. Ligabue, O. B. Lutnaes, J. I. Melo,
       K. V. Mikkelsen, R. H. Myhre, C. Neiss, C. B. Nielsen,
       P. Norman, J. Olsen, J. M. H. Olsen, A. Osted,
       M. J. Packer, F. Pawlowski, T. B. Pedersen, P. F. Provasi,
       S. Reine, Z. Rinkevicius, T. A. Ruden, K. Ruud, V. Rybkin,
       P. Salek, C. C. M. Samson, A. Sanchez de Meras, T. Saue,
       S. P. A. Sauer, B. Schimmelpfennig, K. Sneskov,
       A. H. Steindal, K. O. Sylvester-Hvid, P. R. Taylor,
       A. M. Teale, E. I. Tellgren, D. P. Tew, A. J. Thorvaldsen,
       L. Thoegersen, O. Vahtras, M. A. Watson, D. J. D. Wilson,
       M. Ziolkowski and H. Agren.
       The Dalton quantum chemistry program system.
       WIREs Comput. Mol. Sci. 2013. doi: 10.1002/wcms.1172
    
    and
    
       Dalton, a Molecular Electronic Structure Program,
       Release DALTON2013.0 (2013), see http://daltonprogram.org
   ----------------------------------------------------------------------------

    Authors in alphabetical order (major contribution(s) in parenthesis):

  Kestutis Aidas,           Vilnius University,           Lithuania   (QM/MM)
  Celestino Angeli,         University of Ferrara,        Italy       (NEVPT2)
  Keld L. Bak,              UNI-C,                        Denmark     (AOSOPPA, non-adiabatic coupling, magnetic properties)
  Vebjoern Bakken,          University of Oslo,           Norway      (DALTON; geometry optimizer, symmetry detection)
  Radovan Bast,             KTH Stockholm                 Sweden      (DALTON installation and execution frameworks)
  Linus Boman,              NTNU,                         Norway      (Cholesky decomposition and subsystems)
  Ove Christiansen,         Aarhus University,            Denmark     (CC module)
  Renzo Cimiraglia,         University of Ferrara,        Italy       (NEVPT2)
  Sonia Coriani,            University of Trieste,        Italy       (CC module, MCD in RESPONS)
  Paal Dahle,               University of Oslo,           Norway      (Parallelization)
  Erik K. Dalskov,          UNI-C,                        Denmark     (SOPPA)
  Thomas Enevoldsen,        Univ. of Southern Denmark,    Denmark     (SOPPA)
  Janus J. Eriksen,         Aarhus University,            Denmark     (PE-MP2/SOPPA, TDA)
  Berta Fernandez,          U. of Santiago de Compostela, Spain       (doublet spin, ESR in RESPONS)
  Lara Ferrighi,            Aarhus University,            Denmark     (PCM Cubic response)
  Heike Fliegl,             University of Oslo,           Norway      (CCSD(R12))
  Luca Frediani,            UiT The Arctic U. of Norway,  Norway      (PCM)
  Bin Gao,                  UiT The Arctic U. of Norway,  Norway      (Gen1Int library)
  Christof Haettig,         Ruhr-University Bochum,       Germany     (CC module)
  Kasper Hald,              Aarhus University,            Denmark     (CC module)
  Asger Halkier,            Aarhus University,            Denmark     (CC module)
  Hanne Heiberg,            University of Oslo,           Norway      (geometry analysis, selected one-electron integrals)
  Trygve Helgaker,          University of Oslo,           Norway      (DALTON; ABACUS, ERI, DFT modules, London, and much more)
  Alf Christian Hennum,     University of Oslo,           Norway      (Parity violation)
  Hinne Hettema,            University of Auckland,       New Zealand (quadratic response in RESPONS; SIRIUS supersymmetry)
  Eirik Hjertenaes,         NTNU,                         Norway      (Cholesky decomposition)
  Maria Francesca Iozzi,    University of Oslo,           Norway      (RPA)
  Brano Jansik              Technical Univ. of Ostrava    Czech Rep.  (DFT cubic response)
  Hans Joergen Aa. Jensen,  Univ. of Southern Denmark,    Denmark     (DALTON; SIRIUS, RESPONS, ABACUS modules, London, and much more)
  Dan Jonsson,              UiT The Arctic U. of Norway,  Norway      (cubic response in RESPONS module)
  Poul Joergensen,          Aarhus University,            Denmark     (RESPONS, ABACUS, and CC modules)
  Joanna Kauczor,           Linkoeping University,        Sweden      (Complex polarization propagator (CPP) module)
  Sheela Kirpekar,          Univ. of Southern Denmark,    Denmark     (Mass-velocity & Darwin integrals)
  Wim Klopper,              KIT Karlsruhe,                Germany     (R12 code in CC, SIRIUS, and ABACUS modules)
  Stefan Knecht,            ETH Zurich,                   Switzerland (Parallel CI and MCSCF)
  Rika Kobayashi,           Australian National Univ.,    Australia   (DIIS in CC, London in MCSCF)
  Henrik Koch,              NTNU,                         Norway      (CC module, Cholesky decomposition)
  Jacob Kongsted,           Univ. of Southern Denmark,    Denmark     (Polarizable embedding, QM/MM)
  Andrea Ligabue,           University of Modena,         Italy       (CTOCD, AOSOPPA)
  Ola B. Lutnaes,           University of Oslo,           Norway      (DFT Hessian)
  Juan I. Melo,             University of Buenos Aires,   Argentina   (LRESC, Relativistic Effects on NMR Shieldings)
  Kurt V. Mikkelsen,        University of Copenhagen,     Denmark     (MC-SCRF and QM/MM)
  Rolf H. Myhre,            NTNU,                         Norway      (Cholesky, subsystems and ECC2)
  Christian Neiss,          Univ. Erlangen-Nuernberg,     Germany     (CCSD(R12))
  Christian B. Nielsen,     University of Copenhagen,     Denmark     (QM/MM)
  Patrick Norman,           Linkoeping University,        Sweden      (Cubic response and complex response in RESPONS)
  Jeppe Olsen,              Aarhus University,            Denmark     (SIRIUS CI/density modules)
  Jogvan Magnus H. Olsen,   Univ. of Southern Denmark,    Denmark     (Polarizable embedding, PE library, QM/MM)
  Anders Osted,             Copenhagen University,        Denmark     (QM/MM)
  Martin J. Packer,         University of Sheffield,      UK          (SOPPA)
  Filip Pawlowski,          Kazimierz Wielki University   Poland      (CC3)
  Thomas B. Pedersen,       University of Oslo,           Norway      (Cholesky decomposition)
  Patricio F. Provasi,      University of Northeastern,   Argentina   (Analysis of coupling constants in localized orbitals)
  Zilvinas Rinkevicius,     KTH Stockholm,                Sweden      (open-shell DFT, ESR)
  Elias Rudberg,            KTH Stockholm,                Sweden      (DFT grid and basis info)
  Torgeir A. Ruden,         University of Oslo,           Norway      (Numerical derivatives in ABACUS)
  Kenneth Ruud,             UiT The Arctic U. of Norway,  Norway      (DALTON; ABACUS magnetic properties and  much more)
  Pawel Salek,              KTH Stockholm,                Sweden      (DALTON; DFT code)
  Claire C. M. Samson       University of Karlsruhe       Germany     (Boys localization, r12 integrals in ERI)
  Alfredo Sanchez de Meras, University of Valencia,       Spain       (CC module, Cholesky decomposition)
  Trond Saue,               Paul Sabatier University,     France      (direct Fock matrix construction)
  Stephan P. A. Sauer,      University of Copenhagen,     Denmark     (SOPPA(CCSD), SOPPA prop., AOSOPPA, vibrational g-factors)
  Bernd Schimmelpfennig,    Forschungszentrum Karlsruhe,  Germany     (AMFI module)
  Kristian Sneskov,         Aarhus University,            Denmark     (QM/MM, PE-CC)
  Arnfinn H. Steindal,      UiT The Arctic U. of Norway,  Norway      (parallel QM/MM)
  K. O. Sylvester-Hvid,     University of Copenhagen,     Denmark     (MC-SCRF)
  Peter R. Taylor,          VLSCI/Univ. of Melbourne,     Australia   (Symmetry handling ABACUS, integral transformation)
  Andrew M. Teale,          University of Nottingham,     England     (DFT-AC, DFT-D)
  David P. Tew,             University of Bristol,        England     (CCSD(R12))
  Olav Vahtras,             KTH Stockholm,                Sweden      (triplet response, spin-orbit, ESR, TDDFT, open-shell DFT)
  David J. Wilson,          La Trobe University,          Australia   (DFT Hessian and DFT magnetizabilities)
  Hans Agren,               KTH Stockholm,                Sweden      (SIRIUS module, RESPONS, MC-SCRF solvation model)
 --------------------------------------------------------------------------------

     Date and time (Linux)  : Sun Sep  8 20:38:48 2013
     Host name              : lpqlx131.ups-tlse.fr                    

 * Work memory size             :    64000000 =  488.28 megabytes.

 * Directories for basis set searches:
   1) /home/bast/DALTON-2013.0-Source/build/test_geoopt_exci2
   2) /home/bast/DALTON-2013.0-Source/build/basis


Compilation information
-----------------------

 Who compiled             | bast
 Host                     | lpqlx131.ups-tlse.fr
 System                   | Linux-3.8.5-201.fc18.x86_64
 CMake generator          | Unix Makefiles
 Processor                | x86_64
 64-bit integers          | OFF
 MPI                      | OFF
 Fortran compiler         | /usr/bin/gfortran
 Fortran compiler version | GNU Fortran (GCC) 4.7.2 20121109 (Red Hat 4.7.2-8)
 C compiler               | /usr/bin/gcc
 C compiler version       | gcc (GCC) 4.7.2 20121109 (Red Hat 4.7.2-8)
 C++ compiler             | /usr/bin/g++
 C++ compiler version     | g++ (GCC) 4.7.2 20121109 (Red Hat 4.7.2-8)
 Static linking           | OFF
 Last Git revision        | f34203295a86316e27f9e7b44f9b6769c4a046c0
 Configuration time       | 2013-09-08 20:31:27.952056


   Content of the .dal input file
 ----------------------------------

**DALTON INPUT                                    
.OPTIMIZE                                         
**WAVE FUNCTION                                   
.HF                                               
.MP2                                              
.MCSCF                                            
*SCF INPUT                                        
.DOUBLY OCCUPIED                                  
 2 0 0 0                                          
*CONFIGURATION INPUT                              
.SYMMETRY                                         
 1                                                
.SPIN MUL                                         
 1                                                
.INACTIVE                                         
 1 0 0 0                                          
.ELECTRONS                                        
 2                                                
.CAS SPACE                                        
 3 1 1 0                                          
*OPTIMIZATION                                     
.SIMULTANEOUS ROOTS                               
 2 2                                              
.STATE                                            
 2                                                
.OPTIMAL ORBITAL TRIAL VECTORS                    
**PROPERTIES                                      
.VIBANA                                           
**END OF DALTON INPUT                             


   Content of the .mol file
 ----------------------------

INTGRL                                                                         
Geometry optimization of excited state, vibrational analysis at                
optimized geometry                                                             
Atomtypes=2 Generators=2 X Y                                                   
Blocks=3 1 1    1 Charge=3.0 Atoms=1                                           
Li    0.0 0.0 0.0                                                              
F  10    5                                                                     
1359.4466  .000844  .00000000 .00000000 .00000000 .00000000                    
204.02647  .006486  .00000000 .00000000 .00000000 .00000000                    
46.549541  .032477  .00000000 .00000000 .00000000 .00000000                    
13.232594  .117420  .00000000 .00000000 .00000000 .00000000                    
4.286148  .294580  .00000000 .00000000 .00000000 .00000000                     
1.495542 .00000000  .449515  .00000000 .00000000 .00000000                     
0.542238 .00000000  .255823  .00000000 .00000000 .00000000                     
0.073968 .00000000 .00000000  1.       .00000000 .00000000                     
0.028095 .00000000 .00000000 .00000000  1.       .00000000                     
0.010671 .00000000 .00000000 .00000000 .00000000  1.                           
F   6    3                                                                     
4.17  .005112  .00000000 .00000000                                             
1.17256  .020907  .00000000 .00000000                                          
0.32927  .091672  .00000000 .00000000                                          
0.09271  .449260  .00000000 .00000000                                          
0.02607 .00000000  1.       .00000000                                          
0.007331 .00000000 .00000000  1.                                               
F   4    2                                                                     
0.32927  .159757  .00000000                                                    
0.09271 1.475484  .00000000                                                    
0.02607 .00000000  .370578                                                     
0.007331 .00000000  .017847                                                    
Charge=1.0 Atoms=1 Blocks=2 1 1                                                
H     0.0 0.0 3.015                                                            
F   6    3                                                                     
33.685014 .006068 0.00000 0.00000                                              
 5.094788 .045316 0.00000 0.00000                                              
 1.158786 .202846 0.00000 0.00000                                              
 0.325840 .503709 0.00000 0.00000                                              
 0.102741 0.00000 1.00000 0.00000                                              
 0.032400 0.00000 0.00000 1.00000                                              
F   4    2                                                                     
1.1588 .188440 .000000                                                         
 0.3258 .882420 .000000                                                        
 0.1027 0.00000 .117800                                                        
 0.0324 0.00000 .004200                                                        


       *******************************************************************
       *********** Output from DALTON general input processing ***********
       *******************************************************************

 --------------------------------------------------------------------------------
   Overall default print level:    0
   Print level for DALTON.STAT:    1

    "Old" integral transformation used (limited to max 255 basis functions)
 --------------------------------------------------------------------------------


 Chosen parameters for *OPTIMI :
 -------------------------------

 Default 1st order method will be used:   BFGS update.
 Optimization will be performed in redundant internal coordinates.
 Model Hessian will be used as initial Hessian.
 The model Hessian parameters of Roland Lindh will be used.


 Trust region method will be used to control step (default).



              >>>>>>>>>>>>>>>>>>>>>>>>>>>>>>>>>>>>>>>>>>>>>>>>>>>>>
              >>>>>>>>>> 1st Order Geometry Optimization >>>>>>>>>>
              >>>>>>>>>>>>>>>>>>>>>>>>>>>>>>>>>>>>>>>>>>>>>>>>>>>>>

 Reading .mol file to determine number of atoms for parallel runs.


   ****************************************************************************
   *************** Output of molecule and basis set information ***************
   ****************************************************************************


    The two title cards from your ".mol" input:
    ------------------------------------------------------------------------
 1: Geometry optimization of excited state, vibrational analysis at         
 2: optimized geometry                                                      
    ------------------------------------------------------------------------

  Atomic type no.    1
  --------------------
  Nuclear charge:   3.00000
  Number of symmetry independent centers:    1
  Number of basis sets to read;    2

  Atomic type no.    2
  --------------------
  Nuclear charge:   1.00000
  Number of symmetry independent centers:    1
  Number of basis sets to read;    2


                         SYMGRP: Point group information
                         -------------------------------

Point group: C2v

   * The point group was generated by:

      Reflection in the yz-plane
      Reflection in the xz-plane

   * Group multiplication table

        |  E   C2z  Oxz  Oyz
   -----+--------------------
     E  |  E   C2z  Oxz  Oyz
    C2z | C2z   E   Oyz  Oxz
    Oxz | Oxz  Oyz   E   C2z
    Oyz | Oyz  Oxz  C2z   E 

   * Character table

        |  E   C2z  Oxz  Oyz
   -----+--------------------
    A1  |   1    1    1    1
    B1  |   1   -1    1   -1
    B2  |   1   -1   -1    1
    A2  |   1    1   -1   -1

   * Direct product table

        | A1   B1   B2   A2 
   -----+--------------------
    A1  | A1   B1   B2   A2 
    B1  | B1   A1   A2   B2 
    B2  | B2   A2   A1   B1 
    A2  | A2   B2   B1   A1 


                                 Isotopic Masses
                                 ---------------

                           Li          7.016005
                           H           1.007825

                       Total mass:     8.023830 amu
                       Natural abundance:  92.486 %

 Center-of-mass coordinates (a.u.):    0.000000    0.000000    0.378696


  Atoms and basis sets
  --------------------

  Number of atom types :    2
  Total number of atoms:    2

  label    atoms   charge   prim   cont     basis
  ----------------------------------------------------------------------
  Li          1    3.0000    48    24      [10s6p4d|5s3p2d]                                   
  H           1    1.0000    18     9      [6s4p|3s2p]                                        
  ----------------------------------------------------------------------
  total:      2    4.0000    66    33
  ----------------------------------------------------------------------
  Spherical harmonic basis used.

  Threshold for neglecting AO integrals:  1.00D-12


  Cartesian Coordinates (a.u.)
  ----------------------------

  Total number of coordinates:    6
  Li      :     1  x   0.0000000000    2  y   0.0000000000    3  z   0.0000000000
  H       :     4  x   0.0000000000    5  y   0.0000000000    6  z   3.0150000000


  Symmetry Coordinates
  --------------------

  Number of coordinates in each symmetry:     2    2    2    0

  Symmetry  A1  ( 1)

    1   Li    z    3
    2   H     z    6

  Symmetry  B1  ( 2)

    3   Li    x    1
    4   H     x    4

  Symmetry  B2  ( 3)

    5   Li    y    2
    6   H     y    5


   Interatomic separations (in Angstrom):
   --------------------------------------

            Li          H     
            ------      ------
 Li    :    0.000000
 H     :    1.595469    0.000000


  Max    interatomic separation is    1.5955 Angstrom (    3.0150 Bohr)
  between atoms    2 and    1, "H     " and "Li    ".

  Min HX interatomic separation is    1.5955 Angstrom (    3.0150 Bohr)


  Bond distances (Angstrom):
  --------------------------

                  atom 1     atom 2       distance
                  ------     ------       --------
  bond distance:  H          Li           1.595469




 Principal moments of inertia (u*A**2) and principal axes
 --------------------------------------------------------

   IA       0.000000          0.000000    0.000000    1.000000
   IB       2.243211          0.000000    1.000000    0.000000
   IC       2.243211          1.000000    0.000000    0.000000


 Rotational constants
 --------------------

 The molecule is linear.

               B =       225292.64 MHz     (    7.514953 cm-1)


@  Nuclear repulsion energy :    0.995024875622 Hartree


  Symmetry Orbitals
  -----------------

  Number of orbitals in each symmetry:          17    7    7    2


  Symmetry  A1 ( 1)

    1     Li       1s         1
    2     Li       1s         2
    3     Li       1s         3
    4     Li       1s         4
    5     Li       1s         5
    6     Li       2pz        8
    7     Li       2pz       11
    8     Li       2pz       14
    9     Li       3d0       17
   10     Li       3d2+      19
   11     Li       3d0       22
   12     Li       3d2+      24
   13     H        1s        25
   14     H        1s        26
   15     H        1s        27
   16     H        2pz       30
   17     H        2pz       33


  Symmetry  B1 ( 2)

   18     Li       2px        6
   19     Li       2px        9
   20     Li       2px       12
   21     Li       3d1+      18
   22     Li       3d1+      23
   23     H        2px       28
   24     H        2px       31


  Symmetry  B2 ( 3)

   25     Li       2py        7
   26     Li       2py       10
   27     Li       2py       13
   28     Li       3d1-      16
   29     Li       3d1-      21
   30     H        2py       29
   31     H        2py       32


  Symmetry  A2 ( 4)

   32     Li       3d2-      15
   33     Li       3d2-      20

  Symmetries of electric field:  B1 (2)  B2 (3)  A1 (1)

  Symmetries of magnetic field:  B2 (3)  B1 (2)  A2 (4)


                     .---------------------------------------.
                     | Starting in Integral Section (HERMIT) |
                     `---------------------------------------'



    *************************************************************************
    ****************** Output from HERMIT input processing ******************
    *************************************************************************



     ************************************************************************
     ************************** Output from HERINT **************************
     ************************************************************************


 Threshold for neglecting two-electron integrals:  1.00D-12
 Number of two-electron integrals written:       34324 ( 21.8% )
 Megabytes written:                              0.398

 >>>> Total CPU  time used in HERMIT:   0.04 seconds
 >>>> Total wall time used in HERMIT:   0.04 seconds


                        .----------------------------------.
                        | End of Integral Section (HERMIT) |
                        `----------------------------------'



                   .--------------------------------------------.
                   | Starting in Wave Function Section (SIRIUS) |
                   `--------------------------------------------'


 *** Output from Huckel module :

     Using EWMO model:          T
     Using EHT  model:          F
     Number of Huckel orbitals each symmetry:    4    1    1    0

 EWMO - Energy Weighted Maximum Overlap - is a Huckel type method,
        which normally is better than Extended Huckel Theory.
 Reference: Linderberg and Ohrn, Propagators in Quantum Chemistry (Wiley, 1973)

 Huckel EWMO eigenvalues for symmetry :  1
           -2.483499      -0.580530      -0.169661      -0.070311

 Huckel EWMO eigenvalues for symmetry :  2
           -0.130000

 Huckel EWMO eigenvalues for symmetry :  3
           -0.130000

 **********************************************************************
 *SIRIUS* a direct, restricted step, second order MCSCF program       *
 **********************************************************************

 
     Date and time (Linux)  : Sun Sep  8 20:38:48 2013
     Host name              : lpqlx131.ups-tlse.fr                    

 Title lines from ".mol" input file:
     Geometry optimization of excited state, vibrational analysis at         
     optimized geometry                                                      

 Print level on unit LUPRI =   2 is   0
 Print level on unit LUW4  =   2 is   5

@    MC-SCF optimization.
@              Type: complete active space calculation (CAS).

@    This is a combination run starting with
@              a restricted, closed shell Hartree-Fock calculation
@              an MP2 calculation


 Initial molecular orbitals are obtained according to
 ".MOSTART EWMO  " input option

     Wave function specification
     ============================
@    For the wave function of type :      >>> MC-SCF <<<
@    Number of closed shell electrons           2
@    Number of electrons in active shells       2
@    Total charge of the molecule               0

@    Spin multiplicity and 2 M_S                1         0
     Total number of symmetries                 4
@    Reference state symmetry                   1

     Orbital specifications
     ======================
     Abelian symmetry species          All |    1    2    3    4
                                       --- |  ---  ---  ---  ---
@    Inactive orbitals                   1 |    1    0    0    0
@    Active orbitals                     5 |    3    1    1    0
     Secondary orbitals                 27 |   13    6    6    2
     Total number of orbitals           33 |   17    7    7    2
     Number of basis functions          33 |   17    7    7    2

      -- Initial occupation of symmetries is determined from user input.                      
      -- Initial occupation of symmetries is :
@    Occupied SCF orbitals               2 |    2    0    0    0

     Optimization information
     ========================
@    Number of configurations                 8
@    Number of orbital rotations             67
     ------------------------------------------
@    Total number of variables               75

     Maximum number of macro iterations      40
     Maximum number of micro iterations     960
     Threshold for MCSCF gradient      1.00D-05
     Number of initial trial vectors          2
     Number of initial CI iterations          3
     Number of simultaneous trial vectors     2

@    This calculation converges to state no.   2 for the specified symmetry and spin species.

     Maximum number of NEO/NR iterations  24


 >>>>> DIIS optimization of Hartree-Fock <<<<<

 C1-DIIS algorithm; max error vectors =   10

 Iter      Total energy        Error norm    Delta(E)  DIIS dim.
 -----------------------------------------------------------------------------
     (Precalculated two-electron integrals are transformed to P-supermatrix elements.
      Threshold for discarding integrals :  1.00D-12 )
@  1    -7.94300748588        5.60815D-01   -7.94D+00    1
      Virial theorem: -V/T =      1.967593
@      MULPOP Li      0.73; H      -0.73; 
 -----------------------------------------------------------------------------
@  2    -7.98504936695        7.36606D-02   -4.20D-02    2
      Virial theorem: -V/T =      1.997490
@      MULPOP Li     -0.07; H       0.07; 
 -----------------------------------------------------------------------------
@  3    -7.98592682294        1.00286D-02   -8.77D-04    3
      Virial theorem: -V/T =      1.999363
@      MULPOP Li     -0.17; H       0.17; 
 -----------------------------------------------------------------------------
@  4    -7.98595549556        1.74021D-03   -2.87D-05    4
      Virial theorem: -V/T =      1.999226
@      MULPOP Li     -0.18; H       0.18; 
 -----------------------------------------------------------------------------
@  5    -7.98595670222        3.45389D-04   -1.21D-06    5
      Virial theorem: -V/T =      1.999196
@      MULPOP Li     -0.18; H       0.18; 
 -----------------------------------------------------------------------------
@  6    -7.98595677722        7.79245D-05   -7.50D-08    6
      Virial theorem: -V/T =      1.999204
@      MULPOP Li     -0.18; H       0.18; 
 -----------------------------------------------------------------------------
@  7    -7.98595678106        1.15942D-05   -3.83D-09    7
      Virial theorem: -V/T =      1.999206
@      MULPOP Li     -0.18; H       0.18; 
 -----------------------------------------------------------------------------
@  8    -7.98595678112        8.53603D-07   -6.58D-11    8

@ *** DIIS converged in   8 iterations !
@     Converged SCF energy, gradient:     -7.985956781124    8.54D-07
    - total time used in SIRFCK :              0.00 seconds

 >>> Writing SIRIFC interface file <<<

 >>>> CPU and wall time for SCF :       0.008       0.008


 >>>>> Output from SIRIUS MP2 module <<<<<

 Reference: H.J.Aa.Jensen, P.Jorgensen, H.Agren, and J.Olsen,
            J. Chem. Phys. 88, 3834 (1988); 89, 5354 (1988)

 Checking that the closed shell orbitals are canonical Hartree-Fock orbitals

    Number of electrons  :    4
    Closed shell orbitals:    2    0    0    0

 Generating Fock matrix

 Hartree-Fock electronic energy:          -8.980981656746
 Hartree-Fock total      energy:          -7.985956781124

 Hartree-Fock orbital energies, symmetry 1, number of occupied SCF orbitals is    2

        -2.44425963    -0.30089667    -0.00699656     0.02267930     0.03613761
         0.07001960     0.08096523     0.10438880     0.17028626     0.21039324
         0.29232637     0.34317998     0.45905479     0.79954447     0.88520300
         1.52978939     5.83267557

 Hartree-Fock orbital energies, symmetry 2, number of occupied SCF orbitals is    0

         0.01394628     0.05463571     0.08822830     0.21098339     0.33491592
         0.45391662     1.24671955

 Hartree-Fock orbital energies, symmetry 3, number of occupied SCF orbitals is    0

         0.01394628     0.05463571     0.08822830     0.21098339     0.33491592
         0.45391662     1.24671955

 Hartree-Fock orbital energies, symmetry 4, number of occupied SCF orbitals is    0

         0.08096523     0.34317998

    E(LUMO) :    -0.00699656   (in symmetry 1)
  - E(HOMO) :    -0.30089667   (in symmetry 1)
  --------------------------
    gap     :     0.29390011

 Integral transformation: Total CPU and WALL times (sec)       0.007       0.006

 MP2 move   0.031006 electrons to unoccupied HF orbitals


@   Hartree-Fock total energy   :            -7.9859567811
@   + MP2 contribution          :            -0.0375972988
@   = MP2 second order energy   :            -8.0235540799

 Natural orbital occupation numbers, symmetry 1
 Sum =     3.98855067; RHF =     4.00000000; Difference =    -0.01144933

         1.99803433     1.97100449     0.01239493     0.00460291     0.00153322
         0.00038320     0.00029801     0.00020393     0.00005223     0.00003584
         0.00000508     0.00000207     0.00000024     0.00000020     0.00000008
         0.00000000    -0.00000007

 Natural orbital occupation numbers, symmetry 2
 Sum =     0.00569843; RHF =     0.00000000; Difference =     0.00569843

         0.00511515     0.00042235     0.00014949     0.00000621     0.00000474
         0.00000049     0.00000000

 Natural orbital occupation numbers, symmetry 3
 Sum =     0.00569843; RHF =     0.00000000; Difference =     0.00569843

         0.00511515     0.00042235     0.00014949     0.00000621     0.00000474
         0.00000049     0.00000000

 Natural orbital occupation numbers, symmetry 4
 Sum =     0.00005246; RHF =     0.00000000; Difference =     0.00005246

         0.00005223     0.00000024

 Time used for MP2 natural orbitals :       0.008 CPU seconds,       0.009 wall seconds.

 >>>> CPU and wall time for MP2 :       0.008       0.009


        SIRIUS MCSCF optimization (SIROPT)
 ================================================



 <<<<< Output from SIRIUS CI module (CICTL) >>>>>




 Integral transformation: Total CPU and WALL times (sec)       0.002       0.003

 (CIST1)  8 lowest diagonal elements:

 Element no. Config.no.    Active energy      Total energy

         1 :          1     -1.0839307202     -7.9859202733
         2 :          6     -0.6394663137     -7.5414558668
         3 :          7     -0.4580444747     -7.3600340278
         4 :          2     -0.1608447584     -7.0628343115
         5 :          4     -0.0493444025     -6.9513339556
         6 :          5     -0.0493444025     -6.9513339556
         7 :          8     -0.0275622949     -6.9295518480
         8 :          3      0.2238063480     -6.6781832051


 Convergence threshold for CI optimization :     0.00000500


 The requested root number is now converged.


 *** CI converged in  3 iterations.



 CI energies and residuals:
    1       -8.018351288549724       3.67D-15
    2       -7.421027485914628       5.67D-15
    3       -7.275477415150622       2.60D-15
    4       -7.064199061461075       8.88D-16
    5       -6.974306811471620       1.92D-15
    6       -6.914335188576853       5.35D-15

 >>> CICHCK: removed CI start vector no.  5



 >>> CICHCK; REMOVE CI VECTORS OF NON-DESIRED SYMMETRY
             OPTION =  2, number of CI trial vectors removed :  1
             ISTATE, orignal and after reduce:   2   2
             LROOTS, orignal and after reduce:   6   5
             NROOTS, orignal and after reduce:   2   2

 >>> CICHCK; THE SYMMETRY TEST MATRIX:

               Column   1     Column   2     Column   3     Column   4     Column   5
       1      -1.05513824    -0.00512614     0.00033051    -0.06936931     0.00000000
       2      -0.00512614    -0.63879716    -0.00060387     0.00643751     0.00000000
       3       0.00033051    -0.00060387    -0.45527474    -0.00861899     0.00000000
       4      -0.06936931     0.00643751    -0.00861899    -0.15628934     0.00000000
       5       0.00000000     0.00000000     0.00000000     0.00000000    -0.04934440
       6      -0.09253554     0.00071124     0.00943997    -0.02939141     0.00000000

               Column   6
       1      -0.09253554
       2       0.00071124
       3       0.00943997
       4      -0.02939141
       6      -0.05108178
    ==== End of matrix output ====

   <<< OUTPUT FROM SIRCNO >>>    Keyword = FD+NO 


 Occupations of CAS natural orbitals:

 Symmetry  1

   0.963609854   1.035286329   0.000921861

 Symmetry  2

   0.000090978

 Symmetry  3

   0.000090978


 <<< MACRO ITERATION  1 >>>
 --------------------------

 Integral transformation: Total CPU and WALL times (sec)       0.007       0.007

 Total MCSCF energy       :            -7.421027485914626  (MACRO    1)

 - Nuclear repulsion      :             0.995024875621890
 - Inactive energy        :            -7.897014428717038
 - Active energy          :            -0.519037932819478

 Norm of total gradient   :             0.688347049557
 -    of CI gradient      :             0.000000000000
 -    of orbital gradient :             0.688347049557
      Virial theorem: -V/T =      1.861756
@      MULPOP Li     -0.07; H       0.07; 

 (SIRNEO) iteration (  1,  2)
 Micro iteration termination criterion met, EVAL(ISTATE+1) = -2.18D-01

   <<< OUTPUT FROM SIRCNO >>>    Keyword = FD+NO 


 Occupations of CAS natural orbitals:

 Symmetry  1

   0.780660791   1.218965019   0.000300119

 Symmetry  2

   0.000037036

 Symmetry  3

   0.000037036


 <<< MACRO ITERATION  2 >>>
 --------------------------

 Integral transformation: Total CPU and WALL times (sec)       0.007       0.007

 Total MCSCF energy       :            -7.620664473109260  (MACRO    2)

 - Nuclear repulsion      :             0.995024875621890
 - Inactive energy        :            -7.897231453372790
 - Active energy          :            -0.718457895358360

 Norm of total gradient   :             0.678260262899
 -    of CI gradient      :             0.172861846884
 -    of orbital gradient :             0.655862612229
      Virial theorem: -V/T =      1.946333
@      MULPOP Li     -2.63; H       2.63; 

 Residual norm when dim(red L) =   7
 NEO root     CSF        orbital          total
    1     0.03721519     0.03925482     0.05409169 converged

 (NEONEX) NEO auxiliary root no.  1 is converged.

 Residual norm when dim(red L) =   8
 NEO root     CSF        orbital          total
    2     0.01891287     0.00229289     0.01905136 converged

 (NEONEX) NEO vector is converged.

   <<< OUTPUT FROM SIRCNO >>>    Keyword = FD+NO 


 Occupations of CAS natural orbitals:

 Symmetry  1

   1.423178732   0.573944927   0.001319045

 Symmetry  2

   0.000778648

 Symmetry  3

   0.000778648


 <<< MACRO ITERATION  3 >>>
 --------------------------

 Integral transformation: Total CPU and WALL times (sec)       0.007       0.007

 Total MCSCF energy       :            -7.815859744005135  (MACRO    3)

 - Nuclear repulsion      :             0.995024875621890
 - Inactive energy        :            -7.899306660496998
 - Active energy          :            -0.911577959130028

 Norm of total gradient   :             0.336988131924
 -    of CI gradient      :             0.039186423636
 -    of orbital gradient :             0.334701994706
      Virial theorem: -V/T =      1.991086
@      MULPOP Li     -1.42; H       1.42; 

 Residual norm when dim(red L) =   5
 NEO root     CSF        orbital          total
    1     0.04653112     0.07760119     0.09048254 converged

 (NEONEX) NEO auxiliary root no.  1 is converged.

 (SIRNEO) iteration (  3,  4)
 Micro iteration termination criterion met, EVAL(ISTATE+1) = -5.79D-03

   <<< OUTPUT FROM SIRCNO >>>    Keyword = FD+NO 


 Occupations of CAS natural orbitals:

 Symmetry  1

   1.588098978   0.401412497   0.002458974

 Symmetry  2

   0.004014776

 Symmetry  3

   0.004014776


 <<< MACRO ITERATION  4 >>>
 --------------------------

 Integral transformation: Total CPU and WALL times (sec)       0.007       0.007

 Total MCSCF energy       :            -7.888186656554764  (MACRO    4)

 - Nuclear repulsion      :             0.995024875621890
 - Inactive energy        :            -7.900048882828356
 - Active energy          :            -0.983162649348299

 Norm of total gradient   :             0.208821745300
 -    of CI gradient      :             0.117387919092
 -    of orbital gradient :             0.172703786181
      Virial theorem: -V/T =      1.987044
@      MULPOP Li     -0.37; H       0.37; 

 Residual norm when dim(red L) =   5
 NEO root     CSF        orbital          total
    1     0.06086129     0.07744897     0.09850097 converged

 (NEONEX) NEO auxiliary root no.  1 is converged.

 (SIRNEO) iteration (  4,  6)
 Micro iteration termination criterion met, EVAL(ISTATE+1) = -4.39D-06

   <<< OUTPUT FROM SIRCNO >>>    Keyword = FD+NO 


 Occupations of CAS natural orbitals:

 Symmetry  1

   1.330568525   0.661663273   0.004732087

 Symmetry  2

   0.001518057

 Symmetry  3

   0.001518057


 <<< MACRO ITERATION  5 >>>
 --------------------------

 Integral transformation: Total CPU and WALL times (sec)       0.007       0.007

 Total MCSCF energy       :            -7.875546988237939  (MACRO    5)

 - Nuclear repulsion      :             0.995024875621890
 - Inactive energy        :            -7.900251789880636
 - Active energy          :            -0.970320073979193

 Norm of total gradient   :             0.316661859495
 -    of CI gradient      :             0.139443469667
 -    of orbital gradient :             0.284306616219
      Virial theorem: -V/T =      1.985912
@      MULPOP Li     -0.27; H       0.27; 

 (SIRSTP) Energy difference;
 actual, predicted and ratio:   0.0126396683  -0.0077874584   -1.623080

 (SIRSTP) step is too large -- backstep

   <<< OUTPUT FROM SIRCNO >>>    Keyword = FD+NO 


 Occupations of CAS natural orbitals:

 Symmetry  1

   1.422790465   0.568374607   0.004371339

 Symmetry  2

   0.002231794

 Symmetry  3

   0.002231794


 Optimization control: Step was too large, we backstep


 <<< MACRO ITERATION  5 BACKSTEP NO.  1 >>>

 Integral transformation: Total CPU and WALL times (sec)       0.008       0.008

 Total MCSCF energy       :            -7.885795821536303  (MACRO    5)

 - Nuclear repulsion      :             0.995024875621890
 - Inactive energy        :            -7.900198316758443
 - Active energy          :            -0.980622380399750

 Norm of total gradient   :             0.155347828663
 -    of CI gradient      :             0.073654601867
 -    of orbital gradient :             0.136776999142
      Virial theorem: -V/T =      1.988350
@      MULPOP Li     -0.32; H       0.32; 

 (SIRSTP) Energy difference;
 actual, predicted and ratio:   0.0023908350  -0.0035076325   -0.681609

 (SIRSTP) step is too large -- backstep

   <<< OUTPUT FROM SIRCNO >>>    Keyword = FD+NO 


 Occupations of CAS natural orbitals:

 Symmetry  1

   1.481504238   0.509042293   0.003891023

 Symmetry  2

   0.002781223

 Symmetry  3

   0.002781223


 Optimization control: Step was too large, we backstep


 <<< MACRO ITERATION  5 BACKSTEP NO.  2 >>>

 Integral transformation: Total CPU and WALL times (sec)       0.007       0.007

 Total MCSCF energy       :            -7.888126739366464  (MACRO    5)

 - Nuclear repulsion      :             0.995024875621890
 - Inactive energy        :            -7.900155013223644
 - Active energy          :            -0.982996601764710

 Norm of total gradient   :             0.134139147349
 -    of CI gradient      :             0.077457023332
 -    of orbital gradient :             0.109515845375
      Virial theorem: -V/T =      1.988458
@      MULPOP Li     -0.35; H       0.35; 

 (SIRSTP) Energy difference;
 actual, predicted and ratio:   0.0000599172  -0.0015825107   -0.037862

 (SIRSTP) step is too large -- backstep

   <<< OUTPUT FROM SIRCNO >>>    Keyword = FD+NO 


 Occupations of CAS natural orbitals:

 Symmetry  1

   1.518787055   0.471390904   0.003472626

 Symmetry  2

   0.003174707

 Symmetry  3

   0.003174707


 Optimization control: Step was too large, we backstep


 <<< MACRO ITERATION  5 BACKSTEP NO.  3 >>>

 Integral transformation: Total CPU and WALL times (sec)       0.007       0.007

 Total MCSCF energy       :            -7.888445708429184  (MACRO    5)

 - Nuclear repulsion      :             0.995024875621890
 - Inactive energy        :            -7.900122660615252
 - Active energy          :            -0.983347923435822

 Norm of total gradient   :             0.155905522719
 -    of CI gradient      :             0.090648754927
 -    of orbital gradient :             0.126843743419
      Virial theorem: -V/T =      1.988117
@      MULPOP Li     -0.36; H       0.36; 

 (SIRSTP) Energy difference;
 actual, predicted and ratio:  -0.0002590519  -0.0007157051    0.361953

 (SIRSTP) step is too large -- backstep

   <<< OUTPUT FROM SIRCNO >>>    Keyword = FD+NO 


 Occupations of CAS natural orbitals:

 Symmetry  1

   1.542666831   0.447281819   0.003157106

 Symmetry  2

   0.003447122

 Symmetry  3

   0.003447122


 Optimization control: Step was too large, we backstep


 <<< MACRO ITERATION  5 BACKSTEP NO.  4 >>>

 Integral transformation: Total CPU and WALL times (sec)       0.007       0.007

 Total MCSCF energy       :            -7.888382922921795  (MACRO    5)

 - Nuclear repulsion      :             0.995024875621890
 - Inactive energy        :            -7.900099501561514
 - Active energy          :            -0.983308296982172

 Norm of total gradient   :             0.174728854909
 -    of CI gradient      :             0.099950011160
 -    of orbital gradient :             0.143318414752
      Virial theorem: -V/T =      1.987788
@      MULPOP Li     -0.36; H       0.36; 

 Residual norm when dim(red L) =  11
 NEO root     CSF        orbital          total
    1     0.00359718     0.02086285     0.02117069 converged

 (NEONEX) NEO auxiliary root no.  1 is converged.

 Residual norm when dim(red L) =  16
 NEO root     CSF        orbital          total
    2     0.00000000     0.01597245     0.01597245 converged

 (NEONEX) NEO vector is converged.

   <<< OUTPUT FROM SIRCNO >>>    Keyword = FD+NO 


 Occupations of CAS natural orbitals:

 Symmetry  1

   1.520973344   0.470275374   0.002638769

 Symmetry  2

   0.003056257

 Symmetry  3

   0.003056257


 <<< MACRO ITERATION  6 >>>
 --------------------------

 Integral transformation: Total CPU and WALL times (sec)       0.007       0.007

 Total MCSCF energy       :            -7.888539155903841  (MACRO    6)

 - Nuclear repulsion      :             0.995024875621890
 - Inactive energy        :            -7.900109725031068
 - Active energy          :            -0.983454306494664

 Norm of total gradient   :             0.148240052928
 -    of CI gradient      :             0.088086907348
 -    of orbital gradient :             0.119230071903
      Virial theorem: -V/T =      1.987364
@      MULPOP Li     -0.38; H       0.38; 

 Residual norm when dim(red L) =   9
 NEO root     CSF        orbital          total
    1     0.01701942     0.01838129     0.02505060 converged

 (NEONEX) NEO auxiliary root no.  1 is converged.

 Residual norm when dim(red L) =  10
 NEO root     CSF        orbital          total
    2     0.01360690     0.00507647     0.01452302 converged

 (NEONEX) NEO vector is converged.

   <<< OUTPUT FROM SIRCNO >>>    Keyword = FD+NO 


 Occupations of CAS natural orbitals:

 Symmetry  1

   1.421651622   0.574227732   0.001452101

 Symmetry  2

   0.001334272

 Symmetry  3

   0.001334272


 <<< MACRO ITERATION  7 >>>
 --------------------------

 Integral transformation: Total CPU and WALL times (sec)       0.007       0.007

 Total MCSCF energy       :            -7.887930456435528  (MACRO    7)

 - Nuclear repulsion      :             0.995024875621890
 - Inactive energy        :            -7.900169958389463
 - Active energy          :            -0.982785373667956

 Norm of total gradient   :             0.068103307115
 -    of CI gradient      :             0.040514119373
 -    of orbital gradient :             0.054741817393
      Virial theorem: -V/T =      1.987179
@      MULPOP Li     -0.35; H       0.35; 

 Residual norm when dim(red L) =  15
 NEO root     CSF        orbital          total
    1     0.00449248     0.01095012     0.01183586 converged

 (NEONEX) NEO auxiliary root no.  1 is converged.

 Residual norm when dim(red L) =  17
 NEO root     CSF        orbital          total
    2     0.00000000     0.00726426     0.00726426 converged

 (NEONEX) NEO vector is converged.

   <<< OUTPUT FROM SIRCNO >>>    Keyword = FD+NO 


 Occupations of CAS natural orbitals:

 Symmetry  1

   1.415853116   0.579824308   0.001746276

 Symmetry  2

   0.001288150

 Symmetry  3

   0.001288150


 <<< MACRO ITERATION  8 >>>
 --------------------------

 Integral transformation: Total CPU and WALL times (sec)       0.007       0.007

 Total MCSCF energy       :            -7.887954814764046  (MACRO    8)

 - Nuclear repulsion      :             0.995024875621890
 - Inactive energy        :            -7.900165869504434
 - Active energy          :            -0.982813820881502

 Norm of total gradient   :             0.064718874145
 -    of CI gradient      :             0.039231169952
 -    of orbital gradient :             0.051472788682
      Virial theorem: -V/T =      1.986925
@      MULPOP Li     -0.36; H       0.36; 

 Residual norm when dim(red L) =  11
 NEO root     CSF        orbital          total
    1     0.00812691     0.08416555     0.08455700 converged

 (NEONEX) NEO auxiliary root no.  1 is converged.

 Residual norm when dim(red L) =  15
 NEO root     CSF        orbital          total
    2     0.00000000     0.00260078     0.00260078 converged

 (NEONEX) NEO vector is converged.

   <<< OUTPUT FROM SIRCNO >>>    Keyword = FD+NO 


 Occupations of CAS natural orbitals:

 Symmetry  1

   1.393455629   0.602408615   0.001746868

 Symmetry  2

   0.001194444

 Symmetry  3

   0.001194444


 <<< MACRO ITERATION  9 >>>
 --------------------------

 Integral transformation: Total CPU and WALL times (sec)       0.007       0.007

 Total MCSCF energy       :            -7.887972247524071  (MACRO    9)

 - Nuclear repulsion      :             0.995024875621890
 - Inactive energy        :            -7.900168892611283
 - Active energy          :            -0.982828230534678

 Norm of total gradient   :             0.050514038611
 -    of CI gradient      :             0.031175608254
 -    of orbital gradient :             0.039746063287
      Virial theorem: -V/T =      1.987470
@      MULPOP Li     -0.36; H       0.36; 

 Residual norm when dim(red L) =  11
 NEO root     CSF        orbital          total
    1     0.01095236     0.07753944     0.07830912 converged

 (NEONEX) NEO auxiliary root no.  1 is converged.

 Residual norm when dim(red L) =  12
 NEO root     CSF        orbital          total
    2     0.00587943     0.00106391     0.00597491 converged

 (NEONEX) NEO vector is converged.

   <<< OUTPUT FROM SIRCNO >>>    Keyword = FD+NO 


 Occupations of CAS natural orbitals:

 Symmetry  1

   1.374520082   0.621513369   0.001724130

 Symmetry  2

   0.001121209

 Symmetry  3

   0.001121209


 <<< MACRO ITERATION 10 >>>
 --------------------------

 Integral transformation: Total CPU and WALL times (sec)       0.007       0.007

 Total MCSCF energy       :            -7.887981097368234  (MACRO   10)

 - Nuclear repulsion      :             0.995024875621890
 - Inactive energy        :            -7.900166050259541
 - Active energy          :            -0.982839922730584

 Norm of total gradient   :             0.041043545524
 -    of CI gradient      :             0.025282679069
 -    of orbital gradient :             0.032332008416
      Virial theorem: -V/T =      1.987507
@      MULPOP Li     -0.37; H       0.37; 

 Residual norm when dim(red L) =  11
 NEO root     CSF        orbital          total
    1     0.00178507     0.06312177     0.06314700 converged

 (NEONEX) NEO auxiliary root no.  1 is converged.

 Residual norm when dim(red L) =  12
 NEO root     CSF        orbital          total
    2     0.00440891     0.00058425     0.00444746 converged

 (NEONEX) NEO vector is converged.

   <<< OUTPUT FROM SIRCNO >>>    Keyword = FD+NO 


 Occupations of CAS natural orbitals:

 Symmetry  1

   1.347371324   0.648943688   0.001665910

 Symmetry  2

   0.001009539

 Symmetry  3

   0.001009539


 <<< MACRO ITERATION 11 >>>
 --------------------------

 Integral transformation: Total CPU and WALL times (sec)       0.007       0.007

 Total MCSCF energy       :            -7.888004234070629  (MACRO   11)

 - Nuclear repulsion      :             0.995024875621890
 - Inactive energy        :            -7.900160476793149
 - Active energy          :            -0.982868632899370

 Norm of total gradient   :             0.027337645806
 -    of CI gradient      :             0.016748618356
 -    of orbital gradient :             0.021606264401
      Virial theorem: -V/T =      1.987664
@      MULPOP Li     -0.39; H       0.39; 

 Residual norm when dim(red L) =   7
 NEO root     CSF        orbital          total
    1     0.06041066     0.05879508     0.08429892 converged

 (NEONEX) NEO auxiliary root no.  1 is converged.

 Residual norm when dim(red L) =  11
 NEO root     CSF        orbital          total
    2     0.00235902     0.00045494     0.00240248 converged

 (NEONEX) NEO vector is converged.

   <<< OUTPUT FROM SIRCNO >>>    Keyword = FD+NO 


 Occupations of CAS natural orbitals:

 Symmetry  1

   1.297202036   0.699786054   0.001563339

 Symmetry  2

   0.000724285

 Symmetry  3

   0.000724285


 <<< MACRO ITERATION 12 >>>
 --------------------------

 Integral transformation: Total CPU and WALL times (sec)       0.007       0.007

 Total MCSCF energy       :            -7.888138793259978  (MACRO   12)

 - Nuclear repulsion      :             0.995024875621890
 - Inactive energy        :            -7.900143526925460
 - Active energy          :            -0.983020141956409

 Norm of total gradient   :             0.004280306289
 -    of CI gradient      :             0.003244821036
 -    of orbital gradient :             0.002791443778
      Virial theorem: -V/T =      1.988339
@      MULPOP Li     -0.43; H       0.43; 

 Residual norm when dim(red L) =   7
 NEO root     CSF        orbital          total
    1     0.07100273     0.02338346     0.07475409 converged

 (NEONEX) NEO auxiliary root no.  1 is converged.

 Residual norm when dim(red L) =  10
 NEO root     CSF        orbital          total
    2     0.00006147     0.00044332     0.00044756 converged

 (NEONEX) NEO vector is converged.

   <<< OUTPUT FROM SIRCNO >>>    Keyword = FD+NO 


 Occupations of CAS natural orbitals:

 Symmetry  1

   1.298052477   0.698668681   0.001611160

 Symmetry  2

   0.000833841

 Symmetry  3

   0.000833841


 <<< MACRO ITERATION 13 >>>
 --------------------------

 Integral transformation: Total CPU and WALL times (sec)       0.008       0.008

 Total MCSCF energy       :            -7.888333729576279  (MACRO   13)

 - Nuclear repulsion      :             0.995024875621890
 - Inactive energy        :            -7.900139927466345
 - Active energy          :            -0.983218677731824

 Norm of total gradient   :             0.001640427658
 -    of CI gradient      :             0.001363125729
 -    of orbital gradient :             0.000912628701
      Virial theorem: -V/T =      1.988450
@      MULPOP Li     -0.42; H       0.42; 

 Residual norm when dim(red L) =   7
 NEO root     CSF        orbital          total
    1     0.07544925     0.02631598     0.07990695 converged

 (NEONEX) NEO auxiliary root no.  1 is converged.

 Residual norm when dim(red L) =  10
 NEO root     CSF        orbital          total
    2     0.00014068     0.00002536     0.00014294 converged

 (NEONEX) NEO vector is converged.

   <<< OUTPUT FROM SIRCNO >>>    Keyword = FD+NO 


 Occupations of CAS natural orbitals:

 Symmetry  1

   1.299920030   0.696704318   0.001699286

 Symmetry  2

   0.000838183

 Symmetry  3

   0.000838183


 <<< MACRO ITERATION 14 >>>
 --------------------------

 Integral transformation: Total CPU and WALL times (sec)       0.007       0.007

 Total MCSCF energy       :            -7.888446804979168  (MACRO   14)

 - Nuclear repulsion      :             0.995024875621890
 - Inactive energy        :            -7.900139021522535
 - Active energy          :            -0.983332659078523

 Norm of total gradient   :             0.001007235436
 -    of CI gradient      :             0.000971778710
 -    of orbital gradient :             0.000264895004
      Virial theorem: -V/T =      1.988439
@      MULPOP Li     -0.42; H       0.42; 

 Residual norm when dim(red L) =   7
 NEO root     CSF        orbital          total
    1     0.01896109     0.09590362     0.09776005 converged

 (NEONEX) NEO auxiliary root no.  1 is converged.

 Residual norm when dim(red L) =   9
 NEO root     CSF        orbital          total
    2     0.00007291     0.00001357     0.00007417 converged

 (NEONEX) NEO vector is converged.

   <<< OUTPUT FROM SIRCNO >>>    Keyword = FD+NO 


 Occupations of CAS natural orbitals:

 Symmetry  1

   1.302382512   0.694272128   0.001705898

 Symmetry  2

   0.000819731

 Symmetry  3

   0.000819731


 <<< MACRO ITERATION 15 >>>
 --------------------------

 Integral transformation: Total CPU and WALL times (sec)       0.007       0.007

 Total MCSCF energy       :            -7.888460080202582  (MACRO   15)

 - Nuclear repulsion      :             0.995024875621890
 - Inactive energy        :            -7.900138701281358
 - Active energy          :            -0.983346254543113

 Norm of total gradient   :             0.000175205231
 -    of CI gradient      :             0.000167795801
 -    of orbital gradient :             0.000050412716
      Virial theorem: -V/T =      1.988428
@      MULPOP Li     -0.42; H       0.42; 

 Residual norm when dim(red L) =   7
 NEO root     CSF        orbital          total
    1     0.04889910     0.02163334     0.05347078 converged

 (NEONEX) NEO auxiliary root no.  1 is converged.

 Residual norm when dim(red L) =   8
 NEO root     CSF        orbital          total
    2     0.00000364     0.00000553     0.00000662 converged

 (NEONEX) NEO vector is converged.

   <<< OUTPUT FROM SIRCNO >>>    Keyword = FD+NO 


 Occupations of CAS natural orbitals:

 Symmetry  1

   1.302641398   0.694023442   0.001702937

 Symmetry  2

   0.000816112

 Symmetry  3

   0.000816112

 Local region, DONR activated


 <<< MACRO ITERATION 16 >>>
 --------------------------

 Integral transformation: Total CPU and WALL times (sec)       0.007       0.007

 Total MCSCF energy       :            -7.888460087464984  (MACRO   16)

 - Nuclear repulsion      :             0.995024875621890
 - Inactive energy        :            -7.900138607632094
 - Active energy          :            -0.983346355454780

 Norm of total gradient   :             0.000006644934
 -    of CI gradient      :             0.000003678372
 -    of orbital gradient :             0.000005533961
      Virial theorem: -V/T =      1.988428
@      MULPOP Li     -0.42; H       0.42; 

 *** Optimization control: MCSCF converged ***
     Number of macro iterations used           16
     Number of micro iterations used           89
     Total number of CPU seconds used         1.08

 Integral transformation: Total CPU and WALL times (sec)       0.007       0.007

 >>>> CPU and wall time for MCSCF :       1.084       1.092


                     .----------------------------------------.
                     | >>> SIRIUS OPTIMIZATION STATISTICS <<< |
                     `----------------------------------------'


 
     Date and time (Linux)  : Sun Sep  8 20:38:49 2013
     Host name              : lpqlx131.ups-tlse.fr                    


  ITER ITMIC     EMCSCF           GRDNRM        RATIO      STPLNG
 ---------------------------------------------------------------------
    1    2     -7.421027485915   0.6883470496  0.000000   0.7416488796
    2    4     -7.620664473109   0.6782602629  0.602520   0.7000000000
    3    4     -7.815859744005   0.3369881319  0.658908   0.7666198818
    4    6     -7.888186656555   0.2088217453  0.897329   0.7000000000
    5    0     -7.875546988238   0.3166618595 -1.623080   0.0000000000
    5    0     -7.885795821536   0.1553478287 -0.681609   0.0000000000
    5    0     -7.888126739366   0.1341391473 -0.037862   0.0000000000
    5    0     -7.888445708429   0.1559055227  0.361953   0.0000000000
    5   10     -7.888382922922   0.1747288549  0.604191   0.1410578470
    6    5     -7.888539155904   0.1482400529  0.704897   0.1410578470
    7    9     -7.887930456436   0.0681033071  1.169220   0.1692694164
    8    9     -7.887954814764   0.0647188741  0.715985   0.1692694164
    9    6     -7.887972247524   0.0505140386  0.524324   0.1134105090
   10    6     -7.887981097368   0.0410435455  0.958314   0.1360926108
   11    7     -7.888004234071   0.0273376458  1.051023   0.1794000191
   12    6     -7.888138793260   0.0042803063  1.100987   0.2134423494
   13    6     -7.888333729576   0.0016404277  0.975260   0.2488426979
   14    5     -7.888446804979   0.0010072354  0.975268   0.1242678742
   15    4     -7.888460080203   0.0001752052  0.994279   0.0025166071
   16    0     -7.888460087465   0.0000066449  1.000089   0.0000000000


  ITER  INDGCM  GCIMAX      GCINRM     INDGOM  GOBMAX      GOBNRM      GRDNRM
 ------------------------------------------------------------------------------
    1      5   -0.000000    0.000000     26   -0.510837    0.688347    0.688347
    2      6   -0.148672    0.172862     39    0.432080    0.655863    0.678260
    3      2    0.024142    0.039186     40    0.192237    0.334702    0.336988
    4      2    0.076509    0.117388     27    0.125163    0.172704    0.208822
    5      8    0.076182    0.139443     42   -0.204042    0.284307    0.316662
    5      2    0.047772    0.073655     42   -0.091310    0.136777    0.155348
    5      2    0.051069    0.077457     26   -0.059266    0.109516    0.134139
    5      8   -0.059202    0.090649     27    0.076305    0.126844    0.155906
    5      8   -0.066894    0.099950     27    0.090561    0.143318    0.174729
    6      8    0.058276    0.088087     27    0.088919    0.119230    0.148240
    7      8    0.026191    0.040514     27    0.039332    0.054742    0.068103
    8      8    0.025169    0.039231     27    0.043206    0.051473    0.064719
    9      2   -0.019755    0.031176     27    0.030138    0.039746    0.050514
   10      8    0.015937    0.025283     27    0.025952    0.032332    0.041044
   11      8    0.010388    0.016749     27    0.017520    0.021606    0.027338
   12      7    0.002249    0.003245     42   -0.002173    0.002791    0.004280
   13      5   -0.000893    0.001363     29    0.000405    0.000913    0.001640
   14      5   -0.000582    0.000972     63    0.000094    0.000265    0.001007
   15      4   -0.000105    0.000168     27   -0.000027    0.000050    0.000175
   16      3   -0.000003    0.000004     25   -0.000003    0.000006    0.000007


  ITER ITMIC NCLIN NOLIN   TIMMAC    TIMITR    TIMMIC    TIMLIN    TIMMIC/ITMIC
 ------------------------------------------------------------------------------

    1     2     1     3      0.02      0.01      0.01      0.00      0.01
    2     4     2     5      0.03      0.01      0.02      0.01      0.00
    3     4     2     4      0.03      0.01      0.02      0.01      0.01
    4     6     3     5      0.06      0.01      0.05      0.01      0.01
    5     0     0     0      0.01      0.01      0.00      0.00
    5     0     0     0      0.01      0.01      0.00      0.00
    5     0     0     0      0.01      0.01      0.00      0.00
    5     0     0     0      0.01      0.01      0.00      0.00
    5    10     6     9      0.16      0.01      0.15      0.01      0.01
    6     5     3     6      0.08      0.01      0.07      0.01      0.01
    7     9     6    10      0.16      0.01      0.16      0.01      0.02
    8     9     6     8      0.13      0.01      0.12      0.01      0.01
    9     6     4     7      0.07      0.01      0.07      0.01      0.01
   10     6     4     7      0.07      0.01      0.06      0.01      0.01
   11     7     4     6      0.07      0.01      0.06      0.01      0.01
   12     6     4     5      0.05      0.01      0.04      0.01      0.01
   13     6     4     5      0.04      0.01      0.03      0.01      0.00
   14     5     4     4      0.03      0.01      0.02      0.01      0.00
   15     4     3     4      0.03      0.01      0.02      0.01      0.00
   16     0     0     0      0.01      0.01      0.00      0.00


 ITER         EMY                 EACTIV              EMCSCF

    1     -7.897014428717     -0.519037932819     -7.421027485915
    2     -7.897231453373     -0.718457895358     -7.620664473109
    3     -7.899306660497     -0.911577959130     -7.815859744005
    4     -7.900048882828     -0.983162649348     -7.888186656555
    5     -7.900251789881     -0.970320073979     -7.875546988238
    5     -7.900198316758     -0.980622380400     -7.885795821536
    5     -7.900155013224     -0.982996601765     -7.888126739366
    5     -7.900122660615     -0.983347923436     -7.888445708429
    5     -7.900099501562     -0.983308296982     -7.888382922922
    6     -7.900109725031     -0.983454306495     -7.888539155904
    7     -7.900169958389     -0.982785373668     -7.887930456436
    8     -7.900165869504     -0.982813820882     -7.887954814764
    9     -7.900168892611     -0.982828230535     -7.887972247524
   10     -7.900166050260     -0.982839922731     -7.887981097368
   11     -7.900160476793     -0.982868632899     -7.888004234071
   12     -7.900143526925     -0.983020141956     -7.888138793260
   13     -7.900139927466     -0.983218677732     -7.888333729576
   14     -7.900139021523     -0.983332659079     -7.888446804979
   15     -7.900138701281     -0.983346254543     -7.888460080203
   16     -7.900138607632     -0.983346355455     -7.888460087465


 ITER         DEPRED              DEACT               RATIO

    1      0.000000000000      0.000000000000      0.000000000000
    2     -0.331336831563     -0.199636987195      0.602519756868
    3     -0.296240636627     -0.195195270896      0.658907816018
    4     -0.080602486239     -0.072326912550      0.897328555541
    5     -0.007787458361      0.012639668317     -1.623080051380
    5     -0.003507632492      0.002390835018     -0.681609325827
    5     -0.001582510657      0.000059917188     -0.037862107306
    5     -0.000715705103     -0.000259051874      0.361953370872
    5     -0.000324841787     -0.000196266367      0.604190640310
    6     -0.000221639565     -0.000156232982      0.704896629330
    7      0.000520603020      0.000608699468      1.169220009369
    8     -0.000034020707     -0.000024358329      0.715985364582
    9     -0.000033248057     -0.000017432760      0.524324177621
   10     -0.000009234807     -0.000008849844      0.958313900114
   11     -0.000022013509     -0.000023136702      1.051022934098
   12     -0.000122216868     -0.000134559189      1.100987052172
   13     -0.000199881473     -0.000194936316      0.975259554313
   14     -0.000115942909     -0.000113075403      0.975267950185
   15     -0.000013351609     -0.000013275223      0.994278952789
   16     -0.000000007262     -0.000000007262      1.000088759706


 ITER    BETA           GAMMA             STPLNG              RTRUST

    1      1.80000000  1.00000000      0.741648879638      0.700000000000
    2      1.40000000  0.85810356      0.700000000000      0.700000000000
    3      0.40000000  1.00000000      0.766619881831      0.700000000000
    4     20.00000000  0.67711563      0.700000000000      0.700000000000
    5      0.00000000  0.00000000      0.000000000000      0.469000000000
    5      0.00000000  0.00000000      0.000000000000      0.314230000000
    5      0.00000000  0.00000000      0.000000000000      0.210534100000
    5      0.00000000  0.00000000      0.000000000000      0.141057847000
    5     20.00000000  0.12808475      0.141057847000      0.141057847000
    6     20.00000000  0.56973446      0.141057847000      0.141057847000
    7     20.00000000  0.03920759      0.169269416400      0.169269416400
    8     20.00000000  0.19198273      0.169269416400      0.169269416400
    9     20.00000000  0.18788581      0.113410508988      0.113410508988
   10     20.00000000  0.34249310      0.136092610786      0.136092610786
   11     10.80000000  1.00000000      0.179400019124      0.163311132943
   12      3.80000000  1.00000000      0.213442349444      0.195973359531
   13      2.40000000  1.00000000      0.248842697860      0.235168031438
   14      0.20000000  1.00000000      0.124267874233      0.282201637725
   15      0.20000000  1.00000000      0.002516607146      0.406370358324
   16      0.00000000  0.00000000      0.000000000000      0.585173315987


 Reduced L root no.  1
 ITER         EVAL              EVEC(1)           EVEC(2)           EVEC(3)
 ----------------------------------------------------------------------------
    1   -1.512902229842   -0.118822247299    0.927536804463   -0.088444513511
    2   -1.088511611883    0.308567499501    0.812481813438   -0.124032976749
    3   -0.491701685164    0.039938433097    0.925113611112   -0.139165630137
    4   -2.611043976546    0.749046037805   -0.445996140822   -0.152361478648
    5    0.000000000000    0.000000000000    0.000000000000    0.000000000000
    5    0.000000000000    0.000000000000    0.000000000000    0.000000000000
    5    0.000000000000    0.000000000000    0.000000000000    0.000000000000
    5    0.000000000000    0.000000000000    0.000000000000    0.000000000000
    5   -2.740323776891    0.766309306942   -0.390883328648    0.205499073907
    6   -2.293131576449    0.766449787022   -0.401455020818   -0.250561078498
    7   -0.964963041079    0.736638975078   -0.453852947485    0.323771253956
    8   -0.921290338297    0.729756666824   -0.461798728719    0.354251154649
    9   -0.724716043704    0.699875703257   -0.487470954835    0.400188464742
   10   -0.593814760256    0.669778187034   -0.487710555802    0.447845087395
   11   -0.305827267675    0.420319973814   -0.501120009385    0.661337787485
   12   -0.248411467699   -0.009871413444    0.727327295730    0.564221842691
   13   -0.245759582027   -0.002902812338    0.694589637574    0.599883226824
   14   -0.235743550583   -0.000261405233    0.809490556682    0.451261660728
   15   -0.242059726502   -0.000047553983    0.801249032311    0.437497530298
   16    0.000000000000    0.000000000000    0.000000000000    0.000000000000


 Reduced L root no.  2
 ITER         EVAL              EVEC(1)           EVEC(2)           EVEC(3)
 ----------------------------------------------------------------------------
    1   -0.771730768980    0.599529486248    0.165032744158    0.337878610376
    2   -0.598507449083    0.658766998962   -0.207326821454   -0.542940859666
    3   -0.023575885167    0.956059223178   -0.098632759139   -0.090523789317
    4   -0.031640941084    0.048308932555    0.046721305378    0.399571707108
    5    0.000000000000    0.000000000000    0.000000000000    0.000000000000
    5    0.000000000000    0.000000000000    0.000000000000    0.000000000000
    5    0.000000000000    0.000000000000    0.000000000000    0.000000000000
    5    0.000000000000    0.000000000000    0.000000000000    0.000000000000
    5   -0.021626826429   -0.045354778249   -0.034666117881    0.255644487784
    6    0.047468885657    0.197954293881    0.098951741832    0.435597253366
    7   -0.002358918169    0.011580640260    0.019808764795   -0.028054547634
    8   -0.002252585577    0.056618253739    0.045311735674   -0.076946310679
    9   -0.001346857217    0.082551660842    0.073070703938   -0.120157128837
   10   -0.002207929340    0.124846405234    0.083129854133   -0.150068798174
   11   -0.005997232572    0.458639142703    0.088670044281   -0.196797889841
   12   -0.003481960993    0.776653109994   -0.003261396549    0.007977034608
   13   -0.000984511853    0.858543173583    0.001808120289    0.002643630795
   14   -0.000001067469    0.999691292918    0.000244878570    0.000249362218
   15   -0.000000000581    0.999999873334    0.000022740301    0.000025843509
   16    0.000000000000    0.000000000000    0.000000000000    0.000000000000


                       .-----------------------------------.
                       | >>> Final results from SIRIUS <<< |
                       `-----------------------------------'


@    Spin multiplicity:           1
@    Spatial symmetry:            1
@    Total charge of molecule:    0
@    State number:                2

@    Final MCSCF energy:           -7.888460087465                 
@    Nuclear repulsion:             0.995024875622
@    Electronic energy:            -8.883484963087

@    Final gradient norm:           0.000006644934

 
     Date and time (Linux)  : Sun Sep  8 20:38:49 2013
     Host name              : lpqlx131.ups-tlse.fr                    

 Occupancies of natural orbitals
 -------------------------------

 Symmetry  1 -- Total occupation in this symmetry is   3.998367776

   2.000000000   1.302641398   0.694023442   0.001702937

 Symmetry  2 -- Total occupation in this symmetry is   0.000816112

   0.000816112

 Symmetry  3 -- Total occupation in this symmetry is   0.000816112

   0.000816112

 Symmetry  4 -- No occupied orbitals

 (Only coefficients >0.0100 are printed.)

 Molecular orbitals for symmetry species  1
 ------------------------------------------

    Orbital         1        2        3        4        5        6
   1 Li  :1s     0.4143   0.0043  -0.0575  -0.0152  -0.0026   0.0133
   2 Li  :1s     0.6770   0.0258  -0.1651  -0.0650  -0.0056   0.0388
   3 Li  :1s     0.0496   0.0491   0.3547   1.0915  -0.1000   0.2296
   4 Li  :1s    -0.0105  -0.5340   0.8036   1.7366  -0.2977   1.1299
   5 Li  :1s     0.0025  -0.0160   0.0436   0.0434  -1.2694   1.4019
   6 Li  :2pz    0.0272   0.4425  -0.1787   1.4043  -0.0868   0.0455
   7 Li  :2pz   -0.0004   0.1012  -0.0216   0.5378  -0.5062   1.8199
   8 Li  :2pz   -0.0001  -0.0016   0.0038  -0.0170  -0.7690  -1.0004
   9 Li  :3d0    0.0088   0.0718   0.0273   0.4006   0.0113   0.0338
  11 Li  :3d0   -0.0011  -0.0218   0.0406   0.1269  -0.1784   0.3920
  13 H   :1s     0.0043   0.5144   0.5350   0.0530   0.0447  -0.0136
  14 H   :1s    -0.0429   0.0167   0.0353  -1.8551   0.0380  -0.0955
  15 H   :1s    -0.0001   0.2011  -0.5279  -1.7587   1.3542  -2.6467
  16 H   :2pz   -0.0005  -0.0284  -0.0330  -0.6267   0.0125   0.0083
  17 H   :2pz    0.0156   0.0855   0.0371   0.4166  -0.0008   0.1457

 Molecular orbitals for symmetry species  2
 ------------------------------------------

    Orbital         1        2        3
   1 Li  :2px    0.3079  -0.0866  -0.1746
   2 Li  :2px    0.1337  -0.0057  -1.2014
   3 Li  :2px   -0.0271  -0.9728   0.8317
   4 Li  :3d1+  -0.0437   0.0054  -0.0558
   5 Li  :3d1+  -0.0063  -0.1087  -0.1556
   6 H   :2px   -0.8636  -0.0012  -0.0057
   7 H   :2px   -0.2811   0.0053   0.1256

 Molecular orbitals for symmetry species  3
 ------------------------------------------

    Orbital         1        2        3
   1 Li  :2py    0.3079  -0.0866  -0.1746
   2 Li  :2py    0.1337  -0.0057  -1.2014
   3 Li  :2py   -0.0271  -0.9728   0.8317
   4 Li  :3d1-  -0.0437   0.0054  -0.0558
   5 Li  :3d1-  -0.0063  -0.1087  -0.1556
   6 H   :2py   -0.8636  -0.0012  -0.0057
   7 H   :2py   -0.2811   0.0053   0.1256

 Molecular orbitals for symmetry species  4
 ------------------------------------------

    Orbital         1        2
   1 Li  :3d2-  -0.0704   1.1446
   2 Li  :3d2-   1.0326  -0.4989

 Printout of CI-coefficients abs greater than 0.10000 for root  2
 *** NOTE: this root is the reference state ***

 Printout of coefficients in interval  3.1623E-01 to  1.0000E+00
 ===============================================================

  Coefficient of CSF no.         1 is      0.80704442    8.07044422E-01
  Orbital          1
  Spin coupling    2

  Coefficient of CSF no.         2 is     -0.58907701   -5.89077007E-01
  Orbital          2
  Spin coupling    2

 Printout of coefficients in interval  1.0000E-01 to  3.1623E-01
 ===============================================================
   ( no coefficients )

 Printout of coefficients in interval  1.0000E-01 to  1.0000E-01
 ===============================================================
   ( no coefficients )

 Norm of printed CI vector ..      0.99833242

 Magnitude of CI coefficients
 ============================
 ( Ranges are relative to norm of vector :  1.00E+00 )

  10- 1 to 10- 0         2    0.99833242E+00      0.9983324198
  10- 2 to 10- 1         3    0.16675802E-02      1.0000000000
  Number of coefficients less than 10^-11 times norm is            3



 >>>> Total CPU  time used in SIRIUS :      1.10 seconds
 >>>> Total wall time used in SIRIUS :      1.11 seconds

 
     Date and time (Linux)  : Sun Sep  8 20:38:49 2013
     Host name              : lpqlx131.ups-tlse.fr                    


                     .---------------------------------------.
                     | End of Wave Function Section (SIRIUS) |
                     `---------------------------------------'


 INFO >>>> As this is an excited optimization some thresholds have been updated

 Restricted step control parameters
 ----------------------------------
 Initial trust radius   :    0.2500
 Trust radius increment :    1.1000
 Trust radius decrement :    0.7000
 Bad prediction ratio   :    0.8500
 Good prediction ratio  :    0.9000
 Rejection ratio, low   :    0.8000
 Rejection ratio, high  :    1.2000

     Order of analytical energy-derivatives available:   2
     This will be the default.

 Center of mass dipole origin  :    0.000000    0.000000    0.378696

 Center of mass gauge origin   :    0.000000    0.000000    0.378696


                 .------------------------------------------------.
                 | Starting in Static Property Section (ABACUS) - |
                 `------------------------------------------------'


 
     Date and time (Linux)  : Sun Sep  8 20:38:49 2013
     Host name              : lpqlx131.ups-tlse.fr                    


   ***************************************************************************
   ************************ FINAL RESULTS from ABACUS ************************
   ***************************************************************************


 
     Date and time (Linux)  : Sun Sep  8 20:38:49 2013
     Host name              : lpqlx131.ups-tlse.fr                    


                             Molecular geometry (au)
                             -----------------------

 Li         0.0000000000            0.0000000000            0.0000000000
 H          0.0000000000            0.0000000000            3.0150000000





                        Molecular wave function and energy
                        ----------------------------------

     Spin multiplicity  1     State number       2     Total charge       0

     Total energy         -7.8884600875 au (Hartrees)
                          -214.65591826 eV
                            -20711.1488 kJ/mol


                             Relativistic corrections
                             ------------------------

     Darwin correction:                          0.0033130582 au
     Mass-velocity correction:                  -0.0039852171 au

     Total relativistic correction:             -0.0006721588 au (0.0085%)
     Non-relativistic + relativistic energy:    -7.8891322463 au




                             Molecular gradient (au)
                             -----------------------

                         Li   z     0.0284649932
                         H    z    -0.0284649932



 Li         0.0000000000            0.0000000000            0.0284649932
 H          0.0000000000            0.0000000000           -0.0284649932





                                  Dipole moment
                                  -------------

                 au               Debye          C m (/(10**-30)
              2.059664           5.235144          17.462561


                             Dipole moment components
[...]
    1    0.000000000000    0.000000000000    0.000000000000    0.000000000000
    2    0.000000000000    0.000000000000    0.000000000000    0.000000000000


                       .-----------------------------------.
                       | >>> Final results from SIRIUS <<< |
                       `-----------------------------------'


@    Spin multiplicity:           1
@    Spatial symmetry:            1
@    Total charge of molecule:    0
@    State number:                2

@    Final MCSCF energy:           -7.902355675472                 
@    Nuclear repulsion:             0.600919772039
@    Electronic energy:            -8.503275447511

@    Final gradient norm:           0.000005732046

 
     Date and time (Linux)  : Sun Sep  8 20:38:52 2013
     Host name              : lpqlx131.ups-tlse.fr                    

 Occupancies of natural orbitals
 -------------------------------

 Symmetry  1 -- Total occupation in this symmetry is   3.996116798

   2.000000000   1.486658946   0.506808159   0.002649693

 Symmetry  2 -- Total occupation in this symmetry is   0.001941601

   0.001941601

 Symmetry  3 -- Total occupation in this symmetry is   0.001941601

   0.001941601

 Symmetry  4 -- No occupied orbitals



 >>>> Total CPU  time used in SIRIUS :      0.06 seconds
 >>>> Total wall time used in SIRIUS :      0.06 seconds

 
     Date and time (Linux)  : Sun Sep  8 20:38:52 2013
     Host name              : lpqlx131.ups-tlse.fr                    


                     .---------------------------------------.
                     | End of Wave Function Section (SIRIUS) |
                     `---------------------------------------'

 Trust radius increased due to good ratio.
 Updated trust radius   0.16608

     Order of analytical energy-derivatives available:   2
     This will be the default.

 Center of mass dipole origin  :    0.000000    0.000000   -0.361615

 Center of mass gauge origin   :    0.000000    0.000000   -0.361615


                 .------------------------------------------------.
                 | Starting in Static Property Section (ABACUS) - |
                 `------------------------------------------------'


 
     Date and time (Linux)  : Sun Sep  8 20:38:52 2013
     Host name              : lpqlx131.ups-tlse.fr                    


   ***************************************************************************
   ************************ FINAL RESULTS from ABACUS ************************
   ***************************************************************************


 
     Date and time (Linux)  : Sun Sep  8 20:38:52 2013
     Host name              : lpqlx131.ups-tlse.fr                    


 CPU time statistics for ABACUS
 ------------------------------




 >>>> Total CPU  time used in ABACUS:   0.07 seconds
 >>>> Total wall time used in ABACUS:   0.07 seconds


                   .-------------------------------------------.
                   | End of Static Property Section (ABACUS) - |
                   `-------------------------------------------'



           :::::::::::::::::::::::::::::::::::::::::::::::::::::::::::
           ::::::::::::::: Optimization Control Center :::::::::::::::
           :::::::::::::::::::::::::::::::::::::::::::::::::::::::::::



                               Final geometry (au)
                               -------------------

 Li         0.0000000000            0.0000000000           -0.9886734824
 H          0.0000000000            0.0000000000            4.0036734824





                             Optimization information
                             ------------------------

 Iteration number               :      11
 End of optimization            :       T 
 Energy at this geometry is     :      -7.902356
 Energy change from last geom.  :      -0.000000
 Norm of gradient               :       0.000000
 Norm of step                   :       0.000008
 Updated trust radius           :       0.166081
 Total Hessian index            :       0




        *****************************************************************
        ******** Output from **PROPE input processing for ABACUS ********
        *****************************************************************



 The following molecular properties will be calculated in this run:
 ------------------------------------------------------------------

 Default print level:        0

      The molecular gradient
      The molecular Hessian
      Vibrational analysis
      Dipole moment gradient
      Natural orbital connection is used
      for perturbation dependent basis sets.

 Center of mass dipole origin  :    0.000000    0.000000   -0.361615

 Center of mass gauge origin   :    0.000000    0.000000   -0.361615


                 .------------------------------------------------.
                 | Starting in Static Property Section (ABACUS) - |
                 `------------------------------------------------'


 
     Date and time (Linux)  : Sun Sep  8 20:38:52 2013
     Host name              : lpqlx131.ups-tlse.fr                    


   ***************************************************************************
   ************************ FINAL RESULTS from ABACUS ************************
   ***************************************************************************


 
     Date and time (Linux)  : Sun Sep  8 20:38:52 2013
     Host name              : lpqlx131.ups-tlse.fr                    


                             Molecular geometry (au)
                             -----------------------

 Li         0.0000000000            0.0000000000           -0.9886734824
 H          0.0000000000            0.0000000000            4.0036734824





                        Molecular wave function and energy
                        ----------------------------------

     Spin multiplicity  1     State number       2     Total charge       0

     Total energy         -7.9023556755 au (Hartrees)
                          -215.03403645 eV
                            -20747.6316 kJ/mol


                             Relativistic corrections
                             ------------------------

     Darwin correction:                          0.0033100545 au
     Mass-velocity correction:                  -0.0039802916 au

     Total relativistic correction:             -0.0006702371 au (0.0085%)
     Non-relativistic + relativistic energy:    -7.9030259125 au




                             Molecular gradient (au)
                             -----------------------

                         Li   z    -0.0000000170
                         H    z     0.0000000170



 Li         0.0000000000            0.0000000000           -0.0000000170
 H          0.0000000000            0.0000000000            0.0000000170





                              Molecular Hessian (au)
                              ----------------------


           Symmetry 1

           Li   z      H    z

 Li   z    0.002249
 H    z   -0.002249    0.002249


           Symmetry 2

           Li   x      H    x

 Li   x    0.000000
 H    x   -0.000000    0.000000


           Symmetry 3

           Li   y      H    y

 Li   y    0.000000
 H    y   -0.000000    0.000000




            Li     x    Li     y    Li     z    H      x    H      y    H      z

 Li     x    0.000000
 Li     y    0.000000    0.000000
 Li     z    0.000000    0.000000    0.002249

 H      x   -0.000000    0.000000    0.000000    0.000000
 H      y    0.000000   -0.000000    0.000000    0.000000    0.000000
 H      z    0.000000    0.000000   -0.002249    0.000000    0.000000    0.002249





                                  Dipole moment
                                  -------------

                 au               Debye          C m (/(10**-30)
              1.081114           2.747917           9.166065


                             Dipole moment components
                             ------------------------

                 au               Debye          C m (/(10**-30)

      z      1.08111381         2.74791703         9.16606457


   Units:   1 a.u. =   2.54175 Debye 
            1 a.u. =   8.47835 (10**-30) C m (SI)




                           Dipole moment gradient (au)
                           ---------------------------


    Symmetry 1
                       Ez

        Li   z     0.88551420
        H    z    -0.88551420

    Symmetry 2
                       Ex

        Li   x    -0.21655422
        H    x     0.21655422

    Symmetry 3
                       Ey

        Li   y    -0.21655422
        H    y     0.21655422



                       Ex             Ey             Ez

      Li     x    -0.21655422     0.00000000     0.00000000
      Li     y     0.00000000    -0.21655422     0.00000000
      Li     z     0.00000000     0.00000000     0.88551420

      H      x     0.21655422     0.00000000     0.00000000
      H      y     0.00000000     0.21655422     0.00000000
      H      z     0.00000000     0.00000000    -0.88551420



                            +-------------------------+
                            ! APT Population Analysis !
                            +-------------------------+


      [ Reference : J. Cioslowski, J.Am.Chem.Soc. 111 (1989) 8333 ]

                            Li        0.150802
                            H        -0.150802



   Interatomic separations (in Angstrom):
   --------------------------------------

            Li          H     
            ------      ------
 Li    :    0.000000
 H     :    2.641836    0.000000


  Max    interatomic separation is    2.6418 Angstrom (    4.9923 Bohr)
  between atoms    2 and    1, "H     " and "Li    ".

  Min HX interatomic separation is    2.6418 Angstrom (    4.9923 Bohr)


  Bond distances (Angstrom):
  --------------------------

                  atom 1     atom 2       distance
                  ------     ------       --------




   ****************************************************************************
   *************** ABACUS - ROTATIONAL AND VIBRATIONAL ANALYSIS ***************
   ****************************************************************************


 Norm of (unprojected) molecular gradient (au) :     0.00000002


 Conversion factors used:

    Hartree to (cm)-1      : 219474.62934
    a.m.u.  to a.u.        :   1822.88848
    Bohr    to Angstrom    :  0.529177211
    a.u.    to A**4amu-1   :   142.943572
    a.u.    to km (mol)-1  :      974.864


 Vibrational analysis for parent molecule only.

 ORTVEC: New vector no.  4 is removed because of linear dependence;
 norm of vector after Gram-Schmidt's orthogonalization 0.00D+00

 (ORTVEC) NNEW reduced from  6 to  5
  Norm of projected gradient     0.000000


                         Isotopic Molecule No. 1
                         ======================= 


                                 Isotopic Masses
                                 ---------------

                           Li          7.016005
                           H           1.007825

                       Total mass:     8.023830 amu
                       Natural abundance:  92.486 %

 Center-of-mass coordinates (a.u.):    0.000000    0.000000   -0.361615


 Principal moments of inertia (u*A**2) and principal axes
 --------------------------------------------------------

   IA       0.000000          0.000000    0.000000    1.000000
   IB       6.150424          0.000000    1.000000    0.000000
   IC       6.150424          1.000000    0.000000    0.000000


 Rotational constants
 --------------------

 The molecule is linear.

               B =        82169.78 MHz     (    2.740889 cm-1)



  Vibrational Frequencies and IR Intensities
  ------------------------------------------



  mode   irrep        frequency             IR intensity
  ============================================================
                 cm-1       hartrees     km/mol   (D/A)**2/amu
  ------------------------------------------------------------

   1      A1      259.71    0.001183    867.445  20.5286






  Normal Coordinates (bohrs*amu**(1/2)):
  --------------------------------------


                1   260 
  ----------------------

    Li     x    0.000000
    Li     y    0.000000
    Li     z   -0.133800

    H      x    0.000000
    H      y    0.000000
    H      z    0.931454



  Analysis in redundant internal coordinates
  ------------------------------------------



                          Expanded array of atoms (Bohr)
                          ------------------------------


               Column   1     Column   2     Column   3     Column   4
       1       3.00000000     0.00000000     0.00000000    -0.98867724
       2       1.00000000     0.00000000     0.00000000     4.00367724
    ==== End of matrix output ====


                          Redundant internal coordinates
                          ------------------------------

           (Auxiliary bonds are not printed at this print level.)

       1   Regular bond                 1   2               2.64184 Ang.

 Total number of redundant internal coordinates:     1


                          Normal coordinates (internal)
                          -----------------------------


                1   260 
  ----------------------

    1 stre      1.065254



  Dipole Gradient in Normal Coordinate Basis (D/(A*amu**(1/2)))
  -------------------------------------------------------------


  mode           dMA/dQi        dMB/dQi        dMC/dQi
  ----------------------------------------------------
   1            0.000000       0.000000      -4.530853



                              Total Molecular Energy
                              ----------------------

             electronic     vibrational           total    energy 

              -7.902356        0.000592       -7.901764    Hartrees
            -1734366.58          129.86     -1734236.73    cm-1
              -20747.63            1.55       -20746.08    kJ/mol
               -4958.80            0.37        -4958.43    kcal/mol


                          Molecular Partition Functions
                          -----------------------------

 Qtran is evaluated per mol at 1 atm. pressure.
 Qrot does not include symmetry numbers.
 Qvib does not include zero point energies
 (i.e., energy scale has vibrational ground state as zero).


 Temp.(K)  Translational     Rotational    Vibrational      Total

    50.00     1.0289D+04          13.02         1.0006   1.340103D+05
   100.00     5.8202D+04          25.69         1.0244   1.531936D+06
   200.00     3.2924D+05          51.05         1.1826   1.987627D+07
   273.15     7.1769D+05          69.60         1.3416   6.701393D+07
   298.15     8.9335D+05          75.94         1.3997   9.495630D+07
   300.00     9.0728D+05          76.41         1.4041   9.733374D+07
   400.00     1.8625D+06         101.77         1.6472   3.122021D+08
   500.00     3.2536D+06         127.12         1.8998   7.857661D+08
   600.00     5.1323D+06         152.48         2.1573   1.688246D+09
   700.00     7.5454D+06         177.84         2.4176   3.244090D+09
   800.00     1.0536D+07         203.20         2.6797   5.736788D+09
   900.00     1.4143D+07         228.55         2.9431   9.513322D+09
  1000.00     1.8405D+07         253.91         3.2073   1.498832D+10
  1500.00     5.0718D+07         380.70         4.5350   8.756445D+10
  2000.00     1.0411D+08         507.49         5.8679   3.100448D+11


                                +------------------+
                                ! Polarizabilities !
                                +------------------+


 Vibrational polarizabilities calculated acc. to Rinaldi et al.,
 Chem.Phys.Lett. 128 (1986) 177-181.


                        Vibrational Polarizabilities (au)
                        ---------------------------------

                         Ex          Ey          Ez

            Ex       0.000000    0.000000    0.000000
            Ey       0.000000    0.000000    0.000000
            Ez       0.000000    0.000000  348.599829



                   Vibrational Polarizabilities (angstroms**3)
                   -------------------------------------------

                         Ex          Ey          Ez

            Ex       0.000000    0.000000    0.000000
            Ey       0.000000    0.000000    0.000000
            Ez       0.000000    0.000000   51.657165



                   Vibrational Polarizabilities (angstroms**3)
                   -------------------------------------------

               (Along principal axes of moments of inertia)

                         EA          EB          EC

            EA      51.657165    0.000000    0.000000
            EB       0.000000    0.000000    0.000000
            EC       0.000000    0.000000    0.000000



 Vibrational mean polarization :   43.4871 cm**3 mol**-1


 CPU time statistics for ABACUS
 ------------------------------




 >>>> Total CPU  time used in ABACUS:   0.31 seconds
 >>>> Total wall time used in ABACUS:   0.32 seconds


                   .-------------------------------------------.
                   | End of Static Property Section (ABACUS) - |
                   `-------------------------------------------'



          <<<<<<<<<<<<<<<<<<<<<<<<<<<<<<<<<<<<<<<<<<<<<<<<<<<<<<<<<<<<<<
          <<<<<<<<<<<<<<<<<<<<  End of Optimization <<<<<<<<<<<<<<<<<<<<
          <<<<<<<<<<<<<<<<<<<<<<<<<<<<<<<<<<<<<<<<<<<<<<<<<<<<<<<<<<<<<<



                                  Final geometry
                                  --------------

 Li         0.0000000000            0.0000000000           -0.9886734824
 H          0.0000000000            0.0000000000            4.0036734824



@ Iter      Energy        Change       GradNorm  Index   StepLen    TrustRad #Rej
@ -------------------------------------------------------------------------------
@   0       -7.888460     0.000000     0.040256    0    0.250000*   0.500000   0 
@   1       -7.894100    -0.005640     0.024756    0    0.275000    0.275000   0 
@   2       -7.897813    -0.003712     0.014333    0    0.195504*   0.302500   1 
@   3       -7.899451    -0.001638     0.009660    0    0.195504    0.195504   0 
@   4       -7.900551    -0.001101     0.006470    0    0.215056    0.215055   0 
@   5       -7.901344    -0.000793     0.004127    0    0.236560*   0.236561   0 
@   6       -7.901884    -0.000539     0.002440    0    0.260215    0.260216   0 
@   7       -7.902212    -0.000328     0.001207    0    0.150984*   0.286237   1 
@   8       -7.902311    -0.000098     0.000652    0    0.150982*   0.150984   0 
@   9       -7.902353    -0.000043     0.000151    0    0.045550*   0.166081   0 
@  10       -7.902356    -0.000003     0.000006    0    0.001991*   0.166081   0 
@  11       -7.902356    -0.000000     0.000000    0    0.000008*   0.166081   0 

@  *) Newton step taken.


   Interatomic separations (in Angstrom):
   --------------------------------------

            Li          H     
            ------      ------
 Li    :    0.000000
 H     :    2.641836    0.000000


  Max    interatomic separation is    2.6418 Angstrom (    4.9923 Bohr)
  between atoms    2 and    1, "H     " and "Li    ".

  Min HX interatomic separation is    2.6418 Angstrom (    4.9923 Bohr)


  Bond distances (Angstrom):
  --------------------------

                  atom 1     atom 2       distance
                  ------     ------       --------



@ Geometry converged in 12 iterations!

@ Energy at final geometry is       :      -7.902356 a.u.
@ Energy change during optimization :      -0.013896 a.u.
@                                            -36.483 kJ/mol

 >>>> Total CPU  time used in DALTON:   4.24 seconds
 >>>> Total wall time used in DALTON:   4.51 seconds

 
     Date and time (Linux)  : Sun Sep  8 20:38:52 2013
     Host name              : lpqlx131.ups-tlse.fr                    
