

     ************************************************************************
     *************** Dalton - An Electronic Structure Program ***************
     ************************************************************************

    This is output from DALTON (Release Dalton2013 patch 0)
   ----------------------------------------------------------------------------
    NOTE:
     
    Dalton is an experimental code for the evaluation of molecular
    properties using (MC)SCF, DFT, CI, and CC wave functions.
    The authors accept no responsibility for the performance of
    the code or for the correctness of the results.
     
    The code (in whole or part) is provided under a licence and
    is not to be reproduced for further distribution without
    the written permission of the authors or their representatives.
     
    See the home page "http://daltonprogram.org" for further information.
     
    If results obtained with this code are published,
    the appropriate citations would be both of:
     
       K. Aidas, C. Angeli, K. L. Bak, V. Bakken, R. Bast,
       L. Boman, O. Christiansen, R. Cimiraglia, S. Coriani,
       P. Dahle, E. K. Dalskov, U. Ekstroem, T. Enevoldsen,
       J. J. Eriksen, P. Ettenhuber, B. Fernandez, L. Ferrighi,
       H. Fliegl, L. Frediani, K. Hald, A. Halkier, C. Haettig,
       H. Heiberg, T. Helgaker, A. C. Hennum, H. Hettema,
       E. Hjertenaes, S. Hoest, I.-M. Hoeyvik, M. F. Iozzi,
       B. Jansik, H. J. Aa. Jensen, D. Jonsson, P. Joergensen,
       J. Kauczor, S. Kirpekar, T. Kjaergaard, W. Klopper,
       S. Knecht, R. Kobayashi, H. Koch, J. Kongsted, A. Krapp,
       K. Kristensen, A. Ligabue, O. B. Lutnaes, J. I. Melo,
       K. V. Mikkelsen, R. H. Myhre, C. Neiss, C. B. Nielsen,
       P. Norman, J. Olsen, J. M. H. Olsen, A. Osted,
       M. J. Packer, F. Pawlowski, T. B. Pedersen, P. F. Provasi,
       S. Reine, Z. Rinkevicius, T. A. Ruden, K. Ruud, V. Rybkin,
       P. Salek, C. C. M. Samson, A. Sanchez de Meras, T. Saue,
       S. P. A. Sauer, B. Schimmelpfennig, K. Sneskov,
       A. H. Steindal, K. O. Sylvester-Hvid, P. R. Taylor,
       A. M. Teale, E. I. Tellgren, D. P. Tew, A. J. Thorvaldsen,
       L. Thoegersen, O. Vahtras, M. A. Watson, D. J. D. Wilson,
       M. Ziolkowski and H. Agren.
       The Dalton quantum chemistry program system.
       WIREs Comput. Mol. Sci. 2013. doi: 10.1002/wcms.1172
    
    and
    
       Dalton, a Molecular Electronic Structure Program,
       Release DALTON2013.0 (2013), see http://daltonprogram.org
   ----------------------------------------------------------------------------

    Authors in alphabetical order (major contribution(s) in parenthesis):

  Kestutis Aidas,           Vilnius University,           Lithuania   (QM/MM)
  Celestino Angeli,         University of Ferrara,        Italy       (NEVPT2)
  Keld L. Bak,              UNI-C,                        Denmark     (AOSOPPA, non-adiabatic coupling, magnetic properties)
  Vebjoern Bakken,          University of Oslo,           Norway      (DALTON; geometry optimizer, symmetry detection)
  Radovan Bast,             KTH Stockholm                 Sweden      (DALTON installation and execution frameworks)
  Linus Boman,              NTNU,                         Norway      (Cholesky decomposition and subsystems)
  Ove Christiansen,         Aarhus University,            Denmark     (CC module)
  Renzo Cimiraglia,         University of Ferrara,        Italy       (NEVPT2)
  Sonia Coriani,            University of Trieste,        Italy       (CC module, MCD in RESPONS)
  Paal Dahle,               University of Oslo,           Norway      (Parallelization)
  Erik K. Dalskov,          UNI-C,                        Denmark     (SOPPA)
  Thomas Enevoldsen,        Univ. of Southern Denmark,    Denmark     (SOPPA)
  Janus J. Eriksen,         Aarhus University,            Denmark     (PE-MP2/SOPPA, TDA)
  Berta Fernandez,          U. of Santiago de Compostela, Spain       (doublet spin, ESR in RESPONS)
  Lara Ferrighi,            Aarhus University,            Denmark     (PCM Cubic response)
  Heike Fliegl,             University of Oslo,           Norway      (CCSD(R12))
  Luca Frediani,            UiT The Arctic U. of Norway,  Norway      (PCM)
  Bin Gao,                  UiT The Arctic U. of Norway,  Norway      (Gen1Int library)
  Christof Haettig,         Ruhr-University Bochum,       Germany     (CC module)
  Kasper Hald,              Aarhus University,            Denmark     (CC module)
  Asger Halkier,            Aarhus University,            Denmark     (CC module)
  Hanne Heiberg,            University of Oslo,           Norway      (geometry analysis, selected one-electron integrals)
  Trygve Helgaker,          University of Oslo,           Norway      (DALTON; ABACUS, ERI, DFT modules, London, and much more)
  Alf Christian Hennum,     University of Oslo,           Norway      (Parity violation)
  Hinne Hettema,            University of Auckland,       New Zealand (quadratic response in RESPONS; SIRIUS supersymmetry)
  Eirik Hjertenaes,         NTNU,                         Norway      (Cholesky decomposition)
  Maria Francesca Iozzi,    University of Oslo,           Norway      (RPA)
  Brano Jansik              Technical Univ. of Ostrava    Czech Rep.  (DFT cubic response)
  Hans Joergen Aa. Jensen,  Univ. of Southern Denmark,    Denmark     (DALTON; SIRIUS, RESPONS, ABACUS modules, London, and much more)
  Dan Jonsson,              UiT The Arctic U. of Norway,  Norway      (cubic response in RESPONS module)
  Poul Joergensen,          Aarhus University,            Denmark     (RESPONS, ABACUS, and CC modules)
  Joanna Kauczor,           Linkoeping University,        Sweden      (Complex polarization propagator (CPP) module)
  Sheela Kirpekar,          Univ. of Southern Denmark,    Denmark     (Mass-velocity & Darwin integrals)
  Wim Klopper,              KIT Karlsruhe,                Germany     (R12 code in CC, SIRIUS, and ABACUS modules)
  Stefan Knecht,            ETH Zurich,                   Switzerland (Parallel CI and MCSCF)
  Rika Kobayashi,           Australian National Univ.,    Australia   (DIIS in CC, London in MCSCF)
  Henrik Koch,              NTNU,                         Norway      (CC module, Cholesky decomposition)
  Jacob Kongsted,           Univ. of Southern Denmark,    Denmark     (Polarizable embedding, QM/MM)
  Andrea Ligabue,           University of Modena,         Italy       (CTOCD, AOSOPPA)
  Ola B. Lutnaes,           University of Oslo,           Norway      (DFT Hessian)
  Juan I. Melo,             University of Buenos Aires,   Argentina   (LRESC, Relativistic Effects on NMR Shieldings)
  Kurt V. Mikkelsen,        University of Copenhagen,     Denmark     (MC-SCRF and QM/MM)
  Rolf H. Myhre,            NTNU,                         Norway      (Cholesky, subsystems and ECC2)
  Christian Neiss,          Univ. Erlangen-Nuernberg,     Germany     (CCSD(R12))
  Christian B. Nielsen,     University of Copenhagen,     Denmark     (QM/MM)
  Patrick Norman,           Linkoeping University,        Sweden      (Cubic response and complex response in RESPONS)
  Jeppe Olsen,              Aarhus University,            Denmark     (SIRIUS CI/density modules)
  Jogvan Magnus H. Olsen,   Univ. of Southern Denmark,    Denmark     (Polarizable embedding, PE library, QM/MM)
  Anders Osted,             Copenhagen University,        Denmark     (QM/MM)
  Martin J. Packer,         University of Sheffield,      UK          (SOPPA)
  Filip Pawlowski,          Kazimierz Wielki University   Poland      (CC3)
  Thomas B. Pedersen,       University of Oslo,           Norway      (Cholesky decomposition)
  Patricio F. Provasi,      University of Northeastern,   Argentina   (Analysis of coupling constants in localized orbitals)
  Zilvinas Rinkevicius,     KTH Stockholm,                Sweden      (open-shell DFT, ESR)
  Elias Rudberg,            KTH Stockholm,                Sweden      (DFT grid and basis info)
  Torgeir A. Ruden,         University of Oslo,           Norway      (Numerical derivatives in ABACUS)
  Kenneth Ruud,             UiT The Arctic U. of Norway,  Norway      (DALTON; ABACUS magnetic properties and  much more)
  Pawel Salek,              KTH Stockholm,                Sweden      (DALTON; DFT code)
  Claire C. M. Samson       University of Karlsruhe       Germany     (Boys localization, r12 integrals in ERI)
  Alfredo Sanchez de Meras, University of Valencia,       Spain       (CC module, Cholesky decomposition)
  Trond Saue,               Paul Sabatier University,     France      (direct Fock matrix construction)
  Stephan P. A. Sauer,      University of Copenhagen,     Denmark     (SOPPA(CCSD), SOPPA prop., AOSOPPA, vibrational g-factors)
  Bernd Schimmelpfennig,    Forschungszentrum Karlsruhe,  Germany     (AMFI module)
  Kristian Sneskov,         Aarhus University,            Denmark     (QM/MM, PE-CC)
  Arnfinn H. Steindal,      UiT The Arctic U. of Norway,  Norway      (parallel QM/MM)
  K. O. Sylvester-Hvid,     University of Copenhagen,     Denmark     (MC-SCRF)
  Peter R. Taylor,          VLSCI/Univ. of Melbourne,     Australia   (Symmetry handling ABACUS, integral transformation)
  Andrew M. Teale,          University of Nottingham,     England     (DFT-AC, DFT-D)
  David P. Tew,             University of Bristol,        England     (CCSD(R12))
  Olav Vahtras,             KTH Stockholm,                Sweden      (triplet response, spin-orbit, ESR, TDDFT, open-shell DFT)
  David J. Wilson,          La Trobe University,          Australia   (DFT Hessian and DFT magnetizabilities)
  Hans Agren,               KTH Stockholm,                Sweden      (SIRIUS module, RESPONS, MC-SCRF solvation model)
 --------------------------------------------------------------------------------

     Date and time (Linux)  : Sun Sep  8 20:38:43 2013
     Host name              : lpqlx131.ups-tlse.fr                    

 * Work memory size             :    64000000 =  488.28 megabytes.

 * Directories for basis set searches:
   1) /home/bast/DALTON-2013.0-Source/build/test_geoopt_cartsad
   2) /home/bast/DALTON-2013.0-Source/build/basis


Compilation information
-----------------------

 Who compiled             | bast
 Host                     | lpqlx131.ups-tlse.fr
 System                   | Linux-3.8.5-201.fc18.x86_64
 CMake generator          | Unix Makefiles
 Processor                | x86_64
 64-bit integers          | OFF
 MPI                      | OFF
 Fortran compiler         | /usr/bin/gfortran
 Fortran compiler version | GNU Fortran (GCC) 4.7.2 20121109 (Red Hat 4.7.2-8)
 C compiler               | /usr/bin/gcc
 C compiler version       | gcc (GCC) 4.7.2 20121109 (Red Hat 4.7.2-8)
 C++ compiler             | /usr/bin/g++
 C++ compiler version     | g++ (GCC) 4.7.2 20121109 (Red Hat 4.7.2-8)
 Static linking           | OFF
 Last Git revision        | f34203295a86316e27f9e7b44f9b6769c4a046c0
 Configuration time       | 2013-09-08 20:31:27.952056


   Content of the .dal input file
 ----------------------------------

**DALTON INPUT                                    
.OPTIMIZE                                         
*OPTIMIZE                                         
.CARTES                                           
.NEWTON                                           
.TRSTRG                                           
.SADDLE                                           
**WAVE FUNCTION                                   
.HF                                               
**END OF DALTON INPUT                             


   Content of the .mol file
 ----------------------------

BASIS                                                                          
STO-3G                                                                         
Second order saddle point optimization in Cartesian coordinates                
                                                                               
Atomtypes=2                                                                    
Charge=6.0 Atoms=2                                                             
C     0.0000000000        0.0000000000        1.4597876282             *       
C     0.0000000000        0.0000000000       -1.4597876282             *       
Atoms=6 Charge=1.0                                                             
H     1.6808445513        0.9704360937        2.1445545504             *       
H    -1.6808445513        0.9704360937        2.1445545504             *       
H     0.0000000000       -1.9408721894        2.1445545504             *       
H    -1.9608445513       -0.4204360937       -2.1445545504             *       
H     1.2008445513       -1.4004360937       -2.1445545504             *       
H     0.4600000000        1.8308721894       -2.1445545504             *       


       *******************************************************************
       *********** Output from DALTON general input processing ***********
       *******************************************************************

 --------------------------------------------------------------------------------
   Overall default print level:    0
   Print level for DALTON.STAT:    1

    "Old" integral transformation used (limited to max 255 basis functions)
 --------------------------------------------------------------------------------


 Chosen parameters for *OPTIMI :
 -------------------------------

 Saddle point optimization has been requested.
 2nd order Newton method will be used.
 Optimization will be performed in Cartesian coordinates.
 No extra (auxiliary) bonds will be added.


 Image function method will be used to control step (default).
 The eigenvector corresponding to the lowest non-zero eigenvalue is chosen
 as reaction mode (default).


              >>>>>>>>>>>>>>>>>>>>>>>>>>>>>>>>>>>>>>>>>>>>>>>>>>>>>
              >>>>>>>>>> 2nd Order Geometry Optimization >>>>>>>>>>
              >>>>>>>>>>>>>>>>>>>>>>>>>>>>>>>>>>>>>>>>>>>>>>>>>>>>>

 Reading .mol file to determine number of atoms for parallel runs.


                      SYMADD: Requested addition of symmetry
                      --------------------------------------

 Symmetry test threshold:  5.00E-06

 - molecule centered at center of mass and rotated so
   principal axes of inertia are along coordinate axes.

 Symmetry class found: C(1)           

 No symmetry elements were found.


   ****************************************************************************
   *************** Output of molecule and basis set information ***************
   ****************************************************************************


    The two title cards from your ".mol" input:
    ------------------------------------------------------------------------
 1: Second order saddle point optimization in Cartesian coordinates         
 2:                                                                         
    ------------------------------------------------------------------------

  Atomic type no.    1
  --------------------
  Nuclear charge:   6.00000
  Number of symmetry independent centers:    2
  Number of basis sets to read;    2
  Basis set file used for this atomic type with Z =   6 :
     "/home/bast/DALTON-2013.0-Source/build/basis/STO-3G"

  Atomic type no.    2
  --------------------
  Nuclear charge:   1.00000
  Number of symmetry independent centers:    6
  Number of basis sets to read;    2
  Basis set file used for this atomic type with Z =   1 :
     "/home/bast/DALTON-2013.0-Source/build/basis/STO-3G"


                      SYMADD: Requested addition of symmetry
                      --------------------------------------

 Symmetry test threshold:  5.00E-06

 - molecule centered at center of mass and rotated so
   principal axes of inertia are along coordinate axes.

 Symmetry class found: C(1)           

 Symmetry Independent Centres             
 ----------------------------
       6 :      0.01663772    -0.01736708    -1.45962422  Isotope  1
       6 :     -0.00270667     0.00282905     1.45981710  Isotope  1
       1 :     -0.09790893    -1.86300733    -2.13241377  Isotope  1
       1 :      1.62930156     0.96663606    -2.14054409  Isotope  1
       1 :     -0.53199044     1.87608310     2.12814956  Isotope  1
       1 :     -1.36307783    -1.38120997     2.14517605  Isotope  1
       1 :      1.87333697    -0.47217539     2.16033220  Isotope  1
       1 :     -1.67553594     1.04677543    -2.16299653  Isotope  1

 No symmetry elements were found.


                         SYMGRP: Point group information
                         -------------------------------

Full point group is: C(1)           
Represented as:      C1 


                                 Isotopic Masses
                                 ---------------

                           C          12.000000
                           C          12.000000
                           H           1.007825
                           H           1.007825
                           H           1.007825
                           H           1.007825
                           H           1.007825
                           H           1.007825

                       Total mass:    30.046950 amu
                       Natural abundance:  97.724 %

 Center-of-mass coordinates (a.u.):    0.000000    0.000000   -0.000000


  Atoms and basis sets
  --------------------

  Number of atom types :    2
  Total number of atoms:    8

  Basis set used is "STO-3G" from the basis set library.

  label    atoms   charge   prim   cont     basis
  ----------------------------------------------------------------------
  C           2    6.0000    15     5      [6s3p|2s1p]                                        
  H           6    1.0000     3     1      [3s|1s]                                            
  ----------------------------------------------------------------------
  total:      8   18.0000    48    16
  ----------------------------------------------------------------------

  Threshold for neglecting AO integrals:  1.00D-12


  Cartesian Coordinates (a.u.)
  ----------------------------

  Total number of coordinates:   24
  C       :     1  x  -0.0027066708    2  y   0.0028290475    3  z   1.4598170969
  C       :     4  x   0.0166377203    5  y  -0.0173670830    6  z  -1.4596242176
  H       :     7  x   1.8733369666    8  y  -0.4721753892    9  z   2.1603322008
  H       :    10  x  -0.5319904431   11  y   1.8760831043   12  z   2.1281495608
  H       :    13  x  -1.3630778315   14  y  -1.3812099707   15  z   2.1451760501
  H       :    16  x  -1.6755359434   17  y   1.0467754267   18  z  -2.1629965315
  H       :    19  x  -0.0979089290   20  y  -1.8630073280   21  z  -2.1324137670
  H       :    22  x   1.6293015559   23  y   0.9666360609   24  z  -2.1405440938


   Interatomic separations (in Angstrom):
   --------------------------------------

            C           C           H           H           H           H     
            ------      ------      ------      ------      ------      ------
 C     :    0.000000
 C     :    1.544973    0.000000
 H     :    1.089114    2.166285    0.000000
 H     :    1.089114    2.166285    1.778929    0.000000
 H     :    1.089114    2.166285    1.778929    1.778929    0.000000
 H     :    2.182685    1.121379    3.067078    2.390650    2.622130    0.000000
 H     :    2.142647    1.041304    2.605782    3.008484    2.374264    1.751623
 H     :    2.153106    1.062658    2.403378    2.577263    3.032241    1.749399

            H           H     
            ------      ------
 H     :    0.000000
 H     :    1.754301    0.000000


  Max    interatomic separation is    3.0671 Angstrom (    5.7959 Bohr)
  between atoms    6 and    3, "H     " and "H     ".

  Min HX interatomic separation is    1.0413 Angstrom (    1.9678 Bohr)

  Min YX interatomic separation is    1.5450 Angstrom (    2.9196 Bohr)


  Bond distances (Angstrom):
  --------------------------

                  atom 1     atom 2       distance
                  ------     ------       --------
  bond distance:  C          C            1.544973
  bond distance:  H          C            1.089114
  bond distance:  H          C            1.089114
  bond distance:  H          C            1.089114
  bond distance:  H          C            1.121379
  bond distance:  H          C            1.041304
  bond distance:  H          C            1.062658


  Bond angles (degrees):
  ----------------------

                  atom 1     atom 2     atom 3         angle
                  ------     ------     ------         -----
  bond angle:     C          C          H            109.434
  bond angle:     C          C          H            109.434
  bond angle:     C          C          H            109.434
  bond angle:     H          C          H            109.509
  bond angle:     H          C          H            109.509
  bond angle:     H          C          H            109.509
  bond angle:     C          C          H            108.853
  bond angle:     C          C          H            110.364
  bond angle:     C          C          H            109.938
  bond angle:     H          C          H            108.121
  bond angle:     H          C          H            106.419
  bond angle:     H          C          H            112.980




 Principal moments of inertia (u*A**2) and principal axes
 --------------------------------------------------------

   IA       6.287965          0.000000    0.000000    1.000000
   IB      25.250957          0.000000    1.000000    0.000000
   IC      25.259306          1.000000    0.000000    0.000000


 Rotational constants
 --------------------

               A                   B                   C

          80372.4312          20014.2520          20007.6362 MHz
            2.680936            0.667604            0.667383 cm-1


@  Nuclear repulsion energy :   42.349123177598 Hartree


                     .---------------------------------------.
                     | Starting in Integral Section (HERMIT) |
                     `---------------------------------------'



    *************************************************************************
    ****************** Output from HERMIT input processing ******************
    *************************************************************************



     ************************************************************************
     ************************** Output from HERINT **************************
     ************************************************************************


 Threshold for neglecting two-electron integrals:  1.00D-12
 Number of two-electron integrals written:        9139 ( 98.1% )
 Megabytes written:                              0.110

 >>>> Total CPU  time used in HERMIT:   0.05 seconds
 >>>> Total wall time used in HERMIT:   0.05 seconds


                        .----------------------------------.
                        | End of Integral Section (HERMIT) |
                        `----------------------------------'



                   .--------------------------------------------.
                   | Starting in Wave Function Section (SIRIUS) |
                   `--------------------------------------------'


 *** Output from Huckel module :

     Using EWMO model:          T
     Using EHT  model:          F
     Number of Huckel orbitals each symmetry:   16

 EWMO - Energy Weighted Maximum Overlap - is a Huckel type method,
        which normally is better than Extended Huckel Theory.
 Reference: Linderberg and Ohrn, Propagators in Quantum Chemistry (Wiley, 1973)

 Huckel EWMO eigenvalues for symmetry :  1
          -11.354188     -11.348242      -1.678025      -1.137575      -0.808694
           -0.798551      -0.525972      -0.520010      -0.518395      -0.143671
           -0.133751      -0.127061      -0.122544      -0.113585      -0.109221
           -0.102916

 **********************************************************************
 *SIRIUS* a direct, restricted step, second order MCSCF program       *
 **********************************************************************

 
     Date and time (Linux)  : Sun Sep  8 20:38:43 2013
     Host name              : lpqlx131.ups-tlse.fr                    

 Title lines from ".mol" input file:
     Second order saddle point optimization in Cartesian coordinates         
                                                                             

 Print level on unit LUPRI =   2 is   0
 Print level on unit LUW4  =   2 is   5

@    Restricted, closed shell Hartree-Fock calculation.

 Initial molecular orbitals are obtained according to
 ".MOSTART EWMO  " input option

     Wave function specification
     ============================
@    For the wave function of type :      >>> HF <<<
@    Number of closed shell electrons          18
@    Number of electrons in active shells       0
@    Total charge of the molecule               0

@    Spin multiplicity and 2 M_S                1         0
     Total number of symmetries                 1
@    Reference state symmetry                   1

     Orbital specifications
     ======================
     Abelian symmetry species          All |    1
                                       --- |  ---
@    Occupied SCF orbitals               9 |    9
     Secondary orbitals                  7 |    7
     Total number of orbitals           16 |   16
     Number of basis functions          16 |   16

     Optimization information
     ========================
@    Number of configurations                 1
@    Number of orbital rotations             63
     ------------------------------------------
@    Total number of variables               64

     Maximum number of Fock   iterations      0
     Maximum number of DIIS   iterations     60
     Maximum number of QC-SCF iterations     60
     Threshold for SCF convergence     1.00D-05


 >>>>> DIIS optimization of Hartree-Fock <<<<<

 C1-DIIS algorithm; max error vectors =   10

 Iter      Total energy        Error norm    Delta(E)  DIIS dim.
 -----------------------------------------------------------------------------
     (Precalculated two-electron integrals are transformed to P-supermatrix elements.
      Threshold for discarding integrals :  1.00D-12 )
@  1    -78.2017199301        1.16362D+00   -7.82D+01    1
      Virial theorem: -V/T =      2.015987
@      MULPOP C       0.38; C       0.38; H      -0.13; H      -0.13; H      -0.13; H      -0.14; H      -0.12; H      -0.12; 
 -----------------------------------------------------------------------------
@  2    -78.2979510114        1.83985D-01   -9.62D-02    2
      Virial theorem: -V/T =      2.006348
@      MULPOP C      -0.25; C      -0.26; H       0.08; H       0.08; H       0.08; H       0.08; H       0.09; H       0.09; 
 -----------------------------------------------------------------------------
@  3    -78.3007271744        2.91112D-02   -2.78D-03    3
      Virial theorem: -V/T =      2.008077
@      MULPOP C      -0.16; C      -0.18; H       0.05; H       0.06; H       0.06; H       0.05; H       0.07; H       0.06; 
 -----------------------------------------------------------------------------
@  4    -78.3008075106        4.04889D-03   -8.03D-05    4
      Virial theorem: -V/T =      2.007793
@      MULPOP C      -0.17; C      -0.18; H       0.06; H       0.06; H       0.06; H       0.05; H       0.07; H       0.06; 
 -----------------------------------------------------------------------------
@  5    -78.3008092261        1.74141D-04   -1.72D-06    5
      Virial theorem: -V/T =      2.007754
@      MULPOP C      -0.17; C      -0.18; H       0.06; H       0.06; H       0.06; H       0.05; H       0.07; H       0.06; 
 -----------------------------------------------------------------------------
@  6    -78.3008092289        3.90649D-05   -2.81D-09    6
      Virial theorem: -V/T =      2.007754
@      MULPOP C      -0.17; C      -0.18; H       0.06; H       0.06; H       0.06; H       0.05; H       0.07; H       0.06; 
 -----------------------------------------------------------------------------
@  7    -78.3008092291        6.21811D-06   -1.74D-10    7

@ *** DIIS converged in   7 iterations !
@     Converged SCF energy, gradient:    -78.300809229105    6.22D-06
    - total time used in SIRFCK :              0.00 seconds


 *** SCF orbital energy analysis ***

 Only the five lowest virtual orbital energies printed in each symmetry.

 Number of electrons :   18
 Orbital occupations :    9

 Sym       Hartree-Fock orbital energies

  1    -11.03482014   -11.03332150    -0.98211973    -0.81150564    -0.58422666
        -0.56824915    -0.47076255    -0.46459929    -0.45337108     0.63907173
         0.67421175     0.67691471     0.72806778     0.77379610

    E(LUMO) :     0.63907173 au (symmetry 1)
  - E(HOMO) :    -0.45337108 au (symmetry 1)
  ------------------------------------------
    gap     :     1.09244281 au

 >>> Writing SIRIFC interface file <<<

 >>>> CPU and wall time for SCF :       0.004       0.004


                       .-----------------------------------.
                       | >>> Final results from SIRIUS <<< |
                       `-----------------------------------'


@    Spin multiplicity:           1
@    Spatial symmetry:            1
@    Total charge of molecule:    0

@    Final HF energy:             -78.300809229105                 
@    Nuclear repulsion:            42.349123177598
@    Electronic energy:          -120.649932406703

@    Final gradient norm:           0.000006218107

 
     Date and time (Linux)  : Sun Sep  8 20:38:43 2013
     Host name              : lpqlx131.ups-tlse.fr                    

 (Only coefficients >0.0100 are printed.)

 Molecular orbitals for symmetry species  1
 ------------------------------------------

    Orbital         1        2        3        4        5        6        7
   1 C   :1s    -0.9861   0.1080   0.1622   0.1495   0.0005  -0.0008  -0.0029
   2 C   :1s    -0.0380  -0.0015  -0.4454  -0.4503  -0.0016   0.0026   0.0128
   3 C   :2px   -0.0000  -0.0000  -0.0007   0.0015   0.1504   0.3807  -0.1756
   4 C   :2py    0.0000   0.0001   0.0007  -0.0018   0.3262  -0.1757  -0.3995
   5 C   :2pz    0.0003   0.0042   0.0619  -0.1397  -0.0077   0.0163  -0.0945
   6 C   :1s     0.1070   0.9861   0.1681  -0.1434  -0.0012   0.0018  -0.0040
   7 C   :1s     0.0097   0.0373  -0.4598   0.4286   0.0070  -0.0116   0.0205
   8 C   :2px   -0.0000   0.0001  -0.0036   0.0084   0.1786   0.3471   0.1395
   9 C   :2py    0.0000  -0.0002   0.0045  -0.0106   0.3941  -0.1569   0.3341
  10 C   :2pz    0.0041  -0.0009  -0.0563  -0.1505   0.0033  -0.0069   0.0940
  11 H   :1s     0.0069  -0.0007  -0.1092  -0.1705   0.0488   0.3310  -0.0916
  12 H   :1s     0.0069  -0.0007  -0.1090  -0.1715   0.2084  -0.2119  -0.3429
  13 H   :1s     0.0069  -0.0007  -0.1092  -0.1709  -0.2645  -0.1057   0.3565
  14 H   :1s    -0.0008  -0.0067  -0.1058   0.1515   0.0461  -0.2985   0.0301
  15 H   :1s    -0.0009  -0.0074  -0.1226   0.1809  -0.3125   0.1073  -0.3450
  16 H   :1s    -0.0009  -0.0072  -0.1178   0.1719   0.2758   0.1723   0.2528

    Orbital         8        9       10       11
   1 C   :1s     0.0181   0.0060  -0.0175   0.0380
   2 C   :1s    -0.0784  -0.0253   0.1047  -0.2123
   3 C   :2px   -0.1307   0.3295  -0.4863  -0.4762
   4 C   :2py   -0.0181  -0.1655   0.3612  -0.5592
   5 C   :2pz    0.5180   0.1405  -0.0796   0.5043
   6 C   :1s     0.0204   0.0050  -0.0245  -0.0349
   7 C   :1s    -0.0907  -0.0144   0.1350   0.1960
   8 C   :2px    0.1242  -0.3768  -0.7001  -0.2709
   9 C   :2py    0.0177   0.1789   0.3477  -0.4351
  10 C   :2pz   -0.5176  -0.1421  -0.1868   0.5109
  11 H   :1s     0.0265   0.3874   0.5572   0.2345
  12 H   :1s     0.1501  -0.2046  -0.4952   0.3428
  13 H   :1s     0.2382  -0.0760  -0.1199  -0.7628
  14 H   :1s     0.0373   0.4381  -0.8763   0.0512
  15 H   :1s     0.1149  -0.1156   0.2065  -0.3730
  16 H   :1s     0.2452  -0.1830   0.3020   0.5395



 >>>> Total CPU  time used in SIRIUS :      0.01 seconds
 >>>> Total wall time used in SIRIUS :      0.01 seconds

 
     Date and time (Linux)  : Sun Sep  8 20:38:43 2013
     Host name              : lpqlx131.ups-tlse.fr                    


                     .---------------------------------------.
                     | End of Wave Function Section (SIRIUS) |
                     `---------------------------------------'


     Order of analytical energy-derivatives available:   2
     This will be the default.

 Center of mass dipole origin  :    0.000000    0.000000   -0.000000

 Center of mass gauge origin   :    0.000000    0.000000   -0.000000


                 .------------------------------------------------.
                 | Starting in Static Property Section (ABACUS) - |
                 `------------------------------------------------'


 
     Date and time (Linux)  : Sun Sep  8 20:38:43 2013
     Host name              : lpqlx131.ups-tlse.fr                    

 Largest deviation from tra-rot symmetry is in gradient element  2:  2.74E-07


   ***************************************************************************
   ************************ FINAL RESULTS from ABACUS ************************
   ***************************************************************************


 
     Date and time (Linux)  : Sun Sep  8 20:38:43 2013
     Host name              : lpqlx131.ups-tlse.fr                    


                             Molecular geometry (au)
                             -----------------------

 C         -0.0027066708            0.0028290475            1.4598170969
 C          0.0166377203           -0.0173670830           -1.4596242176
 H          1.8733369666           -0.4721753892            2.1603322008
 H         -0.5319904431            1.8760831043            2.1281495608
 H         -1.3630778315           -1.3812099707            2.1451760501
 H         -1.6755359434            1.0467754267           -2.1629965315
 H         -0.0979089290           -1.8630073280           -2.1324137670
 H          1.6293015559            0.9666360609           -2.1405440938





                        Molecular wave function and energy
                        ----------------------------------

     Spin multiplicity  1     State number       1     Total charge       0

     Total energy        -78.3008092291 au (Hartrees)
                         -2130.67340388 eV
                           -205578.7429 kJ/mol


                             Relativistic corrections
                             ------------------------

     Darwin correction:                          0.0776961559 au
     Mass-velocity correction:                  -0.0979722738 au

     Total relativistic correction:             -0.0202761180 au (0.0259%)
     Non-relativistic + relativistic energy:   -78.3210853471 au




                             Molecular gradient (au)
                             -----------------------

 C         -0.0008249658            0.0008938779            0.0094242554
 C          0.0481357226           -0.0555157754           -0.0223323080
 H          0.0046621303           -0.0001458098           -0.0035156792
 H         -0.0024080461            0.0043832186           -0.0033035028
 H         -0.0026840888           -0.0040251661           -0.0032114528
 H         -0.0221864728            0.0177701139           -0.0078660041
 H         -0.0048044934            0.0400805785            0.0196774650
 H         -0.0198897859           -0.0034410376            0.0111272264





                              Molecular Hessian (au)
                              ----------------------

           C   x       C   y       C   z       C   x       C   y       C   z 

 C   x     0.862501
 C   y     0.000963    0.864354
 C   z     0.000972   -0.001177    0.701424

 C   x    -0.121263   -0.003604    0.002050    0.821231
 C   y     0.000065   -0.124500   -0.002475    0.091444    0.987527
 C   z     0.000765   -0.000722   -0.316909   -0.039297    0.048597    0.703804

 H   x    -0.395916    0.079451   -0.115087    0.006973   -0.001623    0.004562
 H   y     0.078356   -0.103500    0.027969   -0.001921    0.000958   -0.000037
 H   z    -0.115549    0.028825   -0.115815   -0.042863    0.013426   -0.014834

 H   x    -0.108597    0.088824    0.032196    0.000664   -0.001618   -0.002473
 H   y     0.087634   -0.395382   -0.109156   -0.001746    0.006812    0.004033
 H   z     0.031538   -0.109398   -0.111728    0.009244   -0.044140   -0.013857

 H   x    -0.247839   -0.166707    0.080840    0.003685    0.003217   -0.002411
 H   y    -0.167770   -0.253918    0.083766    0.003872    0.003989   -0.004107
 H   z     0.081364    0.083426   -0.114198    0.033316    0.030811   -0.014051

 H   x     0.004828   -0.002877    0.002781   -0.280042    0.116298   -0.073948
 H   y    -0.002951    0.001920   -0.003025    0.117339   -0.168185    0.047178
 H   z    -0.039166    0.020813   -0.014184   -0.076916    0.048204   -0.113343

 H   x     0.000248    0.000529    0.001234   -0.066161   -0.029760   -0.009648
 H   y     0.000128    0.008663    0.005295   -0.028162   -0.523908   -0.165409
 H   z     0.001212   -0.045946   -0.014351   -0.008806   -0.165992   -0.115380

 H   x     0.006040    0.003421   -0.004986   -0.365086   -0.178021    0.122451
 H   y     0.003575    0.002363   -0.001198   -0.177222   -0.182693    0.070468
 H   z     0.038864    0.024180   -0.014240    0.123271    0.071569   -0.115429


           H   x       H   y       H   z       H   x       H   y       H   z 

 H   x     0.405932
 H   y    -0.084823    0.091831
 H   z     0.123284   -0.032051    0.120890

 H   x    -0.003049    0.037487    0.017056    0.097365
 H   y    -0.005170   -0.001846   -0.002948   -0.094678    0.405061
 H   z    -0.003471    0.017525    0.006248   -0.032130    0.117472    0.116874

 H   x    -0.016220   -0.029615    0.016735    0.011934    0.013687   -0.006223
 H   y     0.012795    0.011167   -0.005598   -0.029137   -0.016571    0.016560
 H   z    -0.011538   -0.013873    0.006450   -0.012973   -0.011340    0.006091

 H   x     0.000925    0.000184    0.001133    0.000760   -0.000164    0.000331
 H   y    -0.000158    0.000934   -0.001414   -0.000915    0.001031   -0.000374
 H   z     0.001906    0.000112   -0.008131   -0.000246    0.000498    0.003377

 H   x    -0.000002   -0.000117    0.000453    0.001012    0.000190    0.000910
 H   y    -0.000312    0.000126    0.000051   -0.000061    0.000614    0.001995
 H   z     0.000082    0.000449    0.001337   -0.001002    0.001572   -0.008369

 H   x     0.001357    0.000449   -0.000250   -0.000089    0.000247   -0.000199
 H   y    -0.000160    0.000329   -0.000291    0.000098    0.000281    0.000361
 H   z     0.000262   -0.000094    0.003856   -0.000428   -0.000131    0.001364


           H   x       H   y       H   z       H   x       H   y       H   z 

 H   x     0.246831
 H   y     0.179516    0.253303
 H   z    -0.088052   -0.088437    0.118954

 H   x     0.000310    0.000056   -0.000240    0.289413
 H   y     0.000029   -0.000127   -0.000299   -0.129561    0.162797
 H   z     0.000332   -0.000261    0.001317    0.083481   -0.051013    0.118103

 H   x     0.000488    0.000725    0.000047    0.005809    0.036943    0.016126
 H   y     0.000123    0.001259    0.000422   -0.007509   -0.012244   -0.008180
 H   z    -0.000325   -0.000206    0.003793    0.001414    0.017821    0.006449

 H   x     0.000812   -0.000057   -0.001924   -0.022002   -0.020726    0.014483
 H   y    -0.000250    0.000898   -0.000710    0.023574    0.013876   -0.010173
 H   z    -0.000896   -0.001716   -0.008356   -0.014953   -0.008874    0.006411


           H   x       H   y       H   z       H   x       H   y       H   z 

 H   x     0.052844
 H   y     0.027172    0.533085
 H   z     0.008912    0.173099    0.119821

 H   x     0.005763    0.008621   -0.001487    0.373207
 H   y    -0.035681   -0.007596    0.019203    0.186066    0.172541
 H   z    -0.018033   -0.007274    0.006702   -0.128088   -0.077660    0.119693





                                  Dipole moment
                                  -------------

                 au               Debye          C m (/(10**-30)
              0.002176           0.005531           0.018451


                             Dipole moment components
                             ------------------------

                 au               Debye          C m (/(10**-30)

      x     -0.00061931        -0.00157412        -0.00525069
      y      0.00182453         0.00463750         0.01546904
      z     -0.00101163        -0.00257130        -0.00857694


   Units:   1 a.u. =   2.54175 Debye 
            1 a.u. =   8.47835 (10**-30) C m (SI)




   Interatomic separations (in Angstrom):
   --------------------------------------

            C           C           H           H           H           H     
            ------      ------      ------      ------      ------      ------
 C     :    0.000000
 C     :    1.544973    0.000000
 H     :    1.089114    2.166285    0.000000
 H     :    1.089114    2.166285    1.778929    0.000000
 H     :    1.089114    2.166285    1.778929    1.778929    0.000000
 H     :    2.182685    1.121379    3.067078    2.390650    2.622130    0.000000
 H     :    2.142647    1.041304    2.605782    3.008484    2.374264    1.751623
 H     :    2.153106    1.062658    2.403378    2.577263    3.032241    1.749399

            H           H     
            ------      ------
 H     :    0.000000
 H     :    1.754301    0.000000


  Max    interatomic separation is    3.0671 Angstrom (    5.7959 Bohr)
  between atoms    6 and    3, "H     " and "H     ".

  Min HX interatomic separation is    1.0413 Angstrom (    1.9678 Bohr)

  Min YX interatomic separation is    1.5450 Angstrom (    2.9196 Bohr)


  Bond distances (Angstrom):
  --------------------------

                  atom 1     atom 2       distance
                  ------     ------       --------
  bond distance:  C          C            1.544973
  bond distance:  H          C            1.089114
  bond distance:  H          C            1.089114
  bond distance:  H          C            1.089114
  bond distance:  H          C            1.121379
  bond distance:  H          C            1.041304
  bond distance:  H          C            1.062658


  Bond angles (degrees):
  ----------------------

                  atom 1     atom 2     atom 3         angle
                  ------     ------     ------         -----
  bond angle:     C          C          H            109.434
  bond angle:     C          C          H            109.434
  bond angle:     C          C          H            109.434
  bond angle:     H          C          H            109.509
  bond angle:     H          C          H            109.509
  bond angle:     H          C          H            109.509
  bond angle:     C          C          H            108.853
  bond angle:     C          C          H            110.364
  bond angle:     C          C          H            109.938
  bond angle:     H          C          H            108.121
  bond angle:     H          C          H            106.419
  bond angle:     H          C          H            112.980




 CPU time statistics for ABACUS
 ------------------------------




 >>>> Total CPU  time used in ABACUS:   0.50 seconds
 >>>> Total wall time used in ABACUS:   0.50 seconds


                   .-------------------------------------------.
                   | End of Static Property Section (ABACUS) - |
                   `-------------------------------------------'


 Predicted energy change       -0.003317257633242


  Step in diagonal representation
  -------------------------------


               Column   1     Column   2     Column   3     Column   4     Column   5
       1       0.48012519    -0.00253444    -0.00322862    -0.09704258     0.04742549

               Column   6     Column   7     Column   8     Column   9     Column  10
       1       0.01603972    -0.02196195    -0.01152019     0.00924366     0.00059662

               Column  11     Column  12     Column  13     Column  14     Column  15
       1      -0.02656286     0.01328682    -0.00244146    -0.03816830    -0.04283517

               Column  16     Column  17     Column  18
       1       0.01297111     0.04088020     0.02875847
    ==== End of matrix output ====


           :::::::::::::::::::::::::::::::::::::::::::::::::::::::::::
           ::::::::::::::: Optimization Control Center :::::::::::::::
           :::::::::::::::::::::::::::::::::::::::::::::::::::::::::::



                                Next geometry (au)
                                ------------------

 C         -0.0096251221            0.0162362995            1.4566055984
 C         -0.0172451758            0.0316722092           -1.4571794923
 H          1.8930657366           -0.2785885963            2.1887799902
 H         -0.7179980138            1.8043660186            2.2011495237
 H         -1.2145492005           -1.4964903280            2.1723077348
 H         -1.5647120354            1.1755669107           -2.1675825595
 H         -0.2825855911           -1.8656592418           -2.1850935721
 H          1.7617058271            0.7714605966           -2.2110909245





                             Optimization information
                             ------------------------

 Iteration number               :       0
 End of optimization            :       F 
 Energy at this geometry is     :     -78.300809
 Norm of gradient               :       0.097518
 Norm of step                   :       0.500008
 Updated trust radius           :       0.500000
 Total Hessian index            :       0




 **************************************************************************************
 ****************** Output of molecule and basis set info suppressed ******************
 **************************************************************************************



                     .---------------------------------------.
                     | Starting in Integral Section (HERMIT) |
                     `---------------------------------------'



    *************************************************************************
    ****************** Output from HERMIT input processing ******************
    *************************************************************************


 Threshold for neglecting two-electron integrals:  1.00D-12
 Number of two-electron integrals written:        9137 ( 98.1% )
 Megabytes written:                              0.110

 >>>> Total CPU  time used in HERMIT:   0.05 seconds
 >>>> Total wall time used in HERMIT:   0.05 seconds


                        .----------------------------------.
                        | End of Integral Section (HERMIT) |
                        `----------------------------------'



                   .--------------------------------------------.
                   | Starting in Wave Function Section (SIRIUS) |
                   `--------------------------------------------'


 **********************************************************************
 *SIRIUS* a direct, restricted step, second order MCSCF program       *
 **********************************************************************

 (Wave function specification suppressed here, see output above for initial geometry.)


 >>>>> DIIS optimization of Hartree-Fock <<<<<

 C1-DIIS algorithm; max error vectors =   10

 Iter      Total energy        Error norm    Delta(E)  DIIS dim.
 -----------------------------------------------------------------------------
     (Precalculated two-electron integrals are transformed to P-supermatrix elements.
      Threshold for discarding integrals :  1.00D-12 )
@  1    -78.2991007228        1.76711D-01    1.71D-03    1
      Virial theorem: -V/T =      2.008177
@      MULPOP C      -0.17; C      -0.18; H       0.06; H       0.06; H       0.06; H       0.06; H       0.06; H       0.06; 
 -----------------------------------------------------------------------------
@  2    -78.3033103769        5.63567D-02   -4.21D-03    2
      Virial theorem: -V/T =      2.008333
@      MULPOP C      -0.17; C      -0.17; H       0.06; H       0.06; H       0.06; H       0.06; H       0.06; H       0.06; 
 -----------------------------------------------------------------------------
@  3    -78.3037990616        2.80952D-03   -4.89D-04    3
      Virial theorem: -V/T =      2.008284
@      MULPOP C      -0.17; C      -0.18; H       0.06; H       0.06; H       0.06; H       0.06; H       0.06; H       0.06; 
 -----------------------------------------------------------------------------
@  4    -78.3037998040        4.66581D-04   -7.42D-07    4
      Virial theorem: -V/T =      2.008304
@      MULPOP C      -0.17; C      -0.17; H       0.06; H       0.06; H       0.06; H       0.06; H       0.06; H       0.06; 
 -----------------------------------------------------------------------------
@  5    -78.3037998289        5.30590D-05   -2.48D-08    5
      Virial theorem: -V/T =      2.008303
@      MULPOP C      -0.17; C      -0.17; H       0.06; H       0.06; H       0.06; H       0.06; H       0.06; H       0.06; 
 -----------------------------------------------------------------------------
@  6    -78.3037998292        7.34441D-06   -3.30D-10    6

@ *** DIIS converged in   6 iterations !
@     Converged SCF energy, gradient:    -78.303799829218    7.34D-06
    - total time used in SIRFCK :              0.00 seconds


 *** SCF orbital energy analysis ***

 Only the five lowest virtual orbital energies printed in each symmetry.

 Number of electrons :   18
 Orbital occupations :    9

 Sym       Hartree-Fock orbital energies

  1    -11.03509129   -11.03464482    -0.97845536    -0.81044030    -0.57074077
        -0.56991207    -0.47014912    -0.45888984    -0.45728812     0.64037233
         0.64237287     0.68396880     0.73006569     0.77827088

    E(LUMO) :     0.64037233 au (symmetry 1)
  - E(HOMO) :    -0.45728812 au (symmetry 1)
  ------------------------------------------
    gap     :     1.09766046 au

 >>> Writing SIRIFC interface file <<<

 >>>> CPU and wall time for SCF :       0.004       0.003


                       .-----------------------------------.
                       | >>> Final results from SIRIUS <<< |
                       `-----------------------------------'


@    Spin multiplicity:           1
@    Spatial symmetry:            1
@    Total charge of molecule:    0

@    Final HF energy:             -78.303799829218                 
@    Nuclear repulsion:            42.146025239674
@    Electronic energy:          -120.449825068891

@    Final gradient norm:           0.000007344415

 
     Date and time (Linux)  : Sun Sep  8 20:38:43 2013
     Host name              : lpqlx131.ups-tlse.fr                    



 >>>> Total CPU  time used in SIRIUS :      0.01 seconds
 >>>> Total wall time used in SIRIUS :      0.00 seconds

 
     Date and time (Linux)  : Sun Sep  8 20:38:43 2013
     Host name              : lpqlx131.ups-tlse.fr                    


                     .---------------------------------------.
                     | End of Wave Function Section (SIRIUS) |
                     `---------------------------------------'

 Trust radius increased due to good ratio.
 Updated trust radius   0.60001

     Order of analytical energy-derivatives available:   2
     This will be the default.

 Center of mass dipole origin  :   -0.014926    0.022845   -0.000281

 Center of mass gauge origin   :   -0.014926    0.022845   -0.000281


                 .------------------------------------------------.
                 | Starting in Static Property Section (ABACUS) - |
                 `------------------------------------------------'


 
     Date and time (Linux)  : Sun Sep  8 20:38:43 2013
     Host name              : lpqlx131.ups-tlse.fr                    


            +---------------------------------------------------------+
            ! Gradient elements calculated directly and from symmetry !
            +---------------------------------------------------------+



        Coordinate    Direct calc.     Tra.-rot. sym.   Difference
        ----------------------------------------------------------

        C    x        0.0009919090     0.0009942381    -0.0000023292
        C    y       -0.0002234240    -0.0002240031     0.0000005791
        C    z       -0.0040063832    -0.0040063832    -0.0000000000
        C    x       -0.0041233700    -0.0041243454     0.0000009755
        C    y       -0.0012836860    -0.0012831069    -0.0000005791
        H    x        0.0038903861     0.0038890324     0.0000013537



 >>> WARNING from TRAROT:

 Largest deviation from tra-rot symmetry is in gradient element  1:  2.33E-06


   ***************************************************************************
   ************************ FINAL RESULTS from ABACUS ************************
   ***************************************************************************


 
     Date and time (Linux)  : Sun Sep  8 20:38:44 2013
     Host name              : lpqlx131.ups-tlse.fr                    

 WARNING: warnings have been issued, please check the output above !


 CPU time statistics for ABACUS
 ------------------------------

 REST       00:00:02     300 %



 >>>> Total CPU  time used in ABACUS:   0.50 seconds
 >>>> Total wall time used in ABACUS:   0.50 seconds


                   .-------------------------------------------.
                   | End of Static Property Section (ABACUS) - |
                   `-------------------------------------------'


 Predicted energy change        0.001859629622176


  Step in diagonal representation
  -------------------------------


               Column   1     Column   2     Column   3     Column   4     Column   5
       1       0.59826409     0.00002603    -0.02652282     0.01152330     0.00520771

               Column   6     Column   7     Column   8     Column   9     Column  10
       1      -0.00495992    -0.01956218    -0.00676425    -0.01860428    -0.00128138

               Column  11     Column  12     Column  13     Column  14     Column  15
       1       0.00538986     0.01764804     0.00374964     0.00604401     0.00018794

               Column  16     Column  17     Column  18
       1      -0.00448376     0.00411896    -0.00118386
    ==== End of matrix output ====


           :::::::::::::::::::::::::::::::::::::::::::::::::::::::::::
           ::::::::::::::: Optimization Control Center :::::::::::::::
           :::::::::::::::::::::::::::::::::::::::::::::::::::::::::::



                                Next geometry (au)
                                ------------------

 C         -0.0120861978            0.0121582350            1.4613885733
 C         -0.0227478581            0.0240142810           -1.4616712704
 H          1.9197338121           -0.0343716133            2.1945924031
 H         -0.9355503052            1.7028063263            2.2059339595
 H         -1.0140884126           -1.6386734648            2.1961697816
 H         -1.4031521141            1.3842636671           -2.1866750274
 H         -0.5150348440           -1.8378446286           -2.2061501604
 H          1.8309823446            0.5462110657           -2.2056919607





                             Optimization information
                             ------------------------

 Iteration number               :       1
 End of optimization            :       F 
 Energy at this geometry is     :     -78.303800
 Energy change from last geom.  :      -0.002991
 Norm of gradient               :       0.014126
 Norm of step                   :       0.600011
 Updated trust radius           :       0.600009
 Total Hessian index            :       0




 **************************************************************************************
 ****************** Output of molecule and basis set info suppressed ******************
 **************************************************************************************



                     .---------------------------------------.
                     | Starting in Integral Section (HERMIT) |
                     `---------------------------------------'



    *************************************************************************
    ****************** Output from HERMIT input processing ******************
    *************************************************************************


 Threshold for neglecting two-electron integrals:  1.00D-12
 Number of two-electron integrals written:        9137 ( 98.1% )
 Megabytes written:                              0.110

 >>>> Total CPU  time used in HERMIT:   0.05 seconds
 >>>> Total wall time used in HERMIT:   0.05 seconds


                        .----------------------------------.
                        | End of Integral Section (HERMIT) |
                        `----------------------------------'



                   .--------------------------------------------.
                   | Starting in Wave Function Section (SIRIUS) |
                   `--------------------------------------------'


 **********************************************************************
 *SIRIUS* a direct, restricted step, second order MCSCF program       *
 **********************************************************************

 (Wave function specification suppressed here, see output above for initial geometry.)


 >>>>> DIIS optimization of Hartree-Fock <<<<<

 C1-DIIS algorithm; max error vectors =   10

 Iter      Total energy        Error norm    Delta(E)  DIIS dim.
 -----------------------------------------------------------------------------
     (Precalculated two-electron integrals are transformed to P-supermatrix elements.
      Threshold for discarding integrals :  1.00D-12 )
@  1    -78.2949483386        2.13799D-01    8.85D-03    1
      Virial theorem: -V/T =      2.008327
@      MULPOP C      -0.17; C      -0.17; H       0.06; H       0.06; H       0.06; H       0.06; H       0.06; H       0.06; 
 -----------------------------------------------------------------------------
@  2    -78.3013199047        7.00284D-02   -6.37D-03    2
      Virial theorem: -V/T =      2.008518
@      MULPOP C      -0.17; C      -0.17; H       0.06; H       0.06; H       0.06; H       0.06; H       0.06; H       0.06; 
 -----------------------------------------------------------------------------
@  3    -78.3020909400        1.24250D-03   -7.71D-04    3
      Virial theorem: -V/T =      2.008498
@      MULPOP C      -0.17; C      -0.17; H       0.06; H       0.06; H       0.06; H       0.06; H       0.06; H       0.06; 
 -----------------------------------------------------------------------------
@  4    -78.3020910677        1.82921D-04   -1.28D-07    4
      Virial theorem: -V/T =      2.008512
@      MULPOP C      -0.17; C      -0.17; H       0.06; H       0.06; H       0.06; H       0.06; H       0.06; H       0.06; 
 -----------------------------------------------------------------------------
@  5    -78.3020910718        1.91079D-05   -4.09D-09    5
      Virial theorem: -V/T =      2.008511
@      MULPOP C      -0.17; C      -0.17; H       0.06; H       0.06; H       0.06; H       0.06; H       0.06; H       0.06; 
 -----------------------------------------------------------------------------
@  6    -78.3020910718        2.61062D-06   -4.50D-11    6

@ *** DIIS converged in   6 iterations !
@     Converged SCF energy, gradient:    -78.302091071803    2.61D-06
    - total time used in SIRFCK :              0.00 seconds


 *** SCF orbital energy analysis ***

 Only the five lowest virtual orbital energies printed in each symmetry.

 Number of electrons :   18
 Orbital occupations :    9

 Sym       Hartree-Fock orbital energies

  1    -11.03488115   -11.03453655    -0.97561510    -0.80902778    -0.56853323
        -0.56791550    -0.46893266    -0.45655498    -0.45573441     0.63032230
         0.63169171     0.68026261     0.72484894     0.77622222

    E(LUMO) :     0.63032230 au (symmetry 1)
  - E(HOMO) :    -0.45573441 au (symmetry 1)
  ------------------------------------------
    gap     :     1.08605670 au

 >>> Writing SIRIFC interface file <<<

 >>>> CPU and wall time for SCF :       0.004       0.004


                       .-----------------------------------.
                       | >>> Final results from SIRIUS <<< |
                       `-----------------------------------'


@    Spin multiplicity:           1
@    Spatial symmetry:            1
@    Total charge of molecule:    0

@    Final HF energy:             -78.302091071803                 
@    Nuclear repulsion:            42.000520337931
@    Electronic energy:          -120.302611409734

@    Final gradient norm:           0.000002610618

 
     Date and time (Linux)  : Sun Sep  8 20:38:44 2013
     Host name              : lpqlx131.ups-tlse.fr                    



 >>>> Total CPU  time used in SIRIUS :      0.01 seconds
 >>>> Total wall time used in SIRIUS :      0.00 seconds

 
     Date and time (Linux)  : Sun Sep  8 20:38:44 2013
     Host name              : lpqlx131.ups-tlse.fr                    


                     .---------------------------------------.
                     | End of Wave Function Section (SIRIUS) |
                     `---------------------------------------'

 Trust radius increased due to good ratio.
 Updated trust radius   0.72001

     Order of analytical energy-derivatives available:   2
     This will be the default.

 Center of mass dipole origin  :   -0.017840    0.018552   -0.000174

 Center of mass gauge origin   :   -0.017840    0.018552   -0.000174


                 .------------------------------------------------.
                 | Starting in Static Property Section (ABACUS) - |
                 `------------------------------------------------'


 
     Date and time (Linux)  : Sun Sep  8 20:38:44 2013
     Host name              : lpqlx131.ups-tlse.fr                    

 Largest deviation from tra-rot symmetry is in gradient element  2:  8.51E-08


   ***************************************************************************
   ************************ FINAL RESULTS from ABACUS ************************
   ***************************************************************************


 
     Date and time (Linux)  : Sun Sep  8 20:38:44 2013
     Host name              : lpqlx131.ups-tlse.fr                    


 CPU time statistics for ABACUS
 ------------------------------

 REST       00:00:01     200 %



 >>>> Total CPU  time used in ABACUS:   0.50 seconds
 >>>> Total wall time used in ABACUS:   0.50 seconds


                   .-------------------------------------------.
                   | End of Static Property Section (ABACUS) - |
                   `-------------------------------------------'


 Predicted energy change        0.001532586800222


  Step in diagonal representation
  -------------------------------


               Column   1     Column   2     Column   3     Column   4     Column   5
       1      -0.71893320     0.00077943     0.00485772    -0.00663725     0.00211361

               Column   6     Column   7     Column   8     Column   9     Column  10
       1      -0.00254544    -0.00240064     0.00113530    -0.00056193     0.00006893

               Column  11     Column  12     Column  13     Column  14     Column  15
       1       0.00018761     0.03632711    -0.00014006    -0.00280775     0.00036751

               Column  16     Column  17     Column  18
       1      -0.01138192     0.00180689    -0.00010995
    ==== End of matrix output ====


           :::::::::::::::::::::::::::::::::::::::::::::::::::::::::::
           ::::::::::::::: Optimization Control Center :::::::::::::::
           :::::::::::::::::::::::::::::::::::::::::::::::::::::::::::



                                Next geometry (au)
                                ------------------

 C         -0.0128183482            0.0133642002            1.4644076588
 C         -0.0243334262            0.0269079163           -1.4649366965
 H          1.9084073918            0.2583410930            2.1997235489
 H         -1.1854167444            1.5468814728            2.2173679468
 H         -0.7542198779           -1.7762631828            2.2002992441
 H         -1.1854383407            1.5797066318           -2.1943675434
 H         -0.7926614907           -1.7467216685           -2.2102889983
 H          1.8945372613            0.2563474056           -2.2143088618





                             Optimization information
                             ------------------------

 Iteration number               :       2
 End of optimization            :       F 
 Energy at this geometry is     :     -78.302091
 Energy change from last geom.  :       0.001709
 Norm of gradient               :       0.019198
 Norm of step                   :       0.720008
 Updated trust radius           :       0.720014
 Total Hessian index            :       0




 **************************************************************************************
 ****************** Output of molecule and basis set info suppressed ******************
 **************************************************************************************



                     .---------------------------------------.
                     | Starting in Integral Section (HERMIT) |
                     `---------------------------------------'



    *************************************************************************
    ****************** Output from HERMIT input processing ******************
    *************************************************************************


 Threshold for neglecting two-electron integrals:  1.00D-12
 Number of two-electron integrals written:        9137 ( 98.1% )
 Megabytes written:                              0.110

 >>>> Total CPU  time used in HERMIT:   0.05 seconds
 >>>> Total wall time used in HERMIT:   0.05 seconds


                        .----------------------------------.
                        | End of Integral Section (HERMIT) |
                        `----------------------------------'



                   .--------------------------------------------.
                   | Starting in Wave Function Section (SIRIUS) |
                   `--------------------------------------------'


 **********************************************************************
 *SIRIUS* a direct, restricted step, second order MCSCF program       *
 **********************************************************************

 (Wave function specification suppressed here, see output above for initial geometry.)


 >>>>> DIIS optimization of Hartree-Fock <<<<<

 C1-DIIS algorithm; max error vectors =   10

 Iter      Total energy        Error norm    Delta(E)  DIIS dim.
 -----------------------------------------------------------------------------
     (Precalculated two-electron integrals are transformed to P-supermatrix elements.
      Threshold for discarding integrals :  1.00D-12 )
@  1    -78.2904900606        2.57735D-01    1.16D-02    1
      Virial theorem: -V/T =      2.008385
@      MULPOP C      -0.17; C      -0.17; H       0.06; H       0.06; H       0.06; H       0.06; H       0.06; H       0.06; 
 -----------------------------------------------------------------------------
@  2    -78.2998418289        8.48587D-02   -9.35D-03    2
      Virial theorem: -V/T =      2.008681
@      MULPOP C      -0.17; C      -0.17; H       0.06; H       0.06; H       0.06; H       0.06; H       0.06; H       0.06; 
 -----------------------------------------------------------------------------
@  3    -78.3009834511        1.20804D-03   -1.14D-03    3
      Virial theorem: -V/T =      2.008677
@      MULPOP C      -0.17; C      -0.17; H       0.06; H       0.06; H       0.06; H       0.06; H       0.06; H       0.06; 
 -----------------------------------------------------------------------------
@  4    -78.3009835707        1.70962D-04   -1.20D-07    4
      Virial theorem: -V/T =      2.008690
@      MULPOP C      -0.17; C      -0.17; H       0.06; H       0.06; H       0.06; H       0.06; H       0.06; H       0.06; 
 -----------------------------------------------------------------------------
@  5    -78.3009835744        1.25010D-05   -3.74D-09    5
      Virial theorem: -V/T =      2.008690
@      MULPOP C      -0.17; C      -0.17; H       0.06; H       0.06; H       0.06; H       0.06; H       0.06; H       0.06; 
 -----------------------------------------------------------------------------
@  6    -78.3009835744        9.76284D-07   -1.20D-11    6

@ *** DIIS converged in   6 iterations !
@     Converged SCF energy, gradient:    -78.300983574406    9.76D-07
    - total time used in SIRFCK :              0.00 seconds


 *** SCF orbital energy analysis ***

 Only the five lowest virtual orbital energies printed in each symmetry.

 Number of electrons :   18
 Orbital occupations :    9

 Sym       Hartree-Fock orbital energies

  1    -11.03489477   -11.03454134    -0.97361291    -0.80772110    -0.56670753
        -0.56662258    -0.46785593    -0.45488864    -0.45473594     0.62512539
         0.62528370     0.67756731     0.72049726     0.77280035

    E(LUMO) :     0.62512539 au (symmetry 1)
  - E(HOMO) :    -0.45473594 au (symmetry 1)
  ------------------------------------------
    gap     :     1.07986133 au

 >>> Writing SIRIFC interface file <<<

 >>>> CPU and wall time for SCF :       0.004       0.003


                       .-----------------------------------.
                       | >>> Final results from SIRIUS <<< |
                       `-----------------------------------'


@    Spin multiplicity:           1
@    Spatial symmetry:            1
@    Total charge of molecule:    0

@    Final HF energy:             -78.300983574406                 
@    Nuclear repulsion:            41.892912804707
@    Electronic energy:          -120.193896379113

@    Final gradient norm:           0.000000976284

 
     Date and time (Linux)  : Sun Sep  8 20:38:45 2013
     Host name              : lpqlx131.ups-tlse.fr                    



 >>>> Total CPU  time used in SIRIUS :      0.00 seconds
 >>>> Total wall time used in SIRIUS :      0.00 seconds

 
     Date and time (Linux)  : Sun Sep  8 20:38:45 2013
     Host name              : lpqlx131.ups-tlse.fr                    


                     .---------------------------------------.
                     | End of Wave Function Section (SIRIUS) |
                     `---------------------------------------'

 Trust radius set equal to norm of step.
 Updated trust radius   0.72001

     Order of analytical energy-derivatives available:   2
     This will be the default.

 Center of mass dipole origin  :   -0.018688    0.020051   -0.000264

 Center of mass gauge origin   :   -0.018688    0.020051   -0.000264


                 .------------------------------------------------.
                 | Starting in Static Property Section (ABACUS) - |
                 `------------------------------------------------'


 
     Date and time (Linux)  : Sun Sep  8 20:38:45 2013
     Host name              : lpqlx131.ups-tlse.fr                    

 Largest deviation from tra-rot symmetry is in gradient element  4:  4.21E-08


   ***************************************************************************
   ************************ FINAL RESULTS from ABACUS ************************
   ***************************************************************************


 
     Date and time (Linux)  : Sun Sep  8 20:38:45 2013
     Host name              : lpqlx131.ups-tlse.fr                    


 CPU time statistics for ABACUS
 ------------------------------

 REST       00:00:01     200 %



 >>>> Total CPU  time used in ABACUS:   0.50 seconds
 >>>> Total wall time used in ABACUS:   0.50 seconds


                   .-------------------------------------------.
                   | End of Static Property Section (ABACUS) - |
                   `-------------------------------------------'


 Predicted energy change       -0.000620910015198


  Step in diagonal representation
  -------------------------------


               Column   1     Column   2     Column   3     Column   4     Column   5
       1       0.08754416    -0.00006977     0.00155989    -0.00205566     0.00021200

               Column   6     Column   7     Column   8     Column   9     Column  10
       1       0.00013918    -0.00098281     0.00083486    -0.00122272     0.00042734

               Column  11     Column  12     Column  13     Column  14     Column  15
       1      -0.00000548    -0.05241002     0.00000500     0.00008916    -0.00025729

               Column  16     Column  17     Column  18
       1       0.01563752     0.00021759    -0.00021834
    ==== End of matrix output ====


           :::::::::::::::::::::::::::::::::::::::::::::::::::::::::::
           ::::::::::::::: Optimization Control Center :::::::::::::::
           :::::::::::::::::::::::::::::::::::::::::::::::::::::::::::



                                Next geometry (au)
                                ------------------

 C         -0.0130906047            0.0132251468            1.4625309966
 C         -0.0248086423            0.0265088203           -1.4630562674
 H          1.8914007070            0.2203806918            2.1951774464
 H         -1.1432940495            1.5513169334            2.2133052887
 H         -0.7786000474           -1.7422212444            2.1967512072
 H         -1.2004077515            1.5415078849           -2.1907058183
 H         -0.7507813201           -1.7415239784           -2.2072928008
 H          1.8676381334            0.2893696140           -2.2088137537





                             Optimization information
                             ------------------------

 Iteration number               :       3
 End of optimization            :       F 
 Energy at this geometry is     :     -78.300984
 Energy change from last geom.  :       0.001107
 Norm of gradient               :       0.025892
 Norm of step                   :       0.103274
 Updated trust radius           :       0.720008
 Total Hessian index            :       0




 **************************************************************************************
 ****************** Output of molecule and basis set info suppressed ******************
 **************************************************************************************



                     .---------------------------------------.
                     | Starting in Integral Section (HERMIT) |
                     `---------------------------------------'



    *************************************************************************
    ****************** Output from HERMIT input processing ******************
    *************************************************************************


 Threshold for neglecting two-electron integrals:  1.00D-12
 Number of two-electron integrals written:        9137 ( 98.1% )
 Megabytes written:                              0.110

 >>>> Total CPU  time used in HERMIT:   0.05 seconds
 >>>> Total wall time used in HERMIT:   0.05 seconds


                        .----------------------------------.
                        | End of Integral Section (HERMIT) |
                        `----------------------------------'



                   .--------------------------------------------.
                   | Starting in Wave Function Section (SIRIUS) |
                   `--------------------------------------------'


 **********************************************************************
 *SIRIUS* a direct, restricted step, second order MCSCF program       *
 **********************************************************************

 (Wave function specification suppressed here, see output above for initial geometry.)


 >>>>> DIIS optimization of Hartree-Fock <<<<<

 C1-DIIS algorithm; max error vectors =   10

 Iter      Total energy        Error norm    Delta(E)  DIIS dim.
 -----------------------------------------------------------------------------
     (Precalculated two-electron integrals are transformed to P-supermatrix elements.
      Threshold for discarding integrals :  1.00D-12 )
@  1    -78.3014303991        3.74272D-02   -4.47D-04    1
      Virial theorem: -V/T =      2.008005
@      MULPOP C      -0.17; C      -0.17; H       0.06; H       0.06; H       0.06; H       0.06; H       0.06; H       0.06; 
 -----------------------------------------------------------------------------
@  2    -78.3015940735        1.09972D-02   -1.64D-04    2
      Virial theorem: -V/T =      2.007985
@      MULPOP C      -0.18; C      -0.18; H       0.06; H       0.06; H       0.06; H       0.06; H       0.06; H       0.06; 
 -----------------------------------------------------------------------------
@  3    -78.3016115481        1.88280D-03   -1.75D-05    3
      Virial theorem: -V/T =      2.008045
@      MULPOP C      -0.18; C      -0.18; H       0.06; H       0.06; H       0.06; H       0.06; H       0.06; H       0.06; 
 -----------------------------------------------------------------------------
@  4    -78.3016120065        1.58055D-04   -4.58D-07    4
      Virial theorem: -V/T =      2.008034
@      MULPOP C      -0.18; C      -0.18; H       0.06; H       0.06; H       0.06; H       0.06; H       0.06; H       0.06; 
 -----------------------------------------------------------------------------
@  5    -78.3016120099        1.93199D-05   -3.41D-09    5
      Virial theorem: -V/T =      2.008034
@      MULPOP C      -0.18; C      -0.18; H       0.06; H       0.06; H       0.06; H       0.06; H       0.06; H       0.06; 
 -----------------------------------------------------------------------------
@  6    -78.3016120099        4.90961D-07   -4.22D-11    6

@ *** DIIS converged in   6 iterations !
@     Converged SCF energy, gradient:    -78.301612009906    4.91D-07
    - total time used in SIRFCK :              0.00 seconds


 *** SCF orbital energy analysis ***

 Only the five lowest virtual orbital energies printed in each symmetry.

 Number of electrons :   18
 Orbital occupations :    9

 Sym       Hartree-Fock orbital energies

  1    -11.03420470   -11.03385225    -0.97771228    -0.81382430    -0.57055758
        -0.57055082    -0.47084800    -0.45865649    -0.45864031     0.63403041
         0.63404892     0.67865004     0.73601630     0.78961178

    E(LUMO) :     0.63403041 au (symmetry 1)
  - E(HOMO) :    -0.45864031 au (symmetry 1)
  ------------------------------------------
    gap     :     1.09267073 au

 >>> Writing SIRIFC interface file <<<

 >>>> CPU and wall time for SCF :       0.004       0.003


                       .-----------------------------------.
                       | >>> Final results from SIRIUS <<< |
                       `-----------------------------------'


@    Spin multiplicity:           1
@    Spatial symmetry:            1
@    Total charge of molecule:    0

@    Final HF energy:             -78.301612009906                 
@    Nuclear repulsion:            42.145456040467
@    Electronic energy:          -120.447068050373

@    Final gradient norm:           0.000000490961

 
     Date and time (Linux)  : Sun Sep  8 20:38:45 2013
     Host name              : lpqlx131.ups-tlse.fr                    



[...]
 H         -0.7558960234           -1.7520295136            2.1970306343
 H         -1.1807445455            1.5565638642           -2.1910006898
 H         -0.7736092209           -1.7320404649           -2.2075498113
 H          1.8708506318            0.2649023878           -2.2091100914





                             Optimization information
                             ------------------------

 Iteration number               :       5
 End of optimization            :       F 
 Energy at this geometry is     :     -78.301605
 Energy change from last geom.  :       0.000007
 Norm of gradient               :       0.000188
 Norm of step                   :       0.000549
 Updated trust radius           :       0.720008
 Total Hessian index            :       1




 **************************************************************************************
 ****************** Output of molecule and basis set info suppressed ******************
 **************************************************************************************



                     .---------------------------------------.
                     | Starting in Integral Section (HERMIT) |
                     `---------------------------------------'



    *************************************************************************
    ****************** Output from HERMIT input processing ******************
    *************************************************************************


 Threshold for neglecting two-electron integrals:  1.00D-12
 Number of two-electron integrals written:        9137 ( 98.1% )
 Megabytes written:                              0.110

 >>>> Total CPU  time used in HERMIT:   0.05 seconds
 >>>> Total wall time used in HERMIT:   0.05 seconds


                        .----------------------------------.
                        | End of Integral Section (HERMIT) |
                        `----------------------------------'



                   .--------------------------------------------.
                   | Starting in Wave Function Section (SIRIUS) |
                   `--------------------------------------------'


 **********************************************************************
 *SIRIUS* a direct, restricted step, second order MCSCF program       *
 **********************************************************************

 (Wave function specification suppressed here, see output above for initial geometry.)


 >>>>> DIIS optimization of Hartree-Fock <<<<<

 C1-DIIS algorithm; max error vectors =   10

 Iter      Total energy        Error norm    Delta(E)  DIIS dim.
 -----------------------------------------------------------------------------
     (Precalculated two-electron integrals are transformed to P-supermatrix elements.
      Threshold for discarding integrals :  1.00D-12 )
@  1    -78.3016053876        2.04315D-04   -2.70D-08    1
      Virial theorem: -V/T =      2.008037
@      MULPOP C      -0.18; C      -0.18; H       0.06; H       0.06; H       0.06; H       0.06; H       0.06; H       0.06; 
 -----------------------------------------------------------------------------
@  2    -78.3016053918        5.42510D-05   -4.22D-09    2
      Virial theorem: -V/T =      2.008037
@      MULPOP C      -0.18; C      -0.18; H       0.06; H       0.06; H       0.06; H       0.06; H       0.06; H       0.06; 
 -----------------------------------------------------------------------------
@  3    -78.3016053922        1.25076D-05   -3.86D-10    3
      Virial theorem: -V/T =      2.008037
@      MULPOP C      -0.18; C      -0.18; H       0.06; H       0.06; H       0.06; H       0.06; H       0.06; H       0.06; 
 -----------------------------------------------------------------------------
@  4    -78.3016053922        1.29840D-06   -2.18D-11    4

@ *** DIIS converged in   4 iterations !
@     Converged SCF energy, gradient:    -78.301605392189    1.30D-06
    - total time used in SIRFCK :              0.00 seconds


 *** SCF orbital energy analysis ***

 Only the five lowest virtual orbital energies printed in each symmetry.

 Number of electrons :   18
 Orbital occupations :    9

 Sym       Hartree-Fock orbital energies

  1    -11.03421407   -11.03386175    -0.97769972    -0.81380393    -0.57051263
        -0.57051260    -0.47091710    -0.45859495    -0.45859493     0.63388454
         0.63388460     0.67877719     0.73600833     0.78953413

    E(LUMO) :     0.63388454 au (symmetry 1)
  - E(HOMO) :    -0.45859493 au (symmetry 1)
  ------------------------------------------
    gap     :     1.09247947 au

 >>> Writing SIRIFC interface file <<<

 >>>> CPU and wall time for SCF :       0.002       0.003


                       .-----------------------------------.
                       | >>> Final results from SIRIUS <<< |
                       `-----------------------------------'


@    Spin multiplicity:           1
@    Spatial symmetry:            1
@    Total charge of molecule:    0

@    Final HF energy:             -78.301605392189                 
@    Nuclear repulsion:            42.144517352863
@    Electronic energy:          -120.446122745052

@    Final gradient norm:           0.000001298399

 
     Date and time (Linux)  : Sun Sep  8 20:38:46 2013
     Host name              : lpqlx131.ups-tlse.fr                    



 >>>> Total CPU  time used in SIRIUS :      0.00 seconds
 >>>> Total wall time used in SIRIUS :      0.00 seconds

 
     Date and time (Linux)  : Sun Sep  8 20:38:46 2013
     Host name              : lpqlx131.ups-tlse.fr                    


                     .---------------------------------------.
                     | End of Wave Function Section (SIRIUS) |
                     `---------------------------------------'

 Trust radius squarely increased due to very good ratio.
 Updated trust radius   0.72001

     Order of analytical energy-derivatives available:   2
     This will be the default.

 Center of mass dipole origin  :   -0.018993    0.019820   -0.000263

 Center of mass gauge origin   :   -0.018993    0.019820   -0.000263


                 .------------------------------------------------.
                 | Starting in Static Property Section (ABACUS) - |
                 `------------------------------------------------'


 
     Date and time (Linux)  : Sun Sep  8 20:38:46 2013
     Host name              : lpqlx131.ups-tlse.fr                    

 Largest deviation from tra-rot symmetry is in gradient element  4:  2.28E-10


   ***************************************************************************
   ************************ FINAL RESULTS from ABACUS ************************
   ***************************************************************************


 
     Date and time (Linux)  : Sun Sep  8 20:38:47 2013
     Host name              : lpqlx131.ups-tlse.fr                    


 CPU time statistics for ABACUS
 ------------------------------

 REST       00:00:02     398 %



 >>>> Total CPU  time used in ABACUS:   0.50 seconds
 >>>> Total wall time used in ABACUS:   0.50 seconds


                   .-------------------------------------------.
                   | End of Static Property Section (ABACUS) - |
                   `-------------------------------------------'


 Predicted energy change        0.000000000003340


  Step in diagonal representation
  -------------------------------


               Column   1     Column   2     Column   3     Column   4     Column   5
       1    -4.744015D-05   3.422345D-07   3.195076D-07   1.180370D-06   3.139723D-08

               Column   6     Column   7     Column   8     Column   9     Column  10
       1    -1.322724D-08   1.164272D-07   7.930483D-10  -1.565458D-08  -5.013806D-08

               Column  11     Column  12     Column  13     Column  14     Column  15
       1     1.843487D-08  -2.903284D-07   6.028621D-09   1.083505D-06   4.402073D-08

               Column  16     Column  17     Column  18
       1     3.613288D-08  -1.175750D-08  -1.731790D-08
    ==== End of matrix output ====


           :::::::::::::::::::::::::::::::::::::::::::::::::::::::::::
           ::::::::::::::: Optimization Control Center :::::::::::::::
           :::::::::::::::::::::::::::::::::::::::::::::::::::::::::::



                               Final geometry (au)
                               -------------------

 C         -0.0131207236            0.0131867331            1.4624276338
 C         -0.0248651439            0.0264542583           -1.4629535509
 H          1.8885294909            0.2449588482            2.1954716543
 H         -1.1630880405            1.5365677554            2.2135805197
 H         -0.7558960234           -1.7520295136            2.1970306343
 H         -1.1807445455            1.5565638642           -2.1910006898
 H         -0.7736092209           -1.7320404649           -2.2075498113
 H          1.8708506318            0.2649023878           -2.2091100914





                             Optimization information
                             ------------------------

 Iteration number               :       6
 End of optimization            :       T 
 Energy at this geometry is     :     -78.301605
 Energy change from last geom.  :      -0.000000
 Norm of gradient               :       0.000001
 Norm of step                   :       0.000047
 Updated trust radius           :       0.720008
 Total Hessian index            :       1



 Center of mass dipole origin  :   -0.018993    0.019820   -0.000263

 Center of mass gauge origin   :   -0.018993    0.019820   -0.000263


                 .------------------------------------------------.
                 | Starting in Static Property Section (ABACUS) - |
                 `------------------------------------------------'


 
     Date and time (Linux)  : Sun Sep  8 20:38:47 2013
     Host name              : lpqlx131.ups-tlse.fr                    


   ***************************************************************************
   ************************ FINAL RESULTS from ABACUS ************************
   ***************************************************************************


 
     Date and time (Linux)  : Sun Sep  8 20:38:47 2013
     Host name              : lpqlx131.ups-tlse.fr                    


                             Molecular geometry (au)
                             -----------------------

 C         -0.0131207236            0.0131867331            1.4624276338
 C         -0.0248651439            0.0264542583           -1.4629535509
 H          1.8885294909            0.2449588482            2.1954716543
 H         -1.1630880405            1.5365677554            2.2135805197
 H         -0.7558960234           -1.7520295136            2.1970306343
 H         -1.1807445455            1.5565638642           -2.1910006898
 H         -0.7736092209           -1.7320404649           -2.2075498113
 H          1.8708506318            0.2649023878           -2.2091100914





                        Molecular wave function and energy
                        ----------------------------------

     Spin multiplicity  1     State number       1     Total charge       0

     Total energy        -78.3016053922 au (Hartrees)
                         -2130.69506858 eV
                           -205580.8333 kJ/mol


                             Relativistic corrections
                             ------------------------

     Darwin correction:                          0.0776903113 au
     Mass-velocity correction:                  -0.0979614392 au

     Total relativistic correction:             -0.0202711279 au (0.0259%)
     Non-relativistic + relativistic energy:   -78.3218765201 au




                                  Dipole moment
                                  -------------

                 au               Debye          C m (/(10**-30)
              0.000000           0.000000           0.000000


                             Dipole moment components
                             ------------------------

                 au               Debye          C m (/(10**-30)

      x     -0.00000001        -0.00000002        -0.00000006
      y     -0.00000001        -0.00000002        -0.00000006
      z     -0.00000000        -0.00000000        -0.00000000


   Units:   1 a.u. =   2.54175 Debye 
            1 a.u. =   8.47835 (10**-30) C m (SI)




   Interatomic separations (in Angstrom):
   --------------------------------------

            C           C           H           H           H           H     
            ------      ------      ------      ------      ------      ------
 C     :    0.000000
 C     :    1.548073    0.000000
 H     :    1.085438    2.187807    0.000000
 H     :    1.085438    2.187807    1.753562    0.000000
 H     :    1.085438    2.187807    1.753562    1.753562    0.000000
 H     :    2.187807    1.085438    2.916813    2.330847    2.916823    0.000000
 H     :    2.187807    1.085438    2.916823    2.916812    2.330846    1.753562
 H     :    2.187807    1.085438    2.330847    2.916823    2.916813    1.753562

            H           H     
            ------      ------
 H     :    0.000000
 H     :    1.753562    0.000000


  Max    interatomic separation is    2.9168 Angstrom (    5.5120 Bohr)
  between atoms    8 and    4, "H     " and "H     ".

  Min HX interatomic separation is    1.0854 Angstrom (    2.0512 Bohr)

  Min YX interatomic separation is    1.5481 Angstrom (    2.9254 Bohr)


  Bond distances (Angstrom):
  --------------------------

                  atom 1     atom 2       distance
                  ------     ------       --------
  bond distance:  C          C            1.548073
  bond distance:  H          C            1.085438
  bond distance:  H          C            1.085438
  bond distance:  H          C            1.085438
  bond distance:  H          C            1.085438
  bond distance:  H          C            1.085438
  bond distance:  H          C            1.085438


  Bond angles (degrees):
  ----------------------

                  atom 1     atom 2     atom 3         angle
                  ------     ------     ------         -----
  bond angle:     C          C          H            111.136
  bond angle:     C          C          H            111.136
  bond angle:     C          C          H            111.136
  bond angle:     H          C          H            107.757
  bond angle:     H          C          H            107.757
  bond angle:     H          C          H            107.757
  bond angle:     C          C          H            111.136
  bond angle:     C          C          H            111.136
  bond angle:     C          C          H            111.136
  bond angle:     H          C          H            107.757
  bond angle:     H          C          H            107.757
  bond angle:     H          C          H            107.757




 CPU time statistics for ABACUS
 ------------------------------




 >>>> Total CPU  time used in ABACUS:   0.00 seconds
 >>>> Total wall time used in ABACUS:   0.00 seconds


                   .-------------------------------------------.
                   | End of Static Property Section (ABACUS) - |
                   `-------------------------------------------'



          <<<<<<<<<<<<<<<<<<<<<<<<<<<<<<<<<<<<<<<<<<<<<<<<<<<<<<<<<<<<<<
          <<<<<<<<<<<<<<<<<<<<  End of Optimization <<<<<<<<<<<<<<<<<<<<
          <<<<<<<<<<<<<<<<<<<<<<<<<<<<<<<<<<<<<<<<<<<<<<<<<<<<<<<<<<<<<<



                                  Final geometry
                                  --------------

 C         -0.0131207236            0.0131867331            1.4624276338
 C         -0.0248651439            0.0264542583           -1.4629535509
 H          1.8885294909            0.2449588482            2.1954716543
 H         -1.1630880405            1.5365677554            2.2135805197
 H         -0.7558960234           -1.7520295136            2.1970306343
 H         -1.1807445455            1.5565638642           -2.1910006898
 H         -0.7736092209           -1.7320404649           -2.2075498113
 H          1.8708506318            0.2649023878           -2.2091100914



@ Iter      Energy        Change       GradNorm  Index   StepLen    TrustRad #Rej
@ -------------------------------------------------------------------------------
@   0      -78.300809     0.000000     0.097518    0    0.500008    0.500000   0 
@   1      -78.303800    -0.002991     0.014126    0    0.600011    0.600009   0 
@   2      -78.302091     0.001709     0.019198    0    0.720008*   0.720014   0 
@   3      -78.300984     0.001107     0.025892    0    0.103274*   0.720008   0 
@   4      -78.301612    -0.000628     0.000413    1    0.060166*   0.720008   0 
@   5      -78.301605     0.000007     0.000188    1    0.000549*   0.720008   0 
@   6      -78.301605    -0.000000     0.000001    1    0.000047*   0.720008   0 

@  *) Newton step taken.


   Interatomic separations (in Angstrom):
   --------------------------------------

            C           C           H           H           H           H     
            ------      ------      ------      ------      ------      ------
 C     :    0.000000
 C     :    1.548073    0.000000
 H     :    1.085438    2.187807    0.000000
 H     :    1.085438    2.187807    1.753562    0.000000
 H     :    1.085438    2.187807    1.753562    1.753562    0.000000
 H     :    2.187807    1.085438    2.916813    2.330847    2.916823    0.000000
 H     :    2.187807    1.085438    2.916823    2.916812    2.330846    1.753562
 H     :    2.187807    1.085438    2.330847    2.916823    2.916813    1.753562

            H           H     
            ------      ------
 H     :    0.000000
 H     :    1.753562    0.000000


  Max    interatomic separation is    2.9168 Angstrom (    5.5120 Bohr)
  between atoms    8 and    4, "H     " and "H     ".

  Min HX interatomic separation is    1.0854 Angstrom (    2.0512 Bohr)

  Min YX interatomic separation is    1.5481 Angstrom (    2.9254 Bohr)


  Bond distances (Angstrom):
  --------------------------

                  atom 1     atom 2       distance
                  ------     ------       --------
  bond distance:  C          C            1.548073
  bond distance:  H          C            1.085438
  bond distance:  H          C            1.085438
  bond distance:  H          C            1.085438
  bond distance:  H          C            1.085438
  bond distance:  H          C            1.085438
  bond distance:  H          C            1.085438


  Bond angles (degrees):
  ----------------------

                  atom 1     atom 2     atom 3         angle
                  ------     ------     ------         -----
  bond angle:     C          C          H            111.136
  bond angle:     C          C          H            111.136
  bond angle:     C          C          H            111.136
  bond angle:     H          C          H            107.757
  bond angle:     H          C          H            107.757
  bond angle:     H          C          H            107.757
  bond angle:     C          C          H            111.136
  bond angle:     C          C          H            111.136
  bond angle:     C          C          H            111.136
  bond angle:     H          C          H            107.757
  bond angle:     H          C          H            107.757
  bond angle:     H          C          H            107.757



@ Geometry converged in  7 iterations!

@ Energy at final geometry is       :     -78.301605 a.u.
@ Energy change during optimization :      -0.000796 a.u.
@                                             -2.090 kJ/mol

 >>>> Total CPU  time used in DALTON:   3.92 seconds
 >>>> Total wall time used in DALTON:   3.95 seconds

 
     Date and time (Linux)  : Sun Sep  8 20:38:47 2013
     Host name              : lpqlx131.ups-tlse.fr                    
