

     ************************************************************************
     *************** Dalton - An Electronic Structure Program ***************
     ************************************************************************

    This is output from DALTON 2013.1
   ----------------------------------------------------------------------------
    NOTE:
     
    Dalton is an experimental code for the evaluation of molecular
    properties using (MC)SCF, DFT, CI, and CC wave functions.
    The authors accept no responsibility for the performance of
    the code or for the correctness of the results.
     
    The code (in whole or part) is provided under a licence and
    is not to be reproduced for further distribution without
    the written permission of the authors or their representatives.
     
    See the home page "http://daltonprogram.org" for further information.
     
    If results obtained with this code are published,
    the appropriate citations would be both of:
     
       K. Aidas, C. Angeli, K. L. Bak, V. Bakken, R. Bast,
       L. Boman, O. Christiansen, R. Cimiraglia, S. Coriani,
       P. Dahle, E. K. Dalskov, U. Ekstroem, T. Enevoldsen,
       J. J. Eriksen, P. Ettenhuber, B. Fernandez, L. Ferrighi,
       H. Fliegl, L. Frediani, K. Hald, A. Halkier, C. Haettig,
       H. Heiberg, T. Helgaker, A. C. Hennum, H. Hettema,
       E. Hjertenaes, S. Hoest, I.-M. Hoeyvik, M. F. Iozzi,
       B. Jansik, H. J. Aa. Jensen, D. Jonsson, P. Joergensen,
       J. Kauczor, S. Kirpekar, T. Kjaergaard, W. Klopper,
       S. Knecht, R. Kobayashi, H. Koch, J. Kongsted, A. Krapp,
       K. Kristensen, A. Ligabue, O. B. Lutnaes, J. I. Melo,
       K. V. Mikkelsen, R. H. Myhre, C. Neiss, C. B. Nielsen,
       P. Norman, J. Olsen, J. M. H. Olsen, A. Osted,
       M. J. Packer, F. Pawlowski, T. B. Pedersen, P. F. Provasi,
       S. Reine, Z. Rinkevicius, T. A. Ruden, K. Ruud, V. Rybkin,
       P. Salek, C. C. M. Samson, A. Sanchez de Meras, T. Saue,
       S. P. A. Sauer, B. Schimmelpfennig, K. Sneskov,
       A. H. Steindal, K. O. Sylvester-Hvid, P. R. Taylor,
       A. M. Teale, E. I. Tellgren, D. P. Tew, A. J. Thorvaldsen,
       L. Thoegersen, O. Vahtras, M. A. Watson, D. J. D. Wilson,
       M. Ziolkowski and H. Aagren,
       "The Dalton quantum chemistry program system",
       WIREs Comput. Mol. Sci. 2013. (doi: 10.1002/wcms.1172)
    
    and
    
       Dalton, a Molecular Electronic Structure Program,
       Release DALTON2013.1 (2013), see http://daltonprogram.org
   ----------------------------------------------------------------------------

    Authors in alphabetical order (major contribution(s) in parenthesis):

  Kestutis Aidas,           Vilnius University,           Lithuania   (QM/MM)
  Celestino Angeli,         University of Ferrara,        Italy       (NEVPT2)
  Keld L. Bak,              UNI-C,                        Denmark     (AOSOPPA, non-adiabatic coupling, magnetic properties)
  Vebjoern Bakken,          University of Oslo,           Norway      (DALTON; geometry optimizer, symmetry detection)
  Radovan Bast,             KTH Stockholm,                Sweden      (DALTON installation and execution frameworks)
  Linus Boman,              NTNU,                         Norway      (Cholesky decomposition and subsystems)
  Ove Christiansen,         Aarhus University,            Denmark     (CC module)
  Renzo Cimiraglia,         University of Ferrara,        Italy       (NEVPT2)
  Sonia Coriani,            University of Trieste,        Italy       (CC module, MCD in RESPONS)
  Paal Dahle,               University of Oslo,           Norway      (Parallelization)
  Erik K. Dalskov,          UNI-C,                        Denmark     (SOPPA)
  Thomas Enevoldsen,        Univ. of Southern Denmark,    Denmark     (SOPPA)
  Janus J. Eriksen,         Aarhus University,            Denmark     (PE-MP2/SOPPA, TDA)
  Berta Fernandez,          U. of Santiago de Compostela, Spain       (doublet spin, ESR in RESPONS)
  Lara Ferrighi,            Aarhus University,            Denmark     (PCM Cubic response)
  Heike Fliegl,             University of Oslo,           Norway      (CCSD(R12))
  Luca Frediani,            UiT The Arctic U. of Norway,  Norway      (PCM)
  Bin Gao,                  UiT The Arctic U. of Norway,  Norway      (Gen1Int library)
  Christof Haettig,         Ruhr-University Bochum,       Germany     (CC module)
  Kasper Hald,              Aarhus University,            Denmark     (CC module)
  Asger Halkier,            Aarhus University,            Denmark     (CC module)
  Hanne Heiberg,            University of Oslo,           Norway      (geometry analysis, selected one-electron integrals)
  Trygve Helgaker,          University of Oslo,           Norway      (DALTON; ABACUS, ERI, DFT modules, London, and much more)
  Alf Christian Hennum,     University of Oslo,           Norway      (Parity violation)
  Hinne Hettema,            University of Auckland,       New Zealand (quadratic response in RESPONS; SIRIUS supersymmetry)
  Eirik Hjertenaes,         NTNU,                         Norway      (Cholesky decomposition)
  Maria Francesca Iozzi,    University of Oslo,           Norway      (RPA)
  Brano Jansik              Technical Univ. of Ostrava    Czech Rep.  (DFT cubic response)
  Hans Joergen Aa. Jensen,  Univ. of Southern Denmark,    Denmark     (DALTON; SIRIUS, RESPONS, ABACUS modules, London, and much more)
  Dan Jonsson,              UiT The Arctic U. of Norway,  Norway      (cubic response in RESPONS module)
  Poul Joergensen,          Aarhus University,            Denmark     (RESPONS, ABACUS, and CC modules)
  Joanna Kauczor,           Linkoeping University,        Sweden      (Complex polarization propagator (CPP) module)
  Sheela Kirpekar,          Univ. of Southern Denmark,    Denmark     (Mass-velocity & Darwin integrals)
  Wim Klopper,              KIT Karlsruhe,                Germany     (R12 code in CC, SIRIUS, and ABACUS modules)
  Stefan Knecht,            ETH Zurich,                   Switzerland (Parallel CI and MCSCF)
  Rika Kobayashi,           Australian National Univ.,    Australia   (DIIS in CC, London in MCSCF)
  Henrik Koch,              NTNU,                         Norway      (CC module, Cholesky decomposition)
  Jacob Kongsted,           Univ. of Southern Denmark,    Denmark     (Polarizable embedding, QM/MM)
  Andrea Ligabue,           University of Modena,         Italy       (CTOCD, AOSOPPA)
  Ola B. Lutnaes,           University of Oslo,           Norway      (DFT Hessian)
  Juan I. Melo,             University of Buenos Aires,   Argentina   (LRESC, Relativistic Effects on NMR Shieldings)
  Kurt V. Mikkelsen,        University of Copenhagen,     Denmark     (MC-SCRF and QM/MM)
  Rolf H. Myhre,            NTNU,                         Norway      (Cholesky, subsystems and ECC2)
  Christian Neiss,          Univ. Erlangen-Nuernberg,     Germany     (CCSD(R12))
  Christian B. Nielsen,     University of Copenhagen,     Denmark     (QM/MM)
  Patrick Norman,           Linkoeping University,        Sweden      (Cubic response and complex response in RESPONS)
  Jeppe Olsen,              Aarhus University,            Denmark     (SIRIUS CI/density modules)
  Jogvan Magnus H. Olsen,   Univ. of Southern Denmark,    Denmark     (Polarizable embedding, PE library, QM/MM)
  Anders Osted,             Copenhagen University,        Denmark     (QM/MM)
  Martin J. Packer,         University of Sheffield,      UK          (SOPPA)
  Filip Pawlowski,          Kazimierz Wielki University,  Poland      (CC3)
  Thomas B. Pedersen,       University of Oslo,           Norway      (Cholesky decomposition)
  Patricio F. Provasi,      University of Northeastern,   Argentina   (Analysis of coupling constants in localized orbitals)
  Zilvinas Rinkevicius,     KTH Stockholm,                Sweden      (open-shell DFT, ESR)
  Elias Rudberg,            KTH Stockholm,                Sweden      (DFT grid and basis info)
  Torgeir A. Ruden,         University of Oslo,           Norway      (Numerical derivatives in ABACUS)
  Kenneth Ruud,             UiT The Arctic U. of Norway,  Norway      (DALTON; ABACUS magnetic properties and  much more)
  Pawel Salek,              KTH Stockholm,                Sweden      (DALTON; DFT code)
  Claire C. M. Samson       University of Karlsruhe       Germany     (Boys localization, r12 integrals in ERI)
  Alfredo Sanchez de Meras, University of Valencia,       Spain       (CC module, Cholesky decomposition)
  Trond Saue,               Paul Sabatier University,     France      (direct Fock matrix construction)
  Stephan P. A. Sauer,      University of Copenhagen,     Denmark     (SOPPA(CCSD), SOPPA prop., AOSOPPA, vibrational g-factors)
  Bernd Schimmelpfennig,    Forschungszentrum Karlsruhe,  Germany     (AMFI module)
  Kristian Sneskov,         Aarhus University,            Denmark     (QM/MM, PE-CC)
  Arnfinn H. Steindal,      UiT The Arctic U. of Norway,  Norway      (parallel QM/MM)
  K. O. Sylvester-Hvid,     University of Copenhagen,     Denmark     (MC-SCRF)
  Peter R. Taylor,          VLSCI/Univ. of Melbourne,     Australia   (Symmetry handling ABACUS, integral transformation)
  Andrew M. Teale,          University of Nottingham,     England     (DFT-AC, DFT-D)
  David P. Tew,             University of Bristol,        England     (CCSD(R12))
  Olav Vahtras,             KTH Stockholm,                Sweden      (triplet response, spin-orbit, ESR, TDDFT, open-shell DFT)
  David J. Wilson,          La Trobe University,          Australia   (DFT Hessian and DFT magnetizabilities)
  Hans Agren,               KTH Stockholm,                Sweden      (SIRIUS module, RESPONS, MC-SCRF solvation model)
 --------------------------------------------------------------------------------

     Date and time (Linux)  : Wed Feb  5 08:17:02 2014 
     Host name              : fe8                                     

 * Work memory size             :    64000000 =  488.28 megabytes.

 * Directories for basis set searches:
   1) /people/disk2/nanna/programs/dalton-repo/build_intel_gradients_310114/test_pehf_geoopt_failed_2014-02-04T23_19-44561
   2) /people/disk2/nanna/programs/dalton-repo/build_intel_gradients_310114/basis


Compilation information
-----------------------

 Who compiled             | nanna
 Host                     | fe8
 System                   | Linux-2.6.32-279.el6.x86_64
 CMake generator          | Unix Makefiles
 Processor                | x86_64
 64-bit integers          | OFF
 MPI                      | ON
 Fortran compiler         | /usr/local/bin/mpif90
 Fortran compiler version | GNU Fortran (GCC) 4.4.6 20120305 (Red Hat 4.4.6-4)
 C compiler               | /usr/local/bin/mpicc
 C compiler version       | gcc (GCC) 4.4.6 20120305 (Red Hat 4.4.6-4)
 C++ compiler             | /usr/local/bin/mpicxx
 C++ compiler version     | unknown
 BLAS                     | /usr/lib64/atlas/libf77blas.so;/usr/lib64/atlas/li
                          | bcblas.so;/usr/lib64/atlas/libatlas.so
 LAPACK                   | /usr/lib64/atlas/libatlas.so;/usr/lib64/atlas/libl
                          | apack.so
 Static linking           | OFF
 Last Git revision        | b44153fb95e87b119715dda2ae5a4bf0de42cb6e
 Git branch               | pe-gradients
 Configuration time       | 2014-02-04 22:32:33.747097

 * Sequential calculation using 1 CPU


   Content of the .dal input file
 ----------------------------------

**DALTON                                          
.OPTIMIZE                                         
.PEQM                                             
*OPTIMIZE                                         
.INITHE                                           
.MAX IT                                           
200                                               
*PEQM                                             
.LJ                                               
8                                                 
1.6612  0.2100                                    
1.9080  0.0860                                    
1.9080  0.0860                                    
1.9080  0.0860                                    
0.6000  0.0157                                    
0.6000  0.0157                                    
0.6000  0.0157                                    
0.6000  0.0157                                    
**WAVE FUNCTIONS                                  
.HF                                               
**END OF                                          


   Content of the .mol file
 ----------------------------

BASIS                                                                          
6-31+G*                                                                        
Acrolein                                                                       
------------------------                                                       
AtomTypes=3 NoSymmetry Angstrom                                                
Charge=6.0 Atoms=3                                                             
C             -0.145335   -0.546770    0.000607                                
C              1.274009   -0.912471   -0.000167                                
C              1.630116   -2.207690   -0.000132                                
Charge=8.0 Atoms=1                                                             
O             -0.560104    0.608977    0.000534                                
Charge=1.0 Atoms=4                                                             
H             -0.871904   -1.386459    0.001253                                
H              2.004448   -0.101417   -0.000710                                
H              0.879028   -3.000685    0.000484                                
H              2.675323   -2.516779   -0.000673                                


       *******************************************************************
       *********** Output from DALTON general input processing ***********
       *******************************************************************

 --------------------------------------------------------------------------------
   Overall default print level:    0
   Print level for DALTON.STAT:    1

    "Old" integral transformation used (limited to max 255 basis functions)
    Environment is modeled using polarizable embedding scheme (PE library)
 --------------------------------------------------------------------------------


 Chosen parameters for *OPTIMI :
 -------------------------------

 Default 1st order method will be used:   BFGS update.
 Optimization will be performed in Cartesian coordinates.
 Initial Hessian will be calculated.
 .INITEV has no effect when initial Hessian is calculated.
 Keyword ignored.

 Maximum # of iterations:       200

 Trust region method will be used to control step (default).

 Convergence threshold for gradient set to :      1.00D-04
 Convergence threshold for energy set to   :      1.00D-06
 Convergence threshold for step set to     :      1.00D-04
 Number of convergence criteria set to     :   2


              >>>>>>>>>>>>>>>>>>>>>>>>>>>>>>>>>>>>>>>>>>>>>>>>>>>>>
              >>>>>>>>>> 1st Order Geometry Optimization >>>>>>>>>>
              >>>>>>>>>>>>>>>>>>>>>>>>>>>>>>>>>>>>>>>>>>>>>>>>>>>>>


 Reading .mol file to determine number of atoms for parallel runs.

  Reading potential input file

  Polarizable embedding information
  ---------------------------------

    Number of classical sites:     10

    Multipole moments upto 3rd order.

    Dipole-dipole polarizabilities.

    Iterative solver for induced moments will be used
    with convergence threshold: 1.0E-08


   ****************************************************************************
   *************** Output of molecule and basis set information ***************
   ****************************************************************************


    The two title cards from your ".mol" input:
    ------------------------------------------------------------------------
 1: Acrolein                                                                
 2: ------------------------                                                
    ------------------------------------------------------------------------

  Coordinates are entered in Angstrom and converted to atomic units.
          - Conversion factor : 1 bohr = 0.52917721 A

  Atomic type no.    1
  --------------------
  Nuclear charge:   6.00000
  Number of symmetry independent centers:    3
  Number of basis sets to read;    2
  Basis set file used for this atomic type with Z =   6 :
     "/people/disk2/nanna/programs/dalton-repo/build_intel_gradients_310114/basis/6-31+G*"

  Info about the basis set file: your basis has no documentation.
  Basis set: 6-31+G*                                                                         

  Atomic type no.    2
  --------------------
  Nuclear charge:   8.00000
  Number of symmetry independent centers:    1
  Number of basis sets to read;    2
  Basis set file used for this atomic type with Z =   8 :
     "/people/disk2/nanna/programs/dalton-repo/build_intel_gradients_310114/basis/6-31+G*"

  Info about the basis set file: your basis has no documentation.
  Basis set: 6-31+G*                                                                         

  Atomic type no.    3
  --------------------
  Nuclear charge:   1.00000
  Number of symmetry independent centers:    4
  Number of basis sets to read;    2
  Basis set file used for this atomic type with Z =   1 :
     "/people/disk2/nanna/programs/dalton-repo/build_intel_gradients_310114/basis/6-31+G*"

  Info about the basis set file: your basis has no documentation.
  Basis set: 6-31+G*                                                                         


                         SYMGRP: Point group information
                         -------------------------------

Point group: C1 


                                 Isotopic Masses
                                 ---------------

                           C          12.000000
                           C          12.000000
                           C          12.000000
                           O          15.994915
                           H           1.007825
                           H           1.007825
                           H           1.007825
                           H           1.007825

                       Total mass:    56.026215 amu
                       Natural abundance:  96.446 %

 Center-of-mass coordinates (a.u.):    0.973773   -1.393790    0.000425


  Atoms and basis sets
  --------------------

  Number of atom types :    3
  Total number of atoms:    8

  Basis set used is "6-31+G*" from the basis set library.

  label    atoms   charge   prim   cont     basis
  ----------------------------------------------------------------------
  C           3    6.0000    31    18      [11s5p1d|4s3p1d]                                   
  O           1    8.0000    31    18      [11s5p1d|4s3p1d]                                   
  H           4    1.0000     4     2      [4s|2s]                                            
  ----------------------------------------------------------------------
  total:      8   30.0000   140    80
  ----------------------------------------------------------------------
  Spherical harmonic basis used.

  Threshold for neglecting AO integrals:  1.00D-12


  Cartesian Coordinates (a.u.)
  ----------------------------

  Total number of coordinates:   24
  C       :     1  x  -0.2746433464    2  y  -1.0332455534    3  z   0.0011470638
  C       :     4  x   2.4075280908    5  y  -1.7243202870    6  z  -0.0003155843
  C       :     7  x   3.0804727920    8  y  -4.1719294689    9  z  -0.0002494438
  O       :    10  x  -1.0584431615   11  y   1.1507997464   12  z   0.0010091138
  H       :    13  x  -1.6476597673   14  y  -2.6200277935   15  z   0.0023678268
  H       :    16  x   3.7878577518   17  y  -0.1916503544   18  z  -0.0013417055
  H       :    19  x   1.6611221762   20  y  -5.6704728374   21  z   0.0009146274
  H       :    22  x   5.0556277659   23  y  -4.7560230271   24  z  -0.0012717857


   Interatomic separations (in Angstrom):
   --------------------------------------

            C           C           C           O           H           H     
            ------      ------      ------      ------      ------      ------
 C     :    0.000000
 C     :    1.465700    0.000000
 C     :    2.431231    1.343281    0.000000
 O     :    1.227919    2.383018    3.568007    0.000000
 H     :    1.110397    2.197637    2.633349    2.019650    0.000000
 H     :    2.195429    1.091490    2.139278    2.661125    3.150355    0.000000
 H     :    2.659139    2.125241    1.092234    3.885970    2.381489    3.110036
 H     :    3.440501    2.130137    1.089951    4.498704    3.722962    2.506800

            H           H     
            ------      ------
 H     :    0.000000
 H     :    1.860334    0.000000


  Max    interatomic separation is    4.4987 Angstrom (    8.5013 Bohr)
  between atoms    8 and    4, "H     " and "O     ".

  Min HX interatomic separation is    1.0900 Angstrom (    2.0597 Bohr)

  Min YX interatomic separation is    1.2279 Angstrom (    2.3204 Bohr)


  Bond distances (Angstrom):
  --------------------------

                  atom 1     atom 2       distance
                  ------     ------       --------
  bond distance:  C          C            1.465700
  bond distance:  C          C            1.343281
  bond distance:  O          C            1.227919
  bond distance:  H          C            1.110397
  bond distance:  H          C            1.091490
  bond distance:  H          C            1.092234
  bond distance:  H          C            1.089951


  Bond angles (degrees):
  ----------------------

                  atom 1     atom 2     atom 3         angle
                  ------     ------     ------         -----
  bond angle:     C          C          O            124.190
  bond angle:     C          C          H            116.421
  bond angle:     O          C          H            119.389
  bond angle:     C          C          C            119.821
  bond angle:     C          C          H            117.558
  bond angle:     C          C          H            122.621
  bond angle:     C          C          H            121.182
  bond angle:     C          C          H            121.847
  bond angle:     H          C          H            116.971




 Principal moments of inertia (u*A**2) and principal axes
 --------------------------------------------------------

   IA      10.696865         -0.668732    0.743503    0.000230
   IB     108.794831          0.743503    0.668732   -0.000587
   IC     119.491696          0.000590    0.000221    1.000000


 Rotational constants
 --------------------

 The molecule is planar.

               A                   B                   C

          47245.5253           4645.2483           4229.4069 MHz
            1.575941            0.154949            0.141078 cm-1


@  Nuclear repulsion energy :  102.664846860515 Hartree


                     .---------------------------------------.
                     | Starting in Integral Section (HERMIT) |
                     `---------------------------------------'



    *************************************************************************
    ****************** Output from HERMIT input processing ******************
    *************************************************************************



     ************************************************************************
     ************************** Output from HERINT **************************
     ************************************************************************


 Threshold for neglecting two-electron integrals:  1.00D-12
 Number of two-electron integrals written:     5029409 ( 95.8% )
 Megabytes written:                             57.593

 >>>  Time used in TWOINT     is   1.78 seconds
 >>>> Total CPU  time used in HERMIT:   1.89 seconds
 >>>> Total wall time used in HERMIT:   1.92 seconds


                        .----------------------------------.
                        | End of Integral Section (HERMIT) |
                        `----------------------------------'



                   .--------------------------------------------.
                   | Starting in Wave Function Section (SIRIUS) |
                   `--------------------------------------------'


 *** Output from Huckel module :

     Using EWMO model:          T
     Using EHT  model:          F
     Number of Huckel orbitals each symmetry:   24

 EWMO - Energy Weighted Maximum Overlap - is a Huckel type method,
        which normally is better than Extended Huckel Theory.
 Reference: Linderberg and Ohrn, Propagators in Quantum Chemistry (Wiley, 1973)

 Huckel EWMO eigenvalues for symmetry :  1
          -20.684561     -11.357400     -11.351264     -11.346036      -1.724840
           -1.477979      -1.046134      -1.031570      -0.744448      -0.729231
           -0.672044      -0.551742      -0.540543      -0.516178      -0.438809
           -0.319925      -0.220785      -0.162868      -0.131432      -0.129120
           -0.123435      -0.114530      -0.093199      -0.085427

 **********************************************************************
 *SIRIUS* a direct, restricted step, second order MCSCF program       *
 **********************************************************************

 
     Date and time (Linux)  : Wed Feb  5 08:17:05 2014 
     Host name              : fe8                                     

 Title lines from ".mol" input file:
     Acrolein                                                                
     ------------------------                                                

 Print level on unit LUPRI =   2 is   0
 Print level on unit LUW4  =   2 is   5

@    Restricted, closed shell Hartree-Fock calculation.

 Initial molecular orbitals are obtained according to
 ".MOSTART EWMO  " input option

@    QM part is embedded in an environment :

@         Model: PE

     Wave function specification
     ============================

     Wave function environment is modeled using the
     polarizable embedding model (PE library).

@    For the wave function of type :      >>> PE-HF <<<
@    Number of closed shell electrons          30
@    Number of electrons in active shells       0
@    Total charge of the molecule               0

@    Spin multiplicity and 2 M_S                1         0
     Total number of symmetries                 1
@    Reference state symmetry                   1

     Orbital specifications
     ======================
     Abelian symmetry species          All |    1
                                       --- |  ---
@    Occupied SCF orbitals              15 |   15
     Secondary orbitals                 65 |   65
     Total number of orbitals           80 |   80
     Number of basis functions          80 |   80

     Optimization information
     ========================
@    Number of configurations                 1
@    Number of orbital rotations            975
     ------------------------------------------
@    Total number of variables              976

     Maximum number of Fock   iterations      0
     Maximum number of DIIS   iterations     60
     Maximum number of QC-SCF iterations     60
     Threshold for SCF convergence     1.00D-05


 >>>>> DIIS optimization of Hartree-Fock <<<<<

 C1-DIIS algorithm; max error vectors =    5

 Iter      Total energy     Embedding energy      Error norm     Delta(E)
 -----------------------------------------------------------------------------
     (Precalculated two-electron integrals are transformed to P-supermatrix elements.
      Threshold for discarding integrals :  1.00D-12 )
 >>>  Time used in FORMSUP    is   0.32 seconds
@  1  -189.969391258     -4.503991412339E-02    3.53454D+00   -1.90D+02
      Virial theorem: -V/T =      2.005513
@      MULPOP C       0.90; C       0.05; C       0.19; O      -1.10; H      -0.04; H      -0.00; H       0.00; H      -0.00; 
 -----------------------------------------------------------------------------
@  2  -190.447663860     -4.142091944276E-03    2.52203D+00   -4.78D-01
      Virial theorem: -V/T =      2.002743
@      MULPOP C      -0.46; C      -0.29; C      -0.65; O       0.09; H       0.29; H       0.38; H       0.31; H       0.32; 
 -----------------------------------------------------------------------------
@  3  -190.778181719     -3.300996484833E-02    5.43456D-01   -3.31D-01
      Virial theorem: -V/T =      1.998963
@      MULPOP C       0.25; C      -0.11; C      -0.43; O      -0.70; H       0.23; H       0.29; H       0.23; H       0.24; 
 -----------------------------------------------------------------------------
@  4  -190.793166348     -3.138824788019E-02    1.13958D-01   -1.50D-02
      Virial theorem: -V/T =      2.003222
@      MULPOP C       0.19; C      -0.11; C      -0.40; O      -0.64; H       0.22; H       0.30; H       0.22; H       0.23; 
 -----------------------------------------------------------------------------
@  5  -190.794413729     -3.250795137298E-02    3.06130D-02   -1.25D-03
      Virial theorem: -V/T =      2.002144
@      MULPOP C       0.21; C      -0.14; C      -0.41; O      -0.66; H       0.23; H       0.31; H       0.23; H       0.24; 
 -----------------------------------------------------------------------------
@  6  -190.794559238     -3.294584115254E-02    1.16714D-02   -1.46D-04
      Virial theorem: -V/T =      2.002168
@      MULPOP C       0.22; C      -0.14; C      -0.41; O      -0.67; H       0.23; H       0.31; H       0.22; H       0.24; 
 -----------------------------------------------------------------------------
@  7  -190.794585903     -3.317619648374E-02    5.22393D-03   -2.67D-05
      Virial theorem: -V/T =      2.002174
@      MULPOP C       0.22; C      -0.15; C      -0.41; O      -0.68; H       0.23; H       0.31; H       0.23; H       0.24; 
 -----------------------------------------------------------------------------
@  8  -190.794590213     -3.326320309183E-02    1.37641D-03   -4.31D-06
      Virial theorem: -V/T =      2.002178
@      MULPOP C       0.22; C      -0.15; C      -0.41; O      -0.68; H       0.23; H       0.31; H       0.23; H       0.24; 
 -----------------------------------------------------------------------------
@  9  -190.794590608     -3.328298672006E-02    6.46944D-04   -3.95D-07
      Virial theorem: -V/T =      2.002179
@      MULPOP C       0.22; C      -0.15; C      -0.41; O      -0.68; H       0.23; H       0.31; H       0.23; H       0.24; 
 -----------------------------------------------------------------------------
@ 10  -190.794590660     -3.328786421417E-02    1.91740D-04   -5.22D-08
      Virial theorem: -V/T =      2.002181
@      MULPOP C       0.22; C      -0.15; C      -0.41; O      -0.68; H       0.23; H       0.31; H       0.23; H       0.24; 
 -----------------------------------------------------------------------------
@ 11  -190.794590667     -3.328846088066E-02    9.93309D-05   -6.79D-09
      Virial theorem: -V/T =      2.002179
@      MULPOP C       0.22; C      -0.15; C      -0.41; O      -0.68; H       0.23; H       0.31; H       0.23; H       0.24; 
 -----------------------------------------------------------------------------
@ 12  -190.794590668     -3.328929249372E-02    3.21134D-05   -1.49D-09
      Virial theorem: -V/T =      2.002180
@      MULPOP C       0.22; C      -0.15; C      -0.41; O      -0.68; H       0.23; H       0.31; H       0.23; H       0.24; 
 -----------------------------------------------------------------------------
@ 13  -190.794590669     -3.328940205652E-02    1.07398D-05   -1.35D-10
      Virial theorem: -V/T =      2.002180
@      MULPOP C       0.22; C      -0.15; C      -0.41; O      -0.68; H       0.23; H       0.31; H       0.23; H       0.24; 
 -----------------------------------------------------------------------------
@ 14  -190.794590669     -3.328946465014E-02    3.53241D-06   -1.94D-11

@ *** DIIS converged in  14 iterations !
@     Converged SCF energy, gradient:   -190.794590668577    3.53D-06
    - total time used in SIRFCK :              0.00 seconds


 *** SCF orbital energy analysis ***
   (incl. contribution from polarizable embedding potential)

 Only the five lowest virtual orbital energies printed in each symmetry.

 Number of electrons :   30
 Orbital occupations :   15

 Sym       Hartree-Fock orbital energies

  1    -20.60518583   -11.37018919   -11.29015652   -11.26963484    -1.42136999
        -1.10276432    -0.90632966    -0.80410135    -0.69685090    -0.68636976
        -0.62166730    -0.57202140    -0.57057322    -0.46832618    -0.41175871
         0.05076596     0.07093114     0.09556589     0.10054294     0.10299192

    E(LUMO) :     0.05076596 au (symmetry 1)
  - E(HOMO) :    -0.41175871 au (symmetry 1)
  ------------------------------------------
    gap     :     0.46252466 au

      Polarizable embedding energy contributions:
     ---------------------------------------------

       Electrostatic contributions:
         Monopoles                 -0.028474586674
         Dipoles                    0.006956765454
         Quadrupoles               -0.009139853987
         Octopoles                 -0.002683831770

       Polarization contributions:
         Electronic                -0.087358449321
         Nuclear                    0.084104806497
         Multipole                  0.000258051484

       LJ energy contribution:
         Dispersion 6              -0.005743398010
         Repulsion 12               0.008791031678

       Total PE energy:            -0.033289464650

 >>> Writing SIRIFC interface file <<<

 >>>> CPU and wall time for SCF :       3.200       3.241


                       .-----------------------------------.
                       | >>> Final results from SIRIUS <<< |
                       `-----------------------------------'


@    Spin multiplicity:           1
@    Spatial symmetry:            1
@    Total charge of molecule:    0

@    Final HF energy:            -190.794590668577                 
@    Nuclear repulsion:           102.664846860515
@    Electronic energy:          -293.426148064442
@    Embedding energy:             -0.033289464650

@    Final gradient norm:           0.000003532412

 
     Date and time (Linux)  : Wed Feb  5 08:17:08 2014 
     Host name              : fe8                                     

 (Only coefficients >0.0100 are printed.)

 Molecular orbitals for symmetry species  1
 ------------------------------------------

    Orbital        11       12       13       14       15       16       17
   1 C   :1s     0.0139   0.0250  -0.0000   0.0031  -0.0000   0.0000  -0.0100
   2 C   :1s    -0.0233  -0.0565   0.0001  -0.0172   0.0000   0.0000   0.0272
   3 C   :1s    -0.0682  -0.0326   0.0001   0.0272  -0.0000  -0.0001   0.0271
   4 C   :1s     0.0012   0.0594   0.0001   0.0509  -0.0001  -0.0001  -5.2773
   5 C   :2px   -0.0502  -0.1189   0.0004  -0.2149   0.0000  -0.0002  -0.0245
   6 C   :2py    0.2488   0.0368   0.0000  -0.0668   0.0000  -0.0001  -0.0246
   7 C   :2pz   -0.0000   0.0006   0.3095   0.0002  -0.0026  -0.2696   0.0000
   8 C   :2px   -0.0036  -0.0196   0.0001  -0.0999   0.0000  -0.0002   0.0427
   9 C   :2py    0.1114   0.0002   0.0001  -0.1088  -0.0000  -0.0001   0.0342
  10 C   :2pz   -0.0000   0.0003   0.1613   0.0001   0.0016  -0.3342  -0.0000
  11 C   :2px    0.0036   0.0088   0.0001  -0.0113  -0.0000  -0.0001  -1.2419
  12 C   :2py    0.0100   0.0061   0.0000  -0.0191  -0.0000  -0.0002   0.7421
  13 C   :2pz   -0.0000   0.0000   0.0228   0.0000   0.0046  -0.3191   0.0003
  14 C   :3d2-  -0.0249  -0.0032   0.0000   0.0454  -0.0000   0.0000   0.0048
  15 C   :3d1-   0.0000   0.0001   0.0295  -0.0000  -0.0218   0.0211  -0.0000
  17 C   :3d1+   0.0000  -0.0000  -0.0055   0.0000   0.0202  -0.0193  -0.0000
  18 C   :3d2+  -0.0178   0.0063  -0.0000  -0.0320   0.0000  -0.0000   0.0016
  19 C   :1s    -0.0106  -0.0212   0.0000   0.0284   0.0000  -0.0000   0.0008
  20 C   :1s     0.0211   0.0417  -0.0001  -0.0560  -0.0000   0.0000  -0.0058
  21 C   :1s    -0.0006   0.0745  -0.0001  -0.1531   0.0000  -0.0000   0.1100
  22 C   :1s     0.0050  -0.0163  -0.0001  -0.0473   0.0001   0.0004  -3.9585
  23 C   :2px    0.0219   0.1609  -0.0002   0.2377   0.0002  -0.0001   0.0116
  24 C   :2py   -0.2866   0.2279  -0.0004  -0.0431   0.0001  -0.0000   0.0439
  25 C   :2pz    0.0000   0.0001   0.1293  -0.0001   0.3648  -0.1845  -0.0000
  26 C   :2px   -0.0068   0.1537  -0.0002   0.1624   0.0002  -0.0002   0.0290
  27 C   :2py   -0.1343   0.1393  -0.0003   0.0641   0.0000  -0.0000  -0.1554
  28 C   :2pz    0.0000   0.0000   0.0710  -0.0001   0.2777  -0.2461   0.0000
  29 C   :2px   -0.0068   0.0531  -0.0000   0.0419  -0.0000  -0.0002  -2.3201
  30 C   :2py   -0.0098  -0.0151  -0.0000  -0.0016   0.0000  -0.0002   2.1304
  31 C   :2pz    0.0000  -0.0000   0.0028  -0.0000   0.0246  -0.4291   0.0012
  32 C   :3d2-  -0.0086   0.0288  -0.0001   0.0111  -0.0000  -0.0000  -0.0008
  33 C   :3d1-   0.0000  -0.0000  -0.0023  -0.0000  -0.0243  -0.0203  -0.0000
  35 C   :3d1+   0.0000  -0.0000  -0.0083   0.0000   0.0008   0.0216  -0.0000
  36 C   :3d2+  -0.0171  -0.0081   0.0000  -0.0110   0.0000   0.0000  -0.0057
  37 C   :1s    -0.0126   0.0122  -0.0000  -0.0046   0.0000   0.0000  -0.0409
  38 C   :1s     0.0278  -0.0280   0.0001   0.0085  -0.0000  -0.0000   0.1036
  39 C   :1s    -0.0231   0.0018  -0.0000   0.0661  -0.0000  -0.0000   0.0214
  40 C   :1s    -0.0060  -0.0355   0.0000   0.0007   0.0000  -0.0004   7.6879
  41 C   :2px   -0.2630  -0.2595   0.0005  -0.0653   0.0002   0.0002   0.0230
  42 C   :2py    0.2346  -0.2040   0.0004   0.0498   0.0001   0.0001  -0.0806
  43 C   :2pz    0.0001   0.0003   0.0748   0.0000   0.3428   0.2905   0.0000
  44 C   :2px   -0.1192  -0.1950   0.0004  -0.0752   0.0002   0.0002   0.0574
  45 C   :2py    0.0785  -0.0943   0.0002   0.0484   0.0000   0.0001  -0.2172
  46 C   :2pz    0.0000   0.0002   0.0459   0.0000   0.2558   0.3455   0.0000
  47 C   :2px   -0.0033  -0.0269   0.0000  -0.0191   0.0000   0.0005  -0.7824
  48 C   :2py    0.0065  -0.0174   0.0000  -0.0005   0.0000  -0.0000   3.1673
  49 C   :2pz   -0.0000   0.0000  -0.0014   0.0000   0.0450   0.7480  -0.0003
  50 C   :3d2-   0.0033   0.0311  -0.0001   0.0094   0.0000  -0.0000   0.0069
  51 C   :3d1-  -0.0000  -0.0000   0.0070  -0.0000   0.0234  -0.0123  -0.0000
  54 C   :3d2+  -0.0201  -0.0103   0.0000  -0.0080  -0.0000   0.0000   0.0093
  55 O   :1s     0.0224   0.0030  -0.0000   0.0010   0.0000  -0.0000   0.0027
  56 O   :1s    -0.0500  -0.0066   0.0000  -0.0059  -0.0000   0.0000   0.0009
  57 O   :1s    -0.1278  -0.0161   0.0000   0.0226   0.0000  -0.0000  -0.0635
  58 O   :1s    -0.0641   0.0042  -0.0001   0.0284   0.0000   0.0002   0.2393
  59 O   :2px    0.1037  -0.1842   0.0006   0.4787  -0.0001   0.0001   0.0028
  60 O   :2py   -0.2742  -0.0968   0.0003   0.1743  -0.0001   0.0001   0.0106
  61 O   :2pz    0.0000   0.0010   0.4755  -0.0003  -0.2254   0.2558   0.0000
  62 O   :2px    0.0499  -0.1343   0.0004   0.3794  -0.0001   0.0001  -0.0081
  63 O   :2py   -0.1420  -0.0632   0.0002   0.1271  -0.0001   0.0001   0.0335
  64 O   :2pz    0.0000   0.0007   0.3316  -0.0003  -0.1757   0.2416   0.0000
  65 O   :2px   -0.0014  -0.0167   0.0000   0.1051  -0.0000   0.0002   0.0605
  66 O   :2py   -0.0114  -0.0161   0.0000   0.0377  -0.0000   0.0001  -0.2242
  67 O   :2pz    0.0000   0.0000   0.0198  -0.0001  -0.0454   0.2861   0.0001
  68 O   :3d2-  -0.0086   0.0080  -0.0000  -0.0115   0.0000  -0.0000   0.0018
  69 O   :3d1-   0.0000  -0.0001  -0.0354   0.0000   0.0123   0.0001  -0.0000
  71 O   :3d1+   0.0000   0.0000   0.0130  -0.0000  -0.0038  -0.0018  -0.0000
  73 H   :1s    -0.1086   0.0048  -0.0000   0.1813  -0.0000   0.0000   0.0077
  74 H   :1s    -0.0649   0.0089  -0.0000   0.1684  -0.0000   0.0000   0.2015
  75 H   :1s    -0.1058   0.2030  -0.0004   0.0681  -0.0000   0.0000   0.0126
  76 H   :1s    -0.0523   0.0979  -0.0002   0.0274  -0.0000   0.0000   0.1831
  77 H   :1s     0.0147   0.2113  -0.0004   0.0282  -0.0000   0.0000   0.0092
  78 H   :1s     0.0033   0.1446  -0.0003   0.0248  -0.0000   0.0000   0.1086
  79 H   :1s    -0.1853  -0.1447   0.0003  -0.0581   0.0000   0.0000   0.0040
  80 H   :1s    -0.1253  -0.0825   0.0001  -0.0410  -0.0000   0.0000   0.1333



 >>>> Total CPU  time used in SIRIUS :      3.29 seconds
 >>>> Total wall time used in SIRIUS :      3.34 seconds

 
     Date and time (Linux)  : Wed Feb  5 08:17:08 2014 
     Host name              : fe8                                     


                     .---------------------------------------.
                     | End of Wave Function Section (SIRIUS) |
                     `---------------------------------------'


     Order of analytical energy-derivatives available:   2
     This will be the default.

 Center of mass dipole origin  :    0.973773   -1.393790    0.000425

 Center of mass gauge origin   :    0.973773   -1.393790    0.000425


                 .------------------------------------------------.
                 | Starting in Static Property Section (ABACUS) - |
                 `------------------------------------------------'


 
     Date and time (Linux)  : Wed Feb  5 08:17:08 2014 
     Host name              : fe8                                     


            +---------------------------------------------------------+
            ! Gradient elements calculated directly and from symmetry !
            +---------------------------------------------------------+



        Coordinate    Direct calc.     Tra.-rot. sym.   Difference
        ----------------------------------------------------------

        C    x        0.0215606902     0.0244810269    -0.0029203367
        C    z       -0.0000015268    -0.0000112654     0.0000097386
        C    z        0.0000020766     0.0000100320    -0.0000079554
        O    x       -0.0130309610    -0.0170111915     0.0039802305
        O    y        0.0360109368     0.0401260257    -0.0041150889
        O    z        0.0000059060     0.0000019638     0.0000039422



 >>> WARNING from TRAROT:

 Largest deviation from tra-rot symmetry is in gradient element 11:  4.12E-03


   ***************************************************************************
   ************************ FINAL RESULTS from ABACUS ************************
   ***************************************************************************


 
     Date and time (Linux)  : Wed Feb  5 08:17:51 2014 
     Host name              : fe8                                     

 WARNING: warnings have been issued, please check the output above !


                             Molecular geometry (au)
                             -----------------------

 C         -0.2746433464           -1.0332455534            0.0011470638
 C          2.4075280908           -1.7243202870           -0.0003155843
 C          3.0804727920           -4.1719294689           -0.0002494438
 O         -1.0584431615            1.1507997464            0.0010091138
 H         -1.6476597673           -2.6200277935            0.0023678268
 H          3.7878577518           -0.1916503544           -0.0013417055
 H          1.6611221762           -5.6704728374            0.0009146274
 H          5.0556277659           -4.7560230271           -0.0012717857





                        Molecular wave function and energy
                        ----------------------------------

     Spin multiplicity  1     State number       1     Total charge       0

     Total energy       -190.7945906686 au (Hartrees)
                         -5191.78491187 eV
                           -500931.1206 kJ/mol


                             Relativistic corrections
                             ------------------------

     Darwin correction:                          0.3732865703 au
     Mass-velocity correction:                  -0.4684039774 au

     Total relativistic correction:             -0.0951174071 au (0.0499%)
     Non-relativistic + relativistic energy:  -190.8897080757 au




                             Molecular gradient (au)
                             -----------------------

 C          0.0215606902           -0.0239021016           -0.0000015268
 C         -0.0133353986            0.0100055134            0.0000020766
 C          0.0038379638           -0.0092231903           -0.0000048828
 O         -0.0130309610            0.0360109368            0.0000059060
 H         -0.0087157438           -0.0128514410            0.0000076210
 H          0.0078353923            0.0072349909           -0.0000079257
 H         -0.0085327201           -0.0078509658            0.0000086669
 H          0.0114406710           -0.0035388313           -0.0000042098





                              Molecular Hessian (au)
                              ----------------------

           C    x      C    y      C    z      C    x      C    y      C    z

 C    x    0.396778
 C    y   -0.121598    0.540015
 C    z   -0.000081    0.000016    0.221227

 C    x   -0.258879   -0.079897    0.000101    0.490424
 C    y    0.124838    0.090148   -0.000132    0.144435    0.631449
 C    z    0.000029   -0.000005   -0.107434   -0.000240   -0.000134    0.139332

 C    x    0.035035    0.039739   -0.000008   -0.135149    0.062049    0.000048
 C    y    0.002308   -0.021699   -0.000003    0.053171   -0.453046    0.000028
 C    z   -0.000000   -0.000021    0.015052    0.000047    0.000025   -0.057304

 O    x    0.043400    0.297409   -0.000139    0.113275   -0.169900    0.000021
 O    y    0.105132   -0.427031    0.000019    0.003932   -0.024210    0.000003
 O    z   -0.000083   -0.000095   -0.069563   -0.000033    0.000112    0.039107

 H    x   -0.193876   -0.115675    0.000100   -0.017448   -0.026493    0.000029
 H    y   -0.121127   -0.181501    0.000096    0.008123    0.003852    0.000000
 H    z    0.000105    0.000091   -0.075007    0.000019    0.000022    0.019286

 H    x   -0.023040   -0.024310    0.000019   -0.202967   -0.140157    0.000110
 H    y    0.012043    0.006597   -0.000001   -0.138946   -0.224016    0.000103
 H    z    0.000022    0.000015    0.007283    0.000103    0.000101   -0.054558

 H    x    0.000781    0.002941   -0.000007    0.012541    0.006187   -0.000004
 H    y   -0.001796   -0.000290   -0.000000   -0.027111   -0.021095    0.000022
 H    z   -0.000003   -0.000003   -0.007989    0.000003    0.000002    0.007244

 H    x   -0.000199    0.001391    0.000009   -0.001797   -0.000960    0.000009
 H    y    0.000199   -0.006240    0.000004    0.036294   -0.003082   -0.000018
 H    z    0.000012    0.000003    0.016432    0.000000    0.000004    0.013126


           C    x      C    y      C    z      O    x      O    y      O    z

 C    x    0.672428
 C    y   -0.018378    0.789301
 C    z   -0.000309   -0.000101    0.159279

 O    x   -0.044048    0.012921    0.000005   -0.148618
 O    y    0.002537    0.014278    0.000001   -0.115154    0.465428
 O    z    0.000007   -0.000002   -0.009970    0.000119   -0.000043    0.025222

 H    x    0.000229   -0.001016   -0.000001    0.021724    0.011604   -0.000003
 H    y    0.000580    0.000873   -0.000001   -0.016987   -0.038609    0.000027
 H    z   -0.000002   -0.000001   -0.001421    0.000002    0.000012    0.021180

 H    x    0.013580    0.012034   -0.000007    0.011416   -0.006457   -0.000007
 H    y   -0.024381   -0.020436    0.000018   -0.007569    0.006598   -0.000001
 H    z   -0.000000   -0.000001    0.006082   -0.000009    0.000003   -0.003977

 H    x   -0.207908   -0.136206    0.000120    0.000001   -0.000976    0.000001
 H    y   -0.130626   -0.214283    0.000111   -0.001255    0.002999   -0.000001
 H    z    0.000119    0.000115   -0.054248   -0.000001    0.000001    0.000364

 H    x   -0.334168    0.075167    0.000146    0.000966   -0.000618   -0.000003
 H    y    0.068481   -0.094988   -0.000032    0.000536    0.000547   -0.000001
 H    z    0.000145   -0.000036   -0.057469   -0.000004   -0.000000   -0.004302


           H    x      H    y      H    z      H    x      H    y      H    z

 H    x    0.193786
 H    y    0.126947    0.215620
 H    z   -0.000127   -0.000122    0.033640

 H    x   -0.004900    0.002356    0.000004    0.205389
 H    y    0.002535   -0.000334   -0.000002    0.153633    0.234667
 H    z    0.000004   -0.000001    0.002690   -0.000122   -0.000117    0.037614

 H    x    0.000068    0.000163    0.000000   -0.000308    0.002273    0.000008
 H    y    0.001610   -0.000030   -0.000001    0.003406   -0.004196    0.000002
 H    z    0.000000    0.000000    0.000546    0.000006    0.000001    0.013082

 H    x    0.000416   -0.000055   -0.000001    0.000829    0.000413   -0.000005
 H    y    0.000487    0.000128   -0.000000   -0.000505    0.001118   -0.000002
 H    z   -0.000001   -0.000000   -0.000914   -0.000005   -0.000001   -0.008215


           H    x      H    y      H    z      H    x      H    y      H    z

 H    x    0.209660
 H    y    0.148650    0.225630
 H    z   -0.000135   -0.000128    0.034353

 H    x   -0.014835    0.007120    0.000011    0.348788
 H    y   -0.023033    0.011266    0.000013   -0.082459    0.091251
 H    z    0.000017   -0.000005    0.006648   -0.000166    0.000037    0.034694





                                  Dipole moment
                                  -------------

                 au               Debye          C m (/(10**-30)
              2.069913           5.261195          17.549457


                             Dipole moment components
                             ------------------------

                 au               Debye          C m (/(10**-30)

      x      1.00264546         2.54847039         8.50078221
      y     -1.81086818        -4.60276751       -15.35317982
      z     -0.00005623        -0.00014292        -0.00047673


   Units:   1 a.u. =   2.54175 Debye 
            1 a.u. =   8.47835 (10**-30) C m (SI)




   Interatomic separations (in Angstrom):
   --------------------------------------

            C           C           C           O           H           H     
            ------      ------      ------      ------      ------      ------
 C     :    0.000000
 C     :    1.465700    0.000000
 C     :    2.431231    1.343281    0.000000
 O     :    1.227919    2.383018    3.568007    0.000000
 H     :    1.110397    2.197637    2.633349    2.019650    0.000000
 H     :    2.195429    1.091490    2.139278    2.661125    3.150355    0.000000
 H     :    2.659139    2.125241    1.092234    3.885970    2.381489    3.110036
 H     :    3.440501    2.130137    1.089951    4.498704    3.722962    2.506800

            H           H     
            ------      ------
 H     :    0.000000
 H     :    1.860334    0.000000


  Max    interatomic separation is    4.4987 Angstrom (    8.5013 Bohr)
  between atoms    8 and    4, "H     " and "O     ".

  Min HX interatomic separation is    1.0900 Angstrom (    2.0597 Bohr)

  Min YX interatomic separation is    1.2279 Angstrom (    2.3204 Bohr)


  Bond distances (Angstrom):
  --------------------------

                  atom 1     atom 2       distance
                  ------     ------       --------
  bond distance:  C          C            1.465700
  bond distance:  C          C            1.343281
  bond distance:  O          C            1.227919
  bond distance:  H          C            1.110397
  bond distance:  H          C            1.091490
  bond distance:  H          C            1.092234
  bond distance:  H          C            1.089951


  Bond angles (degrees):
  ----------------------

                  atom 1     atom 2     atom 3         angle
                  ------     ------     ------         -----
  bond angle:     C          C          O            124.190
  bond angle:     C          C          H            116.421
  bond angle:     O          C          H            119.389
  bond angle:     C          C          C            119.821
  bond angle:     C          C          H            117.558
  bond angle:     C          C          H            122.621
  bond angle:     C          C          H            121.182
  bond angle:     C          C          H            121.847
  bond angle:     H          C          H            116.971




 CPU time statistics for ABACUS
 ------------------------------

 ONEINT     00:00:02       4 %
 TWOTEX     00:00:18      42 %
 RHSIDE     00:00:13      29 %
 RESPON     00:00:11      25 %

 TOTAL      00:00:43     100 %


 >>>> Total CPU  time used in ABACUS:  42.80 seconds
 >>>> Total wall time used in ABACUS:  42.93 seconds


                   .-------------------------------------------.
                   | End of Static Property Section (ABACUS) - |
                   `-------------------------------------------'

Initial Hessian is analytical Hessian

Initial Hessian has been calculated
 in cartesian coordinates.

 Calculated Hessian index  2 is reset to effective Hessian index  4
 because the difference corresponds to small negative eigenvalue(s) with a converged gradient component
 (probably a rotational coordinate .FREEZE)

 Predicted energy change       -0.053811711182994


  Step in diagonal representation
  -------------------------------


               Column   1     Column   2     Column   3     Column   4     Column   5
       1       0.49715374    -0.00001149    -0.00000750    -0.00083926     0.00349481

               Column   6     Column   7     Column   8     Column   9     Column  10
       1      -0.00001598     0.00053311    -0.00001137    -0.00143223     0.00000166

               Column  11     Column  12     Column  13     Column  14     Column  15
       1       0.00316071    -0.00177843    -0.00000064     0.00466403    -0.00756069

               Column  16     Column  17     Column  18     Column  19     Column  20
       1       0.00000851     0.03283093    -0.00000593     0.00531078    -0.02048015

               Column  21     Column  22     Column  23     Column  24
       1       0.01421272    -0.01045719     0.03007305     0.00163921
    ==== End of matrix output ====


           :::::::::::::::::::::::::::::::::::::::::::::::::::::::::::
           ::::::::::::::: Optimization Control Center :::::::::::::::
           :::::::::::::::::::::::::::::::::::::::::::::::::::::::::::



                                Next geometry (au)
                                ------------------

 C         -0.4236885214           -1.2090745312            0.0012683522
 C          2.2846461051           -1.5964508017           -0.0003050069
 C          3.0854204191           -4.1049325267           -0.0002462123
 O         -0.6773658762            1.0938697065            0.0007970010
 H         -1.7173527909           -2.6570867624            0.0024201178
 H          3.7342776459           -0.1601829778           -0.0013124850
 H          1.6863859226           -5.6407599057            0.0008941401
 H          5.0387181623           -4.7323669496           -0.0012660295





                             Optimization information
                             ------------------------

 Iteration number               :       0
 End of optimization            :       F 
 Energy at this geometry is     :    -190.794591
 Norm of gradient               :       0.059272
 Norm of step                   :       0.500013
 Updated trust radius           :       0.500000
 Hessian index (0)              :       2
 Total effective Hessian index  :       4




 **************************************************************************************
 ****************** Output of molecule and basis set info suppressed ******************
 **************************************************************************************



                     .---------------------------------------.
                     | Starting in Integral Section (HERMIT) |
                     `---------------------------------------'



    *************************************************************************
    ****************** Output from HERMIT input processing ******************
    *************************************************************************


 Threshold for neglecting two-electron integrals:  1.00D-12
 Number of two-electron integrals written:     5068001 ( 96.5% )
 Megabytes written:                             58.033

 >>>  Time used in TWOINT     is   1.83 seconds
 >>>> Total CPU  time used in HERMIT:   1.93 seconds
 >>>> Total wall time used in HERMIT:   1.96 seconds


                        .----------------------------------.
                        | End of Integral Section (HERMIT) |
                        `----------------------------------'



                   .--------------------------------------------.
                   | Starting in Wave Function Section (SIRIUS) |
                   `--------------------------------------------'


 **********************************************************************
 *SIRIUS* a direct, restricted step, second order MCSCF program       *
 **********************************************************************

 (Wave function specification suppressed here, see output above for initial geometry.)


 >>>>> DIIS optimization of Hartree-Fock <<<<<

 C1-DIIS algorithm; max error vectors =    5

 Iter      Total energy     Embedding energy      Error norm     Delta(E)
 -----------------------------------------------------------------------------
     (Precalculated two-electron integrals are transformed to P-supermatrix elements.
      Threshold for discarding integrals :  1.00D-12 )
 >>>  Time used in FORMSUP    is   0.33 seconds
@  1  -190.720894385     -3.092680928666E-02    6.41756D-01    7.37D-02
      Virial theorem: -V/T =      2.000534
@      MULPOP C       0.25; C      -0.16; C      -0.42; O      -0.69; H       0.24; H       0.31; H       0.23; H       0.24; 
 -----------------------------------------------------------------------------
@  2  -190.752426955     -2.965517047278E-02    1.70423D-01   -3.15D-02
      Virial theorem: -V/T =      2.001413
@      MULPOP C       0.17; C      -0.15; C      -0.39; O      -0.63; H       0.25; H       0.31; H       0.21; H       0.23; 
 -----------------------------------------------------------------------------
@  3  -190.755088502     -3.035595548464E-02    7.17374D-02   -2.66D-03
      Virial theorem: -V/T =      2.000863
@      MULPOP C       0.21; C      -0.18; C      -0.38; O      -0.66; H       0.25; H       0.31; H       0.21; H       0.23; 
 -----------------------------------------------------------------------------
@  4  -190.755385121     -2.972577652001E-02    2.08831D-02   -2.97D-04
      Virial theorem: -V/T =      2.001271
@      MULPOP C       0.19; C      -0.18; C      -0.38; O      -0.64; H       0.26; H       0.31; H       0.20; H       0.23; 
 -----------------------------------------------------------------------------
@  5  -190.755415637     -2.985288482054E-02    5.14947D-03   -3.05D-05
      Virial theorem: -V/T =      2.001169
@      MULPOP C       0.19; C      -0.18; C      -0.38; O      -0.64; H       0.26; H       0.31; H       0.20; H       0.23; 
 -----------------------------------------------------------------------------
@  6  -190.755417928     -2.982793448208E-02    1.11584D-03   -2.29D-06
      Virial theorem: -V/T =      2.001185
@      MULPOP C       0.19; C      -0.18; C      -0.39; O      -0.64; H       0.26; H       0.31; H       0.20; H       0.23; 
 -----------------------------------------------------------------------------
@  7  -190.755418116     -2.982846092891E-02    3.78537D-04   -1.89D-07
      Virial theorem: -V/T =      2.001185
@      MULPOP C       0.19; C      -0.18; C      -0.39; O      -0.64; H       0.26; H       0.31; H       0.20; H       0.23; 
 -----------------------------------------------------------------------------
@  8  -190.755418135     -2.982720338184E-02    1.67010D-04   -1.86D-08
      Virial theorem: -V/T =      2.001185
@      MULPOP C       0.19; C      -0.18; C      -0.39; O      -0.64; H       0.26; H       0.31; H       0.20; H       0.23; 
 -----------------------------------------------------------------------------
@  9  -190.755418138     -2.982768221182E-02    5.28755D-05   -2.83D-09
      Virial theorem: -V/T =      2.001185
@      MULPOP C       0.19; C      -0.18; C      -0.39; O      -0.64; H       0.26; H       0.31; H       0.20; H       0.23; 
 -----------------------------------------------------------------------------
@ 10  -190.755418138     -2.982727152267E-02    2.66073D-05   -3.52D-10
      Virial theorem: -V/T =      2.001185
@      MULPOP C       0.19; C      -0.18; C      -0.39; O      -0.64; H       0.26; H       0.31; H       0.20; H       0.23; 
 -----------------------------------------------------------------------------
@ 11  -190.755418138     -2.982739976043E-02    9.74671D-06   -5.11D-11

@ *** DIIS converged in  11 iterations !
@     Converged SCF energy, gradient:   -190.755418137979    9.75D-06
    - total time used in SIRFCK :              0.00 seconds


 *** SCF orbital energy analysis ***
   (incl. contribution from polarizable embedding potential)

 Only the five lowest virtual orbital energies printed in each symmetry.

 Number of electrons :   30
 Orbital occupations :   15

 Sym       Hartree-Fock orbital energies

  1    -20.59465038   -11.36207288   -11.28083854   -11.26315786    -1.42544288
        -1.08082913    -0.90309588    -0.82624489    -0.70291370    -0.67969749
        -0.61404756    -0.57183483    -0.56067339    -0.45993836    -0.38575486
         0.05692180     0.07327131     0.09377441     0.10061680     0.10333997

    E(LUMO) :     0.05692180 au (symmetry 1)
  - E(HOMO) :    -0.38575486 au (symmetry 1)
  ------------------------------------------
    gap     :     0.44267666 au

      Polarizable embedding energy contributions:
     ---------------------------------------------

       Electrostatic contributions:
         Monopoles                 -0.026820764691
         Dipoles                    0.006222040419
         Quadrupoles               -0.008448483761
         Octopoles                 -0.001992499412

       Polarization contributions:
         Electronic                -0.079828744799
         Nuclear                    0.076879806123
         Multipole                  0.000234988421

       LJ energy contribution:
         Dispersion 6              -0.005868171090
         Repulsion 12               0.009794429029

       Total PE energy:            -0.029827399760

 >>> Writing SIRIFC interface file <<<

 >>>> CPU and wall time for SCF :       2.742       2.760


                       .-----------------------------------.
                       | >>> Final results from SIRIUS <<< |
                       `-----------------------------------'


@    Spin multiplicity:           1
@    Spatial symmetry:            1
@    Total charge of molecule:    0

@    Final HF energy:            -190.755418137979                 
@    Nuclear repulsion:           104.473062042662
@    Electronic energy:          -295.198652780881
@    Embedding energy:             -0.029827399760

@    Final gradient norm:           0.000009746710

 
     Date and time (Linux)  : Wed Feb  5 08:17:55 2014 
     Host name              : fe8                                     



 >>>> Total CPU  time used in SIRIUS :      2.76 seconds
 >>>> Total wall time used in SIRIUS :      2.78 seconds

 
     Date and time (Linux)  : Wed Feb  5 08:17:55 2014 
     Host name              : fe8                                     


                     .---------------------------------------.
                     | End of Wave Function Section (SIRIUS) |
                     `---------------------------------------'


 Step rejected because ratio between
        actual energy change :    0.03917253
 and predicted energy change :   -0.05381171
                          is :         -0.73
 Minimum for quadratic model :     0.250000
 Norm of new step            :     0.125003


 **************************************************************************************
 ****************** Output of molecule and basis set info suppressed ******************
 **************************************************************************************



                     .---------------------------------------.
                     | Starting in Integral Section (HERMIT) |
                     `---------------------------------------'



    *************************************************************************
    ****************** Output from HERMIT input processing ******************
    *************************************************************************


 Threshold for neglecting two-electron integrals:  1.00D-12
 Number of two-electron integrals written:     5040539 ( 96.0% )
 Megabytes written:                             57.717

 >>>  Time used in TWOINT     is   1.82 seconds
 >>>> Total CPU  time used in HERMIT:   1.92 seconds
 >>>> Total wall time used in HERMIT:   1.95 seconds


                        .----------------------------------.
                        | End of Integral Section (HERMIT) |
                        `----------------------------------'



                   .--------------------------------------------.
                   | Starting in Wave Function Section (SIRIUS) |
                   `--------------------------------------------'


 **********************************************************************
 *SIRIUS* a direct, restricted step, second order MCSCF program       *
 **********************************************************************

 (Wave function specification suppressed here, see output above for initial geometry.)


 >>>>> DIIS optimization of Hartree-Fock <<<<<

 C1-DIIS algorithm; max error vectors =    5

 Iter      Total energy     Embedding energy      Error norm     Delta(E)
 -----------------------------------------------------------------------------
     (Precalculated two-electron integrals are transformed to P-supermatrix elements.
      Threshold for discarding integrals :  1.00D-12 )
 >>>  Time used in FORMSUP    is   0.31 seconds
@  1  -190.773439067     -3.316256290427E-02    4.80872D-01   -1.80D-02
      Virial theorem: -V/T =      2.001759
@      MULPOP C       0.19; C      -0.17; C      -0.37; O      -0.65; H       0.26; H       0.31; H       0.20; H       0.23; 
 -----------------------------------------------------------------------------
@  2  -190.791264427     -3.301559983689E-02    1.21926D-01   -1.78D-02
      Virial theorem: -V/T =      2.001729
@      MULPOP C       0.23; C      -0.18; C      -0.39; O      -0.67; H       0.25; H       0.32; H       0.21; H       0.24; 
 -----------------------------------------------------------------------------
@  3  -190.792796322     -3.260666240458E-02    3.05597D-02   -1.53D-03
      Virial theorem: -V/T =      2.002038
@      MULPOP C       0.20; C      -0.16; C      -0.40; O      -0.66; H       0.25; H       0.31; H       0.22; H       0.24; 
 -----------------------------------------------------------------------------
@  4  -190.792867353     -3.279578300989E-02    1.32771D-02   -7.10D-05
      Virial theorem: -V/T =      2.001838
@      MULPOP C       0.21; C      -0.16; C      -0.40; O      -0.67; H       0.24; H       0.31; H       0.22; H       0.24; 
 -----------------------------------------------------------------------------
@  5  -190.792878231     -3.270434701030E-02    3.20941D-03   -1.09D-05
      Virial theorem: -V/T =      2.001905
@      MULPOP C       0.21; C      -0.16; C      -0.40; O      -0.67; H       0.24; H       0.31; H       0.22; H       0.24; 
 -----------------------------------------------------------------------------
@  6  -190.792879117     -3.273359968542E-02    1.10657D-03   -8.86D-07
      Virial theorem: -V/T =      2.001894
@      MULPOP C       0.21; C      -0.16; C      -0.40; O      -0.67; H       0.24; H       0.31; H       0.22; H       0.24; 
 -----------------------------------------------------------------------------
@  7  -190.792879246     -3.273720322866E-02    3.40223D-04   -1.30D-07
      Virial theorem: -V/T =      2.001896
@      MULPOP C       0.21; C      -0.16; C      -0.40; O      -0.67; H       0.24; H       0.31; H       0.22; H       0.24; 
 -----------------------------------------------------------------------------
@  8  -190.792879268     -3.274216563125E-02    1.13761D-04   -2.14D-08
      Virial theorem: -V/T =      2.001896
@      MULPOP C       0.21; C      -0.16; C      -0.40; O      -0.67; H       0.24; H       0.31; H       0.22; H       0.24; 
 -----------------------------------------------------------------------------
@  9  -190.792879270     -3.274433305648E-02    5.20170D-05   -2.42D-09
      Virial theorem: -V/T =      2.001896
@      MULPOP C       0.21; C      -0.16; C      -0.40; O      -0.67; H       0.24; H       0.31; H       0.22; H       0.24; 
 -----------------------------------------------------------------------------
@ 10  -190.792879270     -3.274487295328E-02    1.60912D-05   -3.21D-10
      Virial theorem: -V/T =      2.001896
@      MULPOP C       0.21; C      -0.16; C      -0.40; O      -0.67; H       0.24; H       0.31; H       0.22; H       0.24; 
 -----------------------------------------------------------------------------
@ 11  -190.792879271     -3.274518965277E-02    4.80675D-06   -5.76D-11

@ *** DIIS converged in  11 iterations !
@     Converged SCF energy, gradient:   -190.792879270502    4.81D-06
    - total time used in SIRFCK :              0.00 seconds


 *** SCF orbital energy analysis ***
   (incl. contribution from polarizable embedding potential)

 Only the five lowest virtual orbital energies printed in each symmetry.

 Number of electrons :   30
 Orbital occupations :   15

 Sym       Hartree-Fock orbital energies

  1    -20.60245487   -11.36634014   -11.28793591   -11.26670225    -1.42539961
        -1.09726715    -0.90432118    -0.80920133    -0.69775960    -0.68653082
        -0.61934119    -0.57259455    -0.56949702    -0.46969258    -0.40537292
         0.05310689     0.07156590     0.09534796     0.10139545     0.10279010

    E(LUMO) :     0.05310689 au (symmetry 1)
  - E(HOMO) :    -0.40537292 au (symmetry 1)
  ------------------------------------------
    gap     :     0.45847981 au

      Polarizable embedding energy contributions:
     ---------------------------------------------

       Electrostatic contributions:
         Monopoles                 -0.028068121409
         Dipoles                    0.006810510371
         Quadrupoles               -0.008996232209
         Octopoles                 -0.002577539152

       Polarization contributions:
         Electronic                -0.085337931266
         Nuclear                    0.082180577003
         Multipole                  0.000252504764

       LJ energy contribution:
         Dispersion 6              -0.005733714394
         Repulsion 12               0.008724756639

       Total PE energy:            -0.032745189653

 >>> Writing SIRIFC interface file <<<

 >>>> CPU and wall time for SCF :       2.734       2.754


                       .-----------------------------------.
                       | >>> Final results from SIRIUS <<< |
                       `-----------------------------------'


@    Spin multiplicity:           1
@    Spatial symmetry:            1
@    Total charge of molecule:    0

@    Final HF energy:            -190.792879270502                 
@    Nuclear repulsion:           103.208349422712
@    Electronic energy:          -293.968483503561
@    Embedding energy:             -0.032745189653

@    Final gradient norm:           0.000004806751

 
     Date and time (Linux)  : Wed Feb  5 08:18:00 2014 
     Host name              : fe8                                     



 >>>> Total CPU  time used in SIRIUS :      2.75 seconds
 >>>> Total wall time used in SIRIUS :      2.77 seconds

 
     Date and time (Linux)  : Wed Feb  5 08:18:00 2014 
     Host name              : fe8                                     


                     .---------------------------------------.
                     | End of Wave Function Section (SIRIUS) |
                     `---------------------------------------'


Step rejected because energy is increasing.
 Updated trust radius   0.12500
 Minimum for quadratic model :     0.402710
 Norm of new step            :     0.050340


 **************************************************************************************
 ****************** Output of molecule and basis set info suppressed ******************
 **************************************************************************************



                     .---------------------------------------.
                     | Starting in Integral Section (HERMIT) |
                     `---------------------------------------'



    *************************************************************************
    ****************** Output from HERMIT input processing ******************
    *************************************************************************


 Threshold for neglecting two-electron integrals:  1.00D-12
 Number of two-electron integrals written:     5034090 ( 95.9% )
 Megabytes written:                             57.648

 >>>  Time used in TWOINT     is   1.81 seconds
 >>>> Total CPU  time used in HERMIT:   1.92 seconds
 >>>> Total wall time used in HERMIT:   1.94 seconds


                        .----------------------------------.
                        | End of Integral Section (HERMIT) |
                        `----------------------------------'



                   .--------------------------------------------.
                   | Starting in Wave Function Section (SIRIUS) |
                   `--------------------------------------------'


 **********************************************************************
 *SIRIUS* a direct, restricted step, second order MCSCF program       *
 **********************************************************************

 (Wave function specification suppressed here, see output above for initial geometry.)


 >>>>> DIIS optimization of Hartree-Fock <<<<<

 C1-DIIS algorithm; max error vectors =    5

 Iter      Total energy     Embedding energy      Error norm     Delta(E)
 -----------------------------------------------------------------------------
     (Precalculated two-electron integrals are transformed to P-supermatrix elements.
      Threshold for discarding integrals :  1.00D-12 )
 >>>  Time used in FORMSUP    is   0.31 seconds
@  1  -190.793774751     -3.311997344827E-02    9.53119D-02   -8.95D-04
      Virial theorem: -V/T =      2.002020
@      MULPOP C       0.21; C      -0.15; C      -0.39; O      -0.67; H       0.24; H       0.31; H       0.22; H       0.24; 
 -----------------------------------------------------------------------------
@  2  -190.794463775     -3.311147524624E-02    2.41997D-02   -6.89D-04
      Virial theorem: -V/T =      2.002069
@      MULPOP C       0.22; C      -0.16; C      -0.40; O      -0.67; H       0.24; H       0.31; H       0.22; H       0.24; 
 -----------------------------------------------------------------------------
@  3  -190.794524000     -3.307653368157E-02    5.84187D-03   -6.02D-05
      Virial theorem: -V/T =      2.002067
@      MULPOP C       0.22; C      -0.15; C      -0.40; O      -0.67; H       0.24; H       0.31; H       0.22; H       0.24; 
 -----------------------------------------------------------------------------
@  4  -190.794527129     -3.309140972035E-02    2.07635D-03   -3.13D-06
      Virial theorem: -V/T =      2.002060
@      MULPOP C       0.22; C      -0.15; C      -0.40; O      -0.67; H       0.24; H       0.31; H       0.22; H       0.24; 
 -----------------------------------------------------------------------------
@  5  -190.794527481     -3.308594719258E-02    5.82407D-04   -3.53D-07
      Virial theorem: -V/T =      2.002066
@      MULPOP C       0.22; C      -0.15; C      -0.40; O      -0.67; H       0.24; H       0.31; H       0.22; H       0.24; 
 -----------------------------------------------------------------------------
@  6  -190.794527512     -3.309208746576E-02    2.68824D-04   -3.09D-08
      Virial theorem: -V/T =      2.002062
@      MULPOP C       0.22; C      -0.15; C      -0.40; O      -0.67; H       0.24; H       0.31; H       0.22; H       0.24; 
 -----------------------------------------------------------------------------
@  7  -190.794527520     -3.309290284039E-02    8.17244D-05   -7.48D-09
      Virial theorem: -V/T =      2.002063
@      MULPOP C       0.22; C      -0.15; C      -0.40; O      -0.67; H       0.24; H       0.31; H       0.22; H       0.24; 
 -----------------------------------------------------------------------------
@  8  -190.794527521     -3.309468473065E-02    4.80510D-05   -1.50D-09
      Virial theorem: -V/T =      2.002063
@      MULPOP C       0.22; C      -0.15; C      -0.40; O      -0.67; H       0.24; H       0.31; H       0.22; H       0.24; 
 -----------------------------------------------------------------------------
@  9  -190.794527522     -3.309509677680E-02    1.41308D-05   -2.73D-10
      Virial theorem: -V/T =      2.002063
@      MULPOP C       0.22; C      -0.15; C      -0.40; O      -0.67; H       0.24; H       0.31; H       0.22; H       0.24; 
 -----------------------------------------------------------------------------
@ 10  -190.794527522     -3.309537895203E-02    6.53826D-06   -4.27D-11

@ *** DIIS converged in  10 iterations !
@     Converged SCF energy, gradient:   -190.794527521648    6.54D-06
    - total time used in SIRFCK :              0.00 seconds


 *** SCF orbital energy analysis ***
   (incl. contribution from polarizable embedding potential)

 Only the five lowest virtual orbital energies printed in each symmetry.

 Number of electrons :   30
 Orbital occupations :   15

 Sym       Hartree-Fock orbital energies

  1    -20.60408605   -11.36850203   -11.28926992   -11.26836422    -1.42325025
        -1.10054810    -0.90545784    -0.80608853    -0.69715394    -0.68658549
        -0.62072405    -0.57153100    -0.57106671    -0.46909663    -0.40919728
         0.05176725     0.07119117     0.09549887     0.10089755     0.10294356

    E(LUMO) :     0.05176725 au (symmetry 1)
  - E(HOMO) :    -0.40919728 au (symmetry 1)
  ------------------------------------------
    gap     :     0.46096454 au

      Polarizable embedding energy contributions:
     ---------------------------------------------

       Electrostatic contributions:
         Monopoles                 -0.028310890507
         Dipoles                    0.006901125574
         Quadrupoles               -0.009082696688
         Octopoles                 -0.002647507153

       Polarization contributions:
         Electronic                -0.086517919546
         Nuclear                    0.083305634752
         Multipole                  0.000255827613

       LJ energy contribution:
         Dispersion 6              -0.005736015774
         Repulsion 12               0.008737062777

       Total PE energy:            -0.033095378952

 >>> Writing SIRIFC interface file <<<

 >>>> CPU and wall time for SCF :       2.534       2.553


                       .-----------------------------------.
[...]
        -1.10508973    -0.90662009    -0.81044711    -0.70372320    -0.69249183
        -0.62710293    -0.58091817    -0.57283536    -0.46888456    -0.41358021
         0.05687150     0.07202573     0.09472289     0.10186367     0.10318832

    E(LUMO) :     0.05687150 au (symmetry 1)
  - E(HOMO) :    -0.41358021 au (symmetry 1)
  ------------------------------------------
    gap     :     0.47045171 au

      Polarizable embedding energy contributions:
     ---------------------------------------------

       Electrostatic contributions:
         Monopoles                 -0.030164908451
         Dipoles                    0.007113073078
         Quadrupoles               -0.008541919477
         Octopoles                 -0.002866539692

       Polarization contributions:
         Electronic                -0.087571957814
         Nuclear                    0.084103488964
         Multipole                  0.000264420452

       LJ energy contribution:
         Dispersion 6              -0.006594987309
         Repulsion 12               0.010721620992

       Total PE energy:            -0.033537709258

 >>> Writing SIRIFC interface file <<<

 >>>> CPU and wall time for SCF :       1.916       1.937


                       .-----------------------------------.
                       | >>> Final results from SIRIUS <<< |
                       `-----------------------------------'


@    Spin multiplicity:           1
@    Spatial symmetry:            1
@    Total charge of molecule:    0

@    Final HF energy:            -190.797428827048                 
@    Nuclear repulsion:           103.756514085730
@    Electronic energy:          -294.520405203520
@    Embedding energy:             -0.033537709258

@    Final gradient norm:           0.000006671773

 
     Date and time (Linux)  : Wed Feb  5 08:25:15 2014 
     Host name              : fe8                                     



 >>>> Total CPU  time used in SIRIUS :      1.93 seconds
 >>>> Total wall time used in SIRIUS :      1.95 seconds

 
     Date and time (Linux)  : Wed Feb  5 08:25:15 2014 
     Host name              : fe8                                     


                     .---------------------------------------.
                     | End of Wave Function Section (SIRIUS) |
                     `---------------------------------------'

 Trust radius set equal to norm of step.
 Updated trust radius   0.00535

     Order of analytical energy-derivatives available:   1
     This will be the default.

 Center of mass dipole origin  :    1.042416   -1.037068    0.033533

 Center of mass gauge origin   :    1.042416   -1.037068    0.033533


                 .------------------------------------------------.
                 | Starting in Static Property Section (ABACUS) - |
                 `------------------------------------------------'


 
     Date and time (Linux)  : Wed Feb  5 08:25:15 2014 
     Host name              : fe8                                     


            +---------------------------------------------------------+
            ! Gradient elements calculated directly and from symmetry !
            +---------------------------------------------------------+



        Coordinate    Direct calc.     Tra.-rot. sym.   Difference
        ----------------------------------------------------------

        C    x       -0.0000132857     0.0000192742    -0.0000325599
        C    z       -0.0000100051     0.0000086436    -0.0000186487
        C    z       -0.0000026569     0.0000046920    -0.0000073489
        O    x        0.0000048864    -0.0000119078     0.0000167942
        O    y       -0.0000189645    -0.0000182150    -0.0000007495
        O    z        0.0000057097    -0.0000091014     0.0000148111



 >>> WARNING from TRAROT:

 Largest deviation from tra-rot symmetry is in gradient element  1:  3.26E-05


   ***************************************************************************
   ************************ FINAL RESULTS from ABACUS ************************
   ***************************************************************************


 
     Date and time (Linux)  : Wed Feb  5 08:25:22 2014 
     Host name              : fe8                                     

 WARNING: warnings have been issued, please check the output above !


 CPU time statistics for ABACUS
 ------------------------------

 ONEINT     00:00:01      21 %
 TWOTEX     00:00:05      78 %

 TOTAL      00:00:07     100 %


 >>>> Total CPU  time used in ABACUS:   6.86 seconds
 >>>> Total wall time used in ABACUS:   6.87 seconds


                   .-------------------------------------------.
                   | End of Static Property Section (ABACUS) - |
                   `-------------------------------------------'


 Predicted energy change       -0.000000031405221


  Step in diagonal representation
  -------------------------------


               Column   1     Column   2     Column   3     Column   4     Column   5
       1       0.00484824     0.00210959    -0.00074018    -0.00012142     0.00031347

               Column   6     Column   7     Column   8     Column   9     Column  10
       1       0.00013243     0.00001622    -0.00008546    -0.00003867    -0.00003021

               Column  11     Column  12     Column  13     Column  14     Column  15
       1      -0.00000314     0.00000895     0.00005970     0.00003355     0.00000100

               Column  16     Column  17     Column  18     Column  19     Column  20
       1      -0.00002426    -0.00004254    -0.00009609    -0.00002263     0.00001990

               Column  21     Column  22     Column  23     Column  24
       1       0.00001644    -0.00000199    -0.00002985     0.00001601
    ==== End of matrix output ====


           :::::::::::::::::::::::::::::::::::::::::::::::::::::::::::
           ::::::::::::::: Optimization Control Center :::::::::::::::
           :::::::::::::::::::::::::::::::::::::::::::::::::::::::::::



                               Final geometry (au)
                               -------------------

 C         -0.2371535461           -0.7493870329            0.0264503990
 C          2.4848502235           -1.2871980809            0.0426250514
 C          3.2961459737           -3.6579753986            0.0586526966
 O         -1.1071367126            1.3569940289            0.0089116892
 H         -1.5092465580           -2.3666140007            0.0308385551
 H          3.7385771735            0.3196334463            0.0403814485
 H          2.0052247340           -5.2307205002            0.0605554576
 H          5.2760910320           -4.1065143210            0.0701172559





                             Optimization information
                             ------------------------

 Iteration number               :      36
 End of optimization            :       T 
 Energy at this geometry is     :    -190.797429
 Energy change from last geom.  :      -0.000000
 Norm of gradient               :       0.000080
 Norm of step                   :       0.005354
 Updated trust radius           :       0.005354
 Total effective Hessian index  :       0




          <<<<<<<<<<<<<<<<<<<<<<<<<<<<<<<<<<<<<<<<<<<<<<<<<<<<<<<<<<<<<<
          <<<<<<<<<<<<<<<<<<<<  End of Optimization <<<<<<<<<<<<<<<<<<<<
          <<<<<<<<<<<<<<<<<<<<<<<<<<<<<<<<<<<<<<<<<<<<<<<<<<<<<<<<<<<<<<



                                  Final geometry
                                  --------------

 C         -0.2371535461           -0.7493870329            0.0264503990
 C          2.4848502235           -1.2871980809            0.0426250514
 C          3.2961459737           -3.6579753986            0.0586526966
 O         -1.1071367126            1.3569940289            0.0089116892
 H         -1.5092465580           -2.3666140007            0.0308385551
 H          3.7385771735            0.3196334463            0.0403814485
 H          2.0052247340           -5.2307205002            0.0605554576
 H          5.2760910320           -4.1065143210            0.0701172559



@ Iter      Energy        Change       GradNorm  Index   StepLen    TrustRad #Rej
@ -------------------------------------------------------------------------------
@   0     -190.794591     0.000000     0.059272    2    0.024948*   0.500000   3 
@   1     -190.794664    -0.000074     0.058264    3    0.024948    0.024948   0 
@   2     -190.795738    -0.001073     0.029161    3    0.029937    0.029937   0 
@   3     -190.796337    -0.000600     0.013265    3    0.043110    0.043110   0 
@   4     -190.796614    -0.000276     0.002566    3    0.062078    0.062078   0 
@   5     -190.796703    -0.000089     0.001620    3    0.074493    0.074493   0 
@   6     -190.796797    -0.000094     0.002096    3    0.089392    0.089392   0 
@   7     -190.796845    -0.000048     0.007102    2    0.089392    0.089392   0 
@   8     -190.796987    -0.000142     0.001986    2    0.128724    0.128724   0 
@   9     -190.797102    -0.000115     0.001235    2    0.185360*   0.185362   0 
@  10     -190.797203    -0.000101     0.002143    2    0.185359    0.185360   0 
@  11     -190.797249    -0.000046     0.003266    1    0.129750*   0.129751   0 
@  12     -190.797316    -0.000067     0.002096    1    0.155701    0.155699   0 
@  13     -190.797348    -0.000032     0.002393    1    0.155697*   0.155701   0 
@  14     -190.797380    -0.000031     0.002174    1    0.155705    0.155697   0 
@  15     -190.797383    -0.000004     0.004044    1    0.000874*   0.108993   5#
@  16     -190.797382     0.000001     0.006273    0    0.000874    0.000874   0 
@  17     -190.797385    -0.000003     0.005332    0    0.001049    0.001049   0 
@  18     -190.797390    -0.000005     0.003709    0    0.001510    0.001510   0 
@  19     -190.797394    -0.000004     0.001968    0    0.002175    0.002175   0 
@  20     -190.797397    -0.000003     0.001287    0    0.003132    0.003132   0 
@  21     -190.797399    -0.000002     0.001348    0    0.003759    0.003759   0 
@  22     -190.797401    -0.000002     0.001332    0    0.004510    0.004510   0 
@  23     -190.797403    -0.000002     0.001100    0    0.005412    0.005412   0 
@  24     -190.797405    -0.000002     0.000703    0    0.006495    0.006495   0 
@  25     -190.797407    -0.000002     0.000373    0    0.009352    0.009352   0 
@  26     -190.797409    -0.000002     0.000224    0    0.013467    0.013467   0 
@  27     -190.797411    -0.000002     0.000168    0    0.019393    0.019393   0 
@  28     -190.797414    -0.000003     0.000157    0    0.027926    0.027926   0 
@  29     -190.797417    -0.000003     0.000141    0    0.040214    0.040213   0 
@  30     -190.797421    -0.000004     0.000122    0    0.057906*   0.057909   0 
@  31     -190.797425    -0.000004     0.000084    0    0.083393    0.083385   0 
@  32     -190.797428    -0.000003     0.000178    0    0.022768*   0.120086   2 
@  33     -190.797428    -0.000000     0.000243    0    0.022769    0.022768   0 
@  34     -190.797429    -0.000000     0.000197    0    0.005354*   0.022769   2 
@  35     -190.797429    -0.000000     0.000158    0    0.005354    0.005354   0 
@  36     -190.797429    -0.000000     0.000080    0    0.005354    0.005354   0 

@  *) Newton step taken.
@  #) Hessian initialized to unity.


   Interatomic separations (in Angstrom):
   --------------------------------------

            C           C           C           O           H           H     
            ------      ------      ------      ------      ------      ------
 C     :    0.000000
 C     :    1.468293    0.000000
 C     :    2.421824    1.326013    0.000000
 O     :    1.206016    2.360347    3.531690    0.000000
 H     :    1.088828    2.189418    2.633165    1.981939    0.000000
 H     :    2.178606    1.078502    2.117863    2.622395    3.119708    0.000000
 H     :    2.651794    2.102221    1.076717    3.855645    2.399193    3.077035
 H     :    3.415882    2.099462    1.074308    4.446325    3.706870    2.479556

            H           H     
            ------      ------
 H     :    0.000000
 H     :    1.830257    0.000000


  Max    interatomic separation is    4.4463 Angstrom (    8.4023 Bohr)
  between atoms    8 and    4, "H     " and "O     ".

  Min HX interatomic separation is    1.0743 Angstrom (    2.0301 Bohr)

  Min YX interatomic separation is    1.2060 Angstrom (    2.2790 Bohr)


  Bond distances (Angstrom):
  --------------------------

                  atom 1     atom 2       distance
                  ------     ------       --------
  bond distance:  C          C            1.468293
  bond distance:  C          C            1.326013
  bond distance:  O          C            1.206016
  bond distance:  H          C            1.088828
  bond distance:  H          C            1.078502
  bond distance:  H          C            1.076717
  bond distance:  H          C            1.074308


  Bond angles (degrees):
  ----------------------

                  atom 1     atom 2     atom 3         angle
                  ------     ------     ------         -----
  bond angle:     C          C          O            123.620
  bond angle:     C          C          H            117.010
  bond angle:     O          C          H            119.370
  bond angle:     C          C          C            120.069
  bond angle:     C          C          H            116.786
  bond angle:     C          C          H            123.145
  bond angle:     C          C          H            121.729
  bond angle:     C          C          H            121.657
  bond angle:     H          C          H            116.614



@ Geometry converged in 37 iterations!

@ Energy at final geometry is       :    -190.797429 a.u.
@ Energy change during optimization :      -0.002838 a.u.
@                                             -7.452 kJ/mol


 Center of mass dipole origin  :    1.042416   -1.037068    0.033533

 Center of mass gauge origin   :    1.042416   -1.037068    0.033533

     Order of analytical energy-derivatives available:   1
     This will be the default.


                 .------------------------------------------------.
                 | Starting in Static Property Section (ABACUS) - |
                 `------------------------------------------------'


 
     Date and time (Linux)  : Wed Feb  5 08:25:22 2014 
     Host name              : fe8                                     


   ***************************************************************************
   ************************ FINAL RESULTS from ABACUS ************************
   ***************************************************************************


 
     Date and time (Linux)  : Wed Feb  5 08:25:22 2014 
     Host name              : fe8                                     


                             Molecular geometry (au)
                             -----------------------

 C         -0.2371535461           -0.7493870329            0.0264503990
 C          2.4848502235           -1.2871980809            0.0426250514
 C          3.2961459737           -3.6579753986            0.0586526966
 O         -1.1071367126            1.3569940289            0.0089116892
 H         -1.5092465580           -2.3666140007            0.0308385551
 H          3.7385771735            0.3196334463            0.0403814485
 H          2.0052247340           -5.2307205002            0.0605554576
 H          5.2760910320           -4.1065143210            0.0701172559





                        Molecular wave function and energy
                        ----------------------------------

     Spin multiplicity  1     State number       1     Total charge       0

     Total energy       -190.7974288270 au (Hartrees)
                         -5191.86214209 eV
                           -500938.5722 kJ/mol


                             Relativistic corrections
                             ------------------------

     Darwin correction:                          0.3733293000 au
     Mass-velocity correction:                  -0.4684952071 au

     Total relativistic correction:             -0.0951659071 au (0.0499%)
     Non-relativistic + relativistic energy:  -190.8925947342 au




                                  Dipole moment
                                  -------------

                 au               Debye          C m (/(10**-30)
              1.986793           5.049925          16.844736


                             Dipole moment components
                             ------------------------

                 au               Debye          C m (/(10**-30)

      x      1.05864212         2.69079969         8.97554163
      y     -1.68118766        -4.27315253       -14.25370256
      z      0.01526097         0.03878951         0.12938787


   Units:   1 a.u. =   2.54175 Debye 
            1 a.u. =   8.47835 (10**-30) C m (SI)




   Interatomic separations (in Angstrom):
   --------------------------------------

            C           C           C           O           H           H     
            ------      ------      ------      ------      ------      ------
 C     :    0.000000
 C     :    1.468293    0.000000
 C     :    2.421824    1.326013    0.000000
 O     :    1.206016    2.360347    3.531690    0.000000
 H     :    1.088828    2.189418    2.633165    1.981939    0.000000
 H     :    2.178606    1.078502    2.117863    2.622395    3.119708    0.000000
 H     :    2.651794    2.102221    1.076717    3.855645    2.399193    3.077035
 H     :    3.415882    2.099462    1.074308    4.446325    3.706870    2.479556

            H           H     
            ------      ------
 H     :    0.000000
 H     :    1.830257    0.000000


  Max    interatomic separation is    4.4463 Angstrom (    8.4023 Bohr)
  between atoms    8 and    4, "H     " and "O     ".

  Min HX interatomic separation is    1.0743 Angstrom (    2.0301 Bohr)

  Min YX interatomic separation is    1.2060 Angstrom (    2.2790 Bohr)


  Bond distances (Angstrom):
  --------------------------

                  atom 1     atom 2       distance
                  ------     ------       --------
  bond distance:  C          C            1.468293
  bond distance:  C          C            1.326013
  bond distance:  O          C            1.206016
  bond distance:  H          C            1.088828
  bond distance:  H          C            1.078502
  bond distance:  H          C            1.076717
  bond distance:  H          C            1.074308


  Bond angles (degrees):
  ----------------------

                  atom 1     atom 2     atom 3         angle
                  ------     ------     ------         -----
  bond angle:     C          C          O            123.620
  bond angle:     C          C          H            117.010
  bond angle:     O          C          H            119.370
  bond angle:     C          C          C            120.069
  bond angle:     C          C          H            116.786
  bond angle:     C          C          H            123.145
  bond angle:     C          C          H            121.729
  bond angle:     C          C          H            121.657
  bond angle:     H          C          H            116.614




 CPU time statistics for ABACUS
 ------------------------------




 >>>> Total CPU  time used in ABACUS:   0.08 seconds
 >>>> Total wall time used in ABACUS:   0.08 seconds


                   .-------------------------------------------.
                   | End of Static Property Section (ABACUS) - |
                   `-------------------------------------------'

 >>>> Total CPU  time used in DALTON:  8 minutes 17 seconds
 >>>> Total wall time used in DALTON:  8 minutes 20 seconds

 
     Date and time (Linux)  : Wed Feb  5 08:25:22 2014 
     Host name              : fe8                                     
