

     ************************************************************************
     *************** Dalton - An Electronic Structure Program ***************
     ************************************************************************

    This is output from DALTON 2013.2
   ----------------------------------------------------------------------------
    NOTE:
     
    Dalton is an experimental code for the evaluation of molecular
    properties using (MC)SCF, DFT, CI, and CC wave functions.
    The authors accept no responsibility for the performance of
    the code or for the correctness of the results.
     
    The code (in whole or part) is provided under a licence and
    is not to be reproduced for further distribution without
    the written permission of the authors or their representatives.
     
    See the home page "http://daltonprogram.org" for further information.
     
    If results obtained with this code are published,
    the appropriate citations would be both of:
     
       K. Aidas, C. Angeli, K. L. Bak, V. Bakken, R. Bast,
       L. Boman, O. Christiansen, R. Cimiraglia, S. Coriani,
       P. Dahle, E. K. Dalskov, U. Ekstroem, T. Enevoldsen,
       J. J. Eriksen, P. Ettenhuber, B. Fernandez, L. Ferrighi,
       H. Fliegl, L. Frediani, K. Hald, A. Halkier, C. Haettig,
       H. Heiberg, T. Helgaker, A. C. Hennum, H. Hettema,
       E. Hjertenaes, S. Hoest, I.-M. Hoeyvik, M. F. Iozzi,
       B. Jansik, H. J. Aa. Jensen, D. Jonsson, P. Joergensen,
       J. Kauczor, S. Kirpekar, T. Kjaergaard, W. Klopper,
       S. Knecht, R. Kobayashi, H. Koch, J. Kongsted, A. Krapp,
       K. Kristensen, A. Ligabue, O. B. Lutnaes, J. I. Melo,
       K. V. Mikkelsen, R. H. Myhre, C. Neiss, C. B. Nielsen,
       P. Norman, J. Olsen, J. M. H. Olsen, A. Osted,
       M. J. Packer, F. Pawlowski, T. B. Pedersen, P. F. Provasi,
       S. Reine, Z. Rinkevicius, T. A. Ruden, K. Ruud, V. Rybkin,
       P. Salek, C. C. M. Samson, A. Sanchez de Meras, T. Saue,
       S. P. A. Sauer, B. Schimmelpfennig, K. Sneskov,
       A. H. Steindal, K. O. Sylvester-Hvid, P. R. Taylor,
       A. M. Teale, E. I. Tellgren, D. P. Tew, A. J. Thorvaldsen,
       L. Thoegersen, O. Vahtras, M. A. Watson, D. J. D. Wilson,
       M. Ziolkowski and H. Aagren,
       "The Dalton quantum chemistry program system",
       WIREs Comput. Mol. Sci. 2013. (doi: 10.1002/wcms.1172)
    
    and
    
       Dalton, a Molecular Electronic Structure Program,
       Release DALTON2013.2 (2013), see http://daltonprogram.org
   ----------------------------------------------------------------------------

    Authors in alphabetical order (major contribution(s) in parenthesis):

  Kestutis Aidas,           Vilnius University,           Lithuania   (QM/MM)
  Celestino Angeli,         University of Ferrara,        Italy       (NEVPT2)
  Keld L. Bak,              UNI-C,                        Denmark     (AOSOPPA, non-adiabatic coupling, magnetic properties)
  Vebjoern Bakken,          University of Oslo,           Norway      (DALTON; geometry optimizer, symmetry detection)
  Radovan Bast,             KTH Stockholm,                Sweden      (DALTON installation and execution frameworks)
  Linus Boman,              NTNU,                         Norway      (Cholesky decomposition and subsystems)
  Ove Christiansen,         Aarhus University,            Denmark     (CC module)
  Renzo Cimiraglia,         University of Ferrara,        Italy       (NEVPT2)
  Sonia Coriani,            University of Trieste,        Italy       (CC module, MCD in RESPONS)
  Paal Dahle,               University of Oslo,           Norway      (Parallelization)
  Erik K. Dalskov,          UNI-C,                        Denmark     (SOPPA)
  Thomas Enevoldsen,        Univ. of Southern Denmark,    Denmark     (SOPPA)
  Janus J. Eriksen,         Aarhus University,            Denmark     (PE-MP2/SOPPA, TDA)
  Berta Fernandez,          U. of Santiago de Compostela, Spain       (doublet spin, ESR in RESPONS)
  Lara Ferrighi,            Aarhus University,            Denmark     (PCM Cubic response)
  Heike Fliegl,             University of Oslo,           Norway      (CCSD(R12))
  Luca Frediani,            UiT The Arctic U. of Norway,  Norway      (PCM)
  Bin Gao,                  UiT The Arctic U. of Norway,  Norway      (Gen1Int library)
  Christof Haettig,         Ruhr-University Bochum,       Germany     (CC module)
  Kasper Hald,              Aarhus University,            Denmark     (CC module)
  Asger Halkier,            Aarhus University,            Denmark     (CC module)
  Hanne Heiberg,            University of Oslo,           Norway      (geometry analysis, selected one-electron integrals)
  Trygve Helgaker,          University of Oslo,           Norway      (DALTON; ABACUS, ERI, DFT modules, London, and much more)
  Alf Christian Hennum,     University of Oslo,           Norway      (Parity violation)
  Hinne Hettema,            University of Auckland,       New Zealand (quadratic response in RESPONS; SIRIUS supersymmetry)
  Eirik Hjertenaes,         NTNU,                         Norway      (Cholesky decomposition)
  Maria Francesca Iozzi,    University of Oslo,           Norway      (RPA)
  Brano Jansik              Technical Univ. of Ostrava    Czech Rep.  (DFT cubic response)
  Hans Joergen Aa. Jensen,  Univ. of Southern Denmark,    Denmark     (DALTON; SIRIUS, RESPONS, ABACUS modules, London, and much more)
  Dan Jonsson,              UiT The Arctic U. of Norway,  Norway      (cubic response in RESPONS module)
  Poul Joergensen,          Aarhus University,            Denmark     (RESPONS, ABACUS, and CC modules)
  Joanna Kauczor,           Linkoeping University,        Sweden      (Complex polarization propagator (CPP) module)
  Sheela Kirpekar,          Univ. of Southern Denmark,    Denmark     (Mass-velocity & Darwin integrals)
  Wim Klopper,              KIT Karlsruhe,                Germany     (R12 code in CC, SIRIUS, and ABACUS modules)
  Stefan Knecht,            ETH Zurich,                   Switzerland (Parallel CI and MCSCF)
  Rika Kobayashi,           Australian National Univ.,    Australia   (DIIS in CC, London in MCSCF)
  Henrik Koch,              NTNU,                         Norway      (CC module, Cholesky decomposition)
  Jacob Kongsted,           Univ. of Southern Denmark,    Denmark     (Polarizable embedding, QM/MM)
  Andrea Ligabue,           University of Modena,         Italy       (CTOCD, AOSOPPA)
  Ola B. Lutnaes,           University of Oslo,           Norway      (DFT Hessian)
  Juan I. Melo,             University of Buenos Aires,   Argentina   (LRESC, Relativistic Effects on NMR Shieldings)
  Kurt V. Mikkelsen,        University of Copenhagen,     Denmark     (MC-SCRF and QM/MM)
  Rolf H. Myhre,            NTNU,                         Norway      (Cholesky, subsystems and ECC2)
  Christian Neiss,          Univ. Erlangen-Nuernberg,     Germany     (CCSD(R12))
  Christian B. Nielsen,     University of Copenhagen,     Denmark     (QM/MM)
  Patrick Norman,           Linkoeping University,        Sweden      (Cubic response and complex response in RESPONS)
  Jeppe Olsen,              Aarhus University,            Denmark     (SIRIUS CI/density modules)
  Jogvan Magnus H. Olsen,   Univ. of Southern Denmark,    Denmark     (Polarizable embedding, PE library, QM/MM)
  Anders Osted,             Copenhagen University,        Denmark     (QM/MM)
  Martin J. Packer,         University of Sheffield,      UK          (SOPPA)
  Filip Pawlowski,          Kazimierz Wielki University,  Poland      (CC3)
  Thomas B. Pedersen,       University of Oslo,           Norway      (Cholesky decomposition)
  Patricio F. Provasi,      University of Northeastern,   Argentina   (Analysis of coupling constants in localized orbitals)
  Zilvinas Rinkevicius,     KTH Stockholm,                Sweden      (open-shell DFT, ESR)
  Elias Rudberg,            KTH Stockholm,                Sweden      (DFT grid and basis info)
  Torgeir A. Ruden,         University of Oslo,           Norway      (Numerical derivatives in ABACUS)
  Kenneth Ruud,             UiT The Arctic U. of Norway,  Norway      (DALTON; ABACUS magnetic properties and  much more)
  Pawel Salek,              KTH Stockholm,                Sweden      (DALTON; DFT code)
  Claire C. M. Samson       University of Karlsruhe       Germany     (Boys localization, r12 integrals in ERI)
  Alfredo Sanchez de Meras, University of Valencia,       Spain       (CC module, Cholesky decomposition)
  Trond Saue,               Paul Sabatier University,     France      (direct Fock matrix construction)
  Stephan P. A. Sauer,      University of Copenhagen,     Denmark     (SOPPA(CCSD), SOPPA prop., AOSOPPA, vibrational g-factors)
  Bernd Schimmelpfennig,    Forschungszentrum Karlsruhe,  Germany     (AMFI module)
  Kristian Sneskov,         Aarhus University,            Denmark     (QM/MM, PE-CC)
  Arnfinn H. Steindal,      UiT The Arctic U. of Norway,  Norway      (parallel QM/MM)
  K. O. Sylvester-Hvid,     University of Copenhagen,     Denmark     (MC-SCRF)
  Peter R. Taylor,          VLSCI/Univ. of Melbourne,     Australia   (Symmetry handling ABACUS, integral transformation)
  Andrew M. Teale,          University of Nottingham,     England     (DFT-AC, DFT-D)
  David P. Tew,             University of Bristol,        England     (CCSD(R12))
  Olav Vahtras,             KTH Stockholm,                Sweden      (triplet response, spin-orbit, ESR, TDDFT, open-shell DFT)
  David J. Wilson,          La Trobe University,          Australia   (DFT Hessian and DFT magnetizabilities)
  Hans Agren,               KTH Stockholm,                Sweden      (SIRIUS module, RESPONS, MC-SCRF solvation model)
 --------------------------------------------------------------------------------

     Date and time (Linux)  : Fri Mar 21 21:50:50 2014
     Host name              : foeroyar                                

 * Work memory size             :    64000000 =  488.28 megabytes.

 * Directories for basis set searches:
   1) /home/magnus/Projects/dalton_devel/dalton/DALTON/test/2014-03-21T21_50-testjob-pid-12498
   2) /home/magnus/Projects/dalton_devel/dalton/build/basis


Compilation information
-----------------------

 Who compiled             | magnus
 Host                     | foeroyar
 System                   | Linux-3.13.5-202.fc20.x86_64
 CMake generator          | Unix Makefiles
 Processor                | x86_64
 64-bit integers          | OFF
 MPI                      | ON
 Fortran compiler         | /usr/lib64/openmpi/bin/mpif90
 Fortran compiler version | GNU Fortran (GCC) 4.8.2 20131212 (Red Hat 4.8.2-7)
 C compiler               | /usr/lib64/openmpi/bin/mpicc
 C compiler version       | gcc (GCC) 4.8.2 20131212 (Red Hat 4.8.2-7)
 C++ compiler             | /usr/lib64/openmpi/bin/mpicxx
 C++ compiler version     | unknown
 Static linking           | OFF
 Last Git revision        | b641632729849b6fb659c4aecdb3d22c77947f55
 Git branch               | polarizable-embedding
 Configuration time       | 2014-03-21 21:45:15.042707

 * Sequential calculation using 1 CPU


   Content of the .dal input file
 ----------------------------------

**DALTON                                          
.RUN WAVEFUNCTION                                 
.PEQM                                             
*PEQM                                             
.FIXPVA                                           
.DIRECT                                           
.SOLVAT                                           
**WAVE FUNCTIONS                                  
.HF                                               
**END OF                                          


   Content of the .mol file
 ----------------------------

BASIS                                                                          
STO-3G                                                                         
Acrolein                                                                       
------------------------                                                       
AtomTypes=3 NoSymmetry Angstrom                                                
Charge=6.0 Atoms=3                                                             
C             -0.145335   -0.546770    0.000607                                
C              1.274009   -0.912471   -0.000167                                
C              1.630116   -2.207690   -0.000132                                
Charge=8.0 Atoms=1                                                             
O             -0.560104    0.608977    0.000534                                
Charge=1.0 Atoms=4                                                             
H             -0.871904   -1.386459    0.001253                                
H              2.004448   -0.101417   -0.000710                                
H              0.879028   -3.000685    0.000484                                
H              2.675323   -2.516779   -0.000673                                


       *******************************************************************
       *********** Output from DALTON general input processing ***********
       *******************************************************************

 --------------------------------------------------------------------------------
   Overall default print level:    0
   Print level for DALTON.STAT:    1

    HERMIT 1- and 2-electron integral sections will be executed
    "Old" integral transformation used (limited to max 255 basis functions)
    Wave function sections will be executed (SIRIUS module)
    Environment is modeled using polarizable embedding scheme (PE library)
 --------------------------------------------------------------------------------


   ****************************************************************************
   *************** Output of molecule and basis set information ***************
   ****************************************************************************


    The two title cards from your ".mol" input:
    ------------------------------------------------------------------------
 1: Acrolein                                                                
 2: ------------------------                                                
    ------------------------------------------------------------------------

  Coordinates are entered in Angstrom and converted to atomic units.
          - Conversion factor : 1 bohr = 0.52917721 A

  Atomic type no.    1
  --------------------
  Nuclear charge:   6.00000
  Number of symmetry independent centers:    3
  Number of basis sets to read;    2
  Basis set file used for this atomic type with Z =   6 :
     "/home/magnus/Projects/dalton_devel/dalton/build/basis/STO-3G"

  Atomic type no.    2
  --------------------
  Nuclear charge:   8.00000
  Number of symmetry independent centers:    1
  Number of basis sets to read;    2
  Basis set file used for this atomic type with Z =   8 :
     "/home/magnus/Projects/dalton_devel/dalton/build/basis/STO-3G"

  Atomic type no.    3
  --------------------
  Nuclear charge:   1.00000
  Number of symmetry independent centers:    4
  Number of basis sets to read;    2
  Basis set file used for this atomic type with Z =   1 :
     "/home/magnus/Projects/dalton_devel/dalton/build/basis/STO-3G"


                         SYMGRP: Point group information
                         -------------------------------

Point group: C1 


                                 Isotopic Masses
                                 ---------------

                           C          12.000000
                           C          12.000000
                           C          12.000000
                           O          15.994915
                           H           1.007825
                           H           1.007825
                           H           1.007825
                           H           1.007825

                       Total mass:    56.026215 amu
                       Natural abundance:  96.446 %

 Center-of-mass coordinates (a.u.):    0.973773   -1.393790    0.000425


  Atoms and basis sets
  --------------------

  Number of atom types :    3
  Total number of atoms:    8

  Basis set used is "STO-3G" from the basis set library.

  label    atoms   charge   prim   cont     basis
  ----------------------------------------------------------------------
  C           3    6.0000    15     5      [6s3p|2s1p]                                        
  O           1    8.0000    15     5      [6s3p|2s1p]                                        
  H           4    1.0000     3     1      [3s|1s]                                            
  ----------------------------------------------------------------------
  total:      8   30.0000    72    24
  ----------------------------------------------------------------------

  Threshold for neglecting AO integrals:  1.00D-12


  Cartesian Coordinates (a.u.)
  ----------------------------

  Total number of coordinates:   24
  C       :     1  x  -0.2746433464    2  y  -1.0332455534    3  z   0.0011470638
  C       :     4  x   2.4075280908    5  y  -1.7243202870    6  z  -0.0003155843
  C       :     7  x   3.0804727920    8  y  -4.1719294689    9  z  -0.0002494438
  O       :    10  x  -1.0584431615   11  y   1.1507997464   12  z   0.0010091138
  H       :    13  x  -1.6476597673   14  y  -2.6200277935   15  z   0.0023678268
  H       :    16  x   3.7878577518   17  y  -0.1916503544   18  z  -0.0013417055
  H       :    19  x   1.6611221762   20  y  -5.6704728374   21  z   0.0009146274
  H       :    22  x   5.0556277659   23  y  -4.7560230271   24  z  -0.0012717857


   Interatomic separations (in Angstrom):
   --------------------------------------

            C           C           C           O           H           H     
            ------      ------      ------      ------      ------      ------
 C     :    0.000000
 C     :    1.465700    0.000000
 C     :    2.431231    1.343281    0.000000
 O     :    1.227919    2.383018    3.568007    0.000000
 H     :    1.110397    2.197637    2.633349    2.019650    0.000000
 H     :    2.195429    1.091490    2.139278    2.661125    3.150355    0.000000
 H     :    2.659139    2.125241    1.092234    3.885970    2.381489    3.110036
 H     :    3.440501    2.130137    1.089951    4.498704    3.722962    2.506800

            H           H     
            ------      ------
 H     :    0.000000
 H     :    1.860334    0.000000


  Max    interatomic separation is    4.4987 Angstrom (    8.5013 Bohr)
  between atoms    8 and    4, "H     " and "O     ".

  Min HX interatomic separation is    1.0900 Angstrom (    2.0597 Bohr)

  Min YX interatomic separation is    1.2279 Angstrom (    2.3204 Bohr)


  Bond distances (Angstrom):
  --------------------------

                  atom 1     atom 2       distance
                  ------     ------       --------
  bond distance:  C          C            1.465700
  bond distance:  C          C            1.343281
  bond distance:  O          C            1.227919
  bond distance:  H          C            1.110397
  bond distance:  H          C            1.091490
  bond distance:  H          C            1.092234
  bond distance:  H          C            1.089951


  Bond angles (degrees):
  ----------------------

                  atom 1     atom 2     atom 3         angle
                  ------     ------     ------         -----
  bond angle:     C          C          O            124.190
  bond angle:     C          C          H            116.421
  bond angle:     O          C          H            119.389
  bond angle:     C          C          C            119.821
  bond angle:     C          C          H            117.558
  bond angle:     C          C          H            122.621
  bond angle:     C          C          H            121.182
  bond angle:     C          C          H            121.847
  bond angle:     H          C          H            116.971




 Principal moments of inertia (u*A**2) and principal axes
 --------------------------------------------------------

   IA      10.696865         -0.668732    0.743503    0.000230
   IB     108.794831          0.743503    0.668732   -0.000587
   IC     119.491696          0.000590    0.000221    1.000000


 Rotational constants
 --------------------

 The molecule is planar.

               A                   B                   C

          47245.5253           4645.2483           4229.4069 MHz
            1.575941            0.154949            0.141078 cm-1


@  Nuclear repulsion energy :  102.664846860515 Hartree

  Polarizable embedding information
  ---------------------------------

    Direct solver for induced moments will be used.

    Continuum solvation in H2O solvent.

    Number of surface points:     228

    Surface area (in Aa**2):     107.103


                     .---------------------------------------.
                     | Starting in Integral Section (HERMIT) |
                     `---------------------------------------'



     ************************************************************************
     ************************** Output from HERINT **************************
     ************************************************************************


 Threshold for neglecting two-electron integrals:  1.00D-12
 Number of two-electron integrals written:       43383 ( 96.1% )
 Megabytes written:                              0.502

 >>>  Time used in TWOINT     is   0.21 seconds
 >>>> Total CPU  time used in HERMIT:   0.25 seconds
 >>>> Total wall time used in HERMIT:   0.25 seconds


                        .----------------------------------.
                        | End of Integral Section (HERMIT) |
                        `----------------------------------'



                   .--------------------------------------------.
                   | Starting in Wave Function Section (SIRIUS) |
                   `--------------------------------------------'


 *** Output from Huckel module :

     Using EWMO model:          T
     Using EHT  model:          F
     Number of Huckel orbitals each symmetry:   24

 EWMO - Energy Weighted Maximum Overlap - is a Huckel type method,
        which normally is better than Extended Huckel Theory.
 Reference: Linderberg and Ohrn, Propagators in Quantum Chemistry (Wiley, 1973)

 Huckel EWMO eigenvalues for symmetry :  1
          -20.684561     -11.357400     -11.351264     -11.346036      -1.724840
           -1.477979      -1.046134      -1.031570      -0.744448      -0.729231
           -0.672044      -0.551742      -0.540543      -0.516178      -0.438809
           -0.319925      -0.220785      -0.162868      -0.131432      -0.129120
           -0.123435      -0.114530      -0.093199      -0.085427

 **********************************************************************
 *SIRIUS* a direct, restricted step, second order MCSCF program       *
 **********************************************************************

 
     Date and time (Linux)  : Fri Mar 21 21:50:51 2014
     Host name              : foeroyar                                

 Title lines from ".mol" input file:
     Acrolein                                                                
     ------------------------                                                

 Print level on unit LUPRI =   2 is   0
 Print level on unit LUW4  =   2 is   5

@    Restricted, closed shell Hartree-Fock calculation.

 Initial molecular orbitals are obtained according to
 ".MOSTART EWMO  " input option

@    QM part is embedded in an environment :

@         Model: PE

     Wave function specification
     ============================

     Wave function environment is modeled using the
     polarizable embedding model (PE library).

@    For the wave function of type :      >>> PE-HF <<<
@    Number of closed shell electrons          30
@    Number of electrons in active shells       0
@    Total charge of the molecule               0

@    Spin multiplicity and 2 M_S                1         0
     Total number of symmetries                 1
@    Reference state symmetry                   1

     Orbital specifications
     ======================
     Abelian symmetry species          All |    1
                                       --- |  ---
@    Occupied SCF orbitals              15 |   15
     Secondary orbitals                  9 |    9
     Total number of orbitals           24 |   24
     Number of basis functions          24 |   24

     Optimization information
     ========================
@    Number of configurations                 1
@    Number of orbital rotations            135
     ------------------------------------------
@    Total number of variables              136

     Maximum number of Fock   iterations      0
     Maximum number of DIIS   iterations     60
     Maximum number of QC-SCF iterations     60
     Threshold for SCF convergence     1.00D-05


 *********************************************
 ***** DIIS optimization of Hartree-Fock *****
 *********************************************

 C1-DIIS algorithm; max error vectors =    8

 Iter      Total energy     Embedding energy      Error norm     Delta(E)
 -----------------------------------------------------------------------------
     (Precalculated two-electron integrals are transformed to P-supermatrix elements.
      Threshold for discarding integrals :  1.00D-12 )
@  1  -187.934868990     -3.505613338319E-02    1.97316D+00   -1.88D+02
      Virial theorem: -V/T =      2.002984
@      MULPOP C       0.93; C       0.24; C       0.42; O      -1.03; H      -0.16; H      -0.14; H      -0.12; H      -0.13; 
 -----------------------------------------------------------------------------
@  2  -188.204074811     -2.141503798391E-03    1.17589D+00   -2.69D-01
      Virial theorem: -V/T =      2.009530
@      MULPOP C      -0.37; C      -0.18; C      -0.20; O       0.32; H       0.07; H       0.12; H       0.12; H       0.12; 
 -----------------------------------------------------------------------------
@  3  -188.301007397     -3.658766198373E-03    1.16787D-01   -9.69D-02
      Virial theorem: -V/T =      2.008038
@      MULPOP C       0.18; C      -0.09; C      -0.12; O      -0.25; H       0.04; H       0.08; H       0.08; H       0.08; 
 -----------------------------------------------------------------------------
@  4  -188.302757077     -3.415512563278E-03    2.96182D-02   -1.75D-03
      Virial theorem: -V/T =      2.008102
@      MULPOP C       0.13; C      -0.09; C      -0.09; O      -0.23; H       0.06; H       0.08; H       0.08; H       0.08; 
 -----------------------------------------------------------------------------
@  5  -188.302906870     -3.354297036052E-03    1.00736D-02   -1.50D-04
      Virial theorem: -V/T =      2.008063
@      MULPOP C       0.13; C      -0.09; C      -0.11; O      -0.23; H       0.06; H       0.08; H       0.08; H       0.08; 
 -----------------------------------------------------------------------------
@  6  -188.302921652     -3.349445490811E-03    2.58142D-03   -1.48D-05
      Virial theorem: -V/T =      2.008066
@      MULPOP C       0.13; C      -0.09; C      -0.10; O      -0.23; H       0.06; H       0.08; H       0.08; H       0.08; 
 -----------------------------------------------------------------------------
@  7  -188.302923078     -3.338238148711E-03    9.82290D-04   -1.43D-06
      Virial theorem: -V/T =      2.008069
@      MULPOP C       0.13; C      -0.09; C      -0.10; O      -0.23; H       0.06; H       0.08; H       0.08; H       0.08; 
 -----------------------------------------------------------------------------
@  8  -188.302923245     -3.335244604053E-03    3.37997D-04   -1.67D-07
      Virial theorem: -V/T =      2.008070
@      MULPOP C       0.13; C      -0.09; C      -0.10; O      -0.23; H       0.06; H       0.08; H       0.08; H       0.08; 
 -----------------------------------------------------------------------------
@  9  -188.302923269     -3.333310790101E-03    6.19995D-05   -2.38D-08
      Virial theorem: -V/T =      2.008071
@      MULPOP C       0.13; C      -0.09; C      -0.10; O      -0.23; H       0.06; H       0.08; H       0.08; H       0.08; 
 -----------------------------------------------------------------------------
@ 10  -188.302923270     -3.332984492698E-03    9.45471D-06   -6.96D-10

@ *** DIIS converged in  10 iterations !
@     Converged SCF energy, gradient:   -188.302923269847    9.45D-06
    - total time used in SIRFCK :              0.00 seconds


 *** SCF orbital energy analysis ***
   (incl. contribution from polarizable embedding potential)

 Only the five lowest virtual orbital energies printed in each symmetry.

 Number of electrons :   30
 Orbital occupations :   15

 Sym       Hartree-Fock orbital energies

  1    -20.27555751   -11.11890137   -11.04248236   -11.03626616    -1.31998823
        -1.01204052    -0.81341350    -0.72316837    -0.60065141    -0.58849240
        -0.50536890    -0.49144147    -0.46073056    -0.33819403    -0.31274736
         0.22038058     0.39676361     0.60448112     0.63962739     0.67271120

    E(LUMO) :     0.22038058 au (symmetry 1)
  - E(HOMO) :    -0.31274736 au (symmetry 1)
  ------------------------------------------
    gap     :     0.53312794 au

      Polarizable embedding energy contributions:
     ---------------------------------------------

       Continuum solvation contributions:
         Electronic                 0.005768214366
         Nuclear                   -0.009101198859

       Total PE energy:            -0.003332984493

 >>> Writing SIRIFC interface file

 >>>> CPU and wall time for SCF :       7.464       7.484


                       .-----------------------------------.
                       | >>> Final results from SIRIUS <<< |
                       `-----------------------------------'


@    Spin multiplicity:           1
@    Spatial symmetry:            1
@    Total charge of molecule:    0

@    Final HF energy:            -188.302923269847                 
@    Nuclear repulsion:           102.664846860515
@    Electronic energy:          -290.964437145870
@    Embedding energy:             -0.003332984493

@    Final gradient norm:           0.000009454711

 
     Date and time (Linux)  : Fri Mar 21 21:50:58 2014
     Host name              : foeroyar                                

 (Only coefficients >0.0100 are printed.)

 Molecular orbitals for symmetry species  1
 ------------------------------------------

    Orbital         1        2        3        4        5        6        7
   1 C   :1s    -0.0005  -0.9926   0.0005   0.0015   0.1246  -0.0626   0.1359
   2 C   :1s     0.0071  -0.0333  -0.0002  -0.0064  -0.2871   0.1759  -0.4170
   3 C   :2px   -0.0021  -0.0003  -0.0002  -0.0042   0.0471   0.1121  -0.1117
   4 C   :2py    0.0059  -0.0004   0.0002   0.0011  -0.1467  -0.0890   0.1324
   6 C   :1s     0.0000   0.0005   0.0581   0.9905   0.0223  -0.1800   0.0577
   7 C   :1s    -0.0003   0.0061  -0.0055   0.0367  -0.0540   0.4720  -0.1721
   8 C   :2px    0.0000  -0.0040  -0.0012  -0.0003   0.0288  -0.0122   0.1805
   9 C   :2py   -0.0005   0.0013   0.0043  -0.0017  -0.0080  -0.0930  -0.1685
  11 C   :1s    -0.0000   0.0003   0.9907  -0.0575   0.0048  -0.1578  -0.1478
  12 C   :1s    -0.0001  -0.0001   0.0351  -0.0098  -0.0116   0.4178   0.4347
  13 C   :2px   -0.0001  -0.0000  -0.0003   0.0013   0.0025  -0.0383   0.0583
  14 C   :2py   -0.0000   0.0000   0.0012  -0.0045  -0.0058   0.1061  -0.0609
  16 O   :1s    -0.9943  -0.0002   0.0000  -0.0000   0.2173   0.0459  -0.0778
  17 O   :1s    -0.0259   0.0057  -0.0001   0.0003  -0.7621  -0.1785   0.3343
  18 O   :2px   -0.0019   0.0007  -0.0000   0.0002  -0.0562   0.0191  -0.0664
  19 O   :2py    0.0052  -0.0016   0.0001  -0.0001   0.1523  -0.0041   0.0997
  21 H   :1s    -0.0002   0.0065  -0.0001   0.0001  -0.0327   0.0460  -0.1510
  22 H   :1s     0.0002  -0.0000  -0.0003  -0.0067  -0.0089   0.1033  -0.0596
  23 H   :1s     0.0000   0.0001  -0.0067   0.0005  -0.0020   0.0974   0.1518
  24 H   :1s     0.0000   0.0001  -0.0067   0.0005  -0.0012   0.0908   0.1927

    Orbital         8        9       10       11       12       13       14
   1 C   :1s    -0.0940  -0.0020   0.0570   0.0162   0.0256  -0.0000  -0.0040
   2 C   :1s     0.3045   0.0104  -0.1937  -0.0541  -0.0990   0.0000   0.0142
   3 C   :2px   -0.2183  -0.3831  -0.0229   0.0431  -0.2283   0.0004   0.1771
   4 C   :2py   -0.1759  -0.1013  -0.2122  -0.3614   0.1447   0.0002   0.0544
   5 C   :2pz    0.0002   0.0003   0.0000   0.0001   0.0002   0.5641  -0.0001
   6 C   :1s     0.1054  -0.0210  -0.0384  -0.0001  -0.0146   0.0000  -0.0375
   7 C   :1s    -0.3251   0.0701   0.1113   0.0149   0.0620  -0.0000   0.1658
   8 C   :2px   -0.1507   0.3137  -0.0341  -0.0147   0.2421   0.0001  -0.3019
   9 C   :2py   -0.1469  -0.0482  -0.3090   0.3432   0.1700  -0.0000   0.0636
  10 C   :2pz    0.0001  -0.0002   0.0001  -0.0000  -0.0001   0.3121   0.0002
  11 C   :1s    -0.0555   0.0133   0.0134   0.0245   0.0040  -0.0000   0.0073
  12 C   :1s     0.1738  -0.0552  -0.0635  -0.0694  -0.0103   0.0000  -0.0232
  13 C   :2px   -0.0564   0.2303  -0.3134   0.0883  -0.3840   0.0001   0.0653
  14 C   :2py   -0.1699   0.2428   0.2808  -0.3067  -0.1644   0.0001  -0.0651
  15 C   :2pz    0.0001  -0.0002   0.0001   0.0000   0.0003   0.2028  -0.0000
  16 O   :1s     0.0430   0.0099  -0.0720  -0.0605   0.0239  -0.0000  -0.0012
  17 O   :1s    -0.1951  -0.0512   0.3637   0.3308  -0.1344   0.0000   0.0079
  18 O   :2px   -0.1076  -0.3066  -0.2352  -0.2402  -0.1614   0.0004  -0.8070
  19 O   :2py   -0.1578  -0.1551   0.3047   0.4743  -0.2787   0.0002  -0.2906
  20 O   :2pz    0.0001   0.0002   0.0000   0.0000   0.0002   0.5559   0.0006
  21 H   :1s     0.2772   0.2162   0.0416   0.2044  -0.0160  -0.0000  -0.3514
  22 H   :1s    -0.2595   0.1629  -0.1368   0.2355   0.3089  -0.0001  -0.1142
  23 H   :1s     0.1767  -0.2739  -0.0169   0.1251   0.3652  -0.0001  -0.0522
  24 H   :1s     0.0656   0.0929  -0.3267   0.1211  -0.3181   0.0000   0.0963

    Orbital        15       16       17
   5 C   :2pz    0.1985  -0.5117  -0.6810
  10 C   :2pz   -0.5570  -0.4211   0.7167
  15 C   :2pz   -0.5813   0.6428  -0.5169
  20 O   :2pz    0.4229   0.5808   0.4679



 >>>> Total CPU  time used in SIRIUS :      7.47 seconds
 >>>> Total wall time used in SIRIUS :      7.49 seconds

 
     Date and time (Linux)  : Fri Mar 21 21:50:58 2014
     Host name              : foeroyar                                


                     .---------------------------------------.
                     | End of Wave Function Section (SIRIUS) |
                     `---------------------------------------'

 >>>> Total CPU  time used in DALTON:   7.74 seconds
 >>>> Total wall time used in DALTON:   7.76 seconds

 
     Date and time (Linux)  : Fri Mar 21 21:50:58 2014
     Host name              : foeroyar                                
