

     ************************************************************************
     *************** Dalton - An Electronic Structure Program ***************
     ************************************************************************

    This is output from DALTON 2013.2
   ----------------------------------------------------------------------------
    NOTE:
     
    Dalton is an experimental code for the evaluation of molecular
    properties using (MC)SCF, DFT, CI, and CC wave functions.
    The authors accept no responsibility for the performance of
    the code or for the correctness of the results.
     
    The code (in whole or part) is provided under a licence and
    is not to be reproduced for further distribution without
    the written permission of the authors or their representatives.
     
    See the home page "http://daltonprogram.org" for further information.
     
    If results obtained with this code are published,
    the appropriate citations would be both of:
     
       K. Aidas, C. Angeli, K. L. Bak, V. Bakken, R. Bast,
       L. Boman, O. Christiansen, R. Cimiraglia, S. Coriani,
       P. Dahle, E. K. Dalskov, U. Ekstroem, T. Enevoldsen,
       J. J. Eriksen, P. Ettenhuber, B. Fernandez, L. Ferrighi,
       H. Fliegl, L. Frediani, K. Hald, A. Halkier, C. Haettig,
       H. Heiberg, T. Helgaker, A. C. Hennum, H. Hettema,
       E. Hjertenaes, S. Hoest, I.-M. Hoeyvik, M. F. Iozzi,
       B. Jansik, H. J. Aa. Jensen, D. Jonsson, P. Joergensen,
       J. Kauczor, S. Kirpekar, T. Kjaergaard, W. Klopper,
       S. Knecht, R. Kobayashi, H. Koch, J. Kongsted, A. Krapp,
       K. Kristensen, A. Ligabue, O. B. Lutnaes, J. I. Melo,
       K. V. Mikkelsen, R. H. Myhre, C. Neiss, C. B. Nielsen,
       P. Norman, J. Olsen, J. M. H. Olsen, A. Osted,
       M. J. Packer, F. Pawlowski, T. B. Pedersen, P. F. Provasi,
       S. Reine, Z. Rinkevicius, T. A. Ruden, K. Ruud, V. Rybkin,
       P. Salek, C. C. M. Samson, A. Sanchez de Meras, T. Saue,
       S. P. A. Sauer, B. Schimmelpfennig, K. Sneskov,
       A. H. Steindal, K. O. Sylvester-Hvid, P. R. Taylor,
       A. M. Teale, E. I. Tellgren, D. P. Tew, A. J. Thorvaldsen,
       L. Thoegersen, O. Vahtras, M. A. Watson, D. J. D. Wilson,
       M. Ziolkowski and H. Aagren,
       "The Dalton quantum chemistry program system",
       WIREs Comput. Mol. Sci. 2013. (doi: 10.1002/wcms.1172)
    
    and
    
       Dalton, a Molecular Electronic Structure Program,
       Release DALTON2013.2 (2013), see http://daltonprogram.org
   ----------------------------------------------------------------------------

    Authors in alphabetical order (major contribution(s) in parenthesis):

  Kestutis Aidas,           Vilnius University,           Lithuania   (QM/MM)
  Celestino Angeli,         University of Ferrara,        Italy       (NEVPT2)
  Keld L. Bak,              UNI-C,                        Denmark     (AOSOPPA, non-adiabatic coupling, magnetic properties)
  Vebjoern Bakken,          University of Oslo,           Norway      (DALTON; geometry optimizer, symmetry detection)
  Radovan Bast,             KTH Stockholm,                Sweden      (DALTON installation and execution frameworks)
  Pablo Baudin,             University of Valencia,       Spain       (Cholesky excitation energies)
  Linus Boman,              NTNU,                         Norway      (Cholesky decomposition and subsystems)
  Ove Christiansen,         Aarhus University,            Denmark     (CC module)
  Renzo Cimiraglia,         University of Ferrara,        Italy       (NEVPT2)
  Sonia Coriani,            University of Trieste,        Italy       (CC module, MCD in RESPONS)
  Paal Dahle,               University of Oslo,           Norway      (Parallelization)
  Erik K. Dalskov,          UNI-C,                        Denmark     (SOPPA)
  Thomas Enevoldsen,        Univ. of Southern Denmark,    Denmark     (SOPPA)
  Janus J. Eriksen,         Aarhus University,            Denmark     (PE-MP2/SOPPA, TDA)
  Berta Fernandez,          U. of Santiago de Compostela, Spain       (doublet spin, ESR in RESPONS)
  Lara Ferrighi,            Aarhus University,            Denmark     (PCM Cubic response)
  Heike Fliegl,             University of Oslo,           Norway      (CCSD(R12))
  Luca Frediani,            UiT The Arctic U. of Norway,  Norway      (PCM)
  Bin Gao,                  UiT The Arctic U. of Norway,  Norway      (Gen1Int library)
  Christof Haettig,         Ruhr-University Bochum,       Germany     (CC module)
  Kasper Hald,              Aarhus University,            Denmark     (CC module)
  Asger Halkier,            Aarhus University,            Denmark     (CC module)
  Hanne Heiberg,            University of Oslo,           Norway      (geometry analysis, selected one-electron integrals)
  Trygve Helgaker,          University of Oslo,           Norway      (DALTON; ABACUS, ERI, DFT modules, London, and much more)
  Alf Christian Hennum,     University of Oslo,           Norway      (Parity violation)
  Hinne Hettema,            University of Auckland,       New Zealand (quadratic response in RESPONS; SIRIUS supersymmetry)
  Eirik Hjertenaes,         NTNU,                         Norway      (Cholesky decomposition)
  Maria Francesca Iozzi,    University of Oslo,           Norway      (RPA)
  Brano Jansik              Technical Univ. of Ostrava    Czech Rep.  (DFT cubic response)
  Hans Joergen Aa. Jensen,  Univ. of Southern Denmark,    Denmark     (DALTON; SIRIUS, RESPONS, ABACUS modules, London, and much more)
  Dan Jonsson,              UiT The Arctic U. of Norway,  Norway      (cubic response in RESPONS module)
  Poul Joergensen,          Aarhus University,            Denmark     (RESPONS, ABACUS, and CC modules)
  Joanna Kauczor,           Linkoeping University,        Sweden      (Complex polarization propagator (CPP) module)
  Sheela Kirpekar,          Univ. of Southern Denmark,    Denmark     (Mass-velocity & Darwin integrals)
  Wim Klopper,              KIT Karlsruhe,                Germany     (R12 code in CC, SIRIUS, and ABACUS modules)
  Stefan Knecht,            ETH Zurich,                   Switzerland (Parallel CI and MCSCF)
  Rika Kobayashi,           Australian National Univ.,    Australia   (DIIS in CC, London in MCSCF)
  Henrik Koch,              NTNU,                         Norway      (CC module, Cholesky decomposition)
  Jacob Kongsted,           Univ. of Southern Denmark,    Denmark     (Polarizable embedding, QM/MM)
  Andrea Ligabue,           University of Modena,         Italy       (CTOCD, AOSOPPA)
  Ola B. Lutnaes,           University of Oslo,           Norway      (DFT Hessian)
  Juan I. Melo,             University of Buenos Aires,   Argentina   (LRESC, Relativistic Effects on NMR Shieldings)
  Kurt V. Mikkelsen,        University of Copenhagen,     Denmark     (MC-SCRF and QM/MM)
  Rolf H. Myhre,            NTNU,                         Norway      (Cholesky, subsystems and ECC2)
  Christian Neiss,          Univ. Erlangen-Nuernberg,     Germany     (CCSD(R12))
  Christian B. Nielsen,     University of Copenhagen,     Denmark     (QM/MM)
  Patrick Norman,           Linkoeping University,        Sweden      (Cubic response and complex response in RESPONS)
  Jeppe Olsen,              Aarhus University,            Denmark     (SIRIUS CI/density modules)
  Jogvan Magnus H. Olsen,   Univ. of Southern Denmark,    Denmark     (Polarizable embedding, PE library, QM/MM)
  Anders Osted,             Copenhagen University,        Denmark     (QM/MM)
  Martin J. Packer,         University of Sheffield,      UK          (SOPPA)
  Filip Pawlowski,          Kazimierz Wielki University,  Poland      (CC3)
  Thomas B. Pedersen,       University of Oslo,           Norway      (Cholesky decomposition)
  Patricio F. Provasi,      University of Northeastern,   Argentina   (Analysis of coupling constants in localized orbitals)
  Zilvinas Rinkevicius,     KTH Stockholm,                Sweden      (open-shell DFT, ESR)
  Elias Rudberg,            KTH Stockholm,                Sweden      (DFT grid and basis info)
  Torgeir A. Ruden,         University of Oslo,           Norway      (Numerical derivatives in ABACUS)
  Kenneth Ruud,             UiT The Arctic U. of Norway,  Norway      (DALTON; ABACUS magnetic properties and  much more)
  Pawel Salek,              KTH Stockholm,                Sweden      (DALTON; DFT code)
  Claire C. M. Samson       University of Karlsruhe       Germany     (Boys localization, r12 integrals in ERI)
  Alfredo Sanchez de Meras, University of Valencia,       Spain       (CC module, Cholesky decomposition)
  Trond Saue,               Paul Sabatier University,     France      (direct Fock matrix construction)
  Stephan P. A. Sauer,      University of Copenhagen,     Denmark     (SOPPA(CCSD), SOPPA prop., AOSOPPA, vibrational g-factors)
  Bernd Schimmelpfennig,    Forschungszentrum Karlsruhe,  Germany     (AMFI module)
  Kristian Sneskov,         Aarhus University,            Denmark     (QM/MM, PE-CC)
  Arnfinn H. Steindal,      UiT The Arctic U. of Norway,  Norway      (parallel QM/MM)
  Casper Steinmann,         Univ. of Southern Denmark,    Denmark     (QFIT)
  K. O. Sylvester-Hvid,     University of Copenhagen,     Denmark     (MC-SCRF)
  Peter R. Taylor,          VLSCI/Univ. of Melbourne,     Australia   (Symmetry handling ABACUS, integral transformation)
  Andrew M. Teale,          University of Nottingham,     England     (DFT-AC, DFT-D)
  David P. Tew,             University of Bristol,        England     (CCSD(R12))
  Olav Vahtras,             KTH Stockholm,                Sweden      (triplet response, spin-orbit, ESR, TDDFT, open-shell DFT)
  David J. Wilson,          La Trobe University,          Australia   (DFT Hessian and DFT magnetizabilities)
  Hans Agren,               KTH Stockholm,                Sweden      (SIRIUS module, RESPONS, MC-SCRF solvation model)
 --------------------------------------------------------------------------------

     Date and time (Linux)  : Sun May 25 16:48:24 2014
     Host name              : foeroyar                                

 * Work memory size             :    64000000 =  488.28 megabytes.

 * Directories for basis set searches:
   1) /home/magnus/Projects/dalton_devel/dalton/build_release/peqm_tests
   2) /home/magnus/Projects/dalton_devel/dalton/build_release/basis


Compilation information
-----------------------

 Who compiled             | magnus
 Host                     | foeroyar
 System                   | Linux-3.14.4-200.fc20.x86_64
 CMake generator          | Unix Makefiles
 Processor                | x86_64
 64-bit integers          | OFF
 MPI                      | OFF
 Fortran compiler         | /usr/bin/gfortran
 Fortran compiler version | GNU Fortran (GCC) 4.8.2 20131212 (Red Hat 4.8.2-7)
 C compiler               | /usr/bin/gcc
 C compiler version       | gcc (GCC) 4.8.2 20131212 (Red Hat 4.8.2-7)
 C++ compiler             | /usr/bin/g++
 C++ compiler version     | g++ (GCC) 4.8.2 20131212 (Red Hat 4.8.2-7)
 BLAS                     | /lib64/atlas/libf77blas.so;/lib64/atlas/libcblas.s
                          | o;/lib64/atlas/libatlas.so
 LAPACK                   | /lib64/atlas/libatlas.so;/lib64/atlas/liblapack.so
 Static linking           | OFF
 Last Git revision        | 2f9776f2fd9675185f08009607df1b9494db2901
 Configuration time       | 2014-05-25 16:42:05.557733


   Content of the .dal input file
 ----------------------------------

**DALTON                                          
.RUN RESPONSE                                     
.PEQM                                             
**WAVE FUNCTIONS                                  
.HF                                               
**RESPONSE                                        
*QUADRATIC                                        
.SINGLE                                           
.TWO-PHOTON                                       
.ROOTS                                            
4                                                 
**END OF                                          


   Content of the .mol file
 ----------------------------

BASIS                                                                          
STO-3G                                                                         
Acrolein                                                                       
------------------------                                                       
AtomTypes=3 NoSymmetry Angstrom                                                
Charge=6.0 Atoms=3                                                             
C             -0.145335   -0.546770    0.000607                                
C              1.274009   -0.912471   -0.000167                                
C              1.630116   -2.207690   -0.000132                                
Charge=8.0 Atoms=1                                                             
O             -0.560104    0.608977    0.000534                                
Charge=1.0 Atoms=4                                                             
H             -0.871904   -1.386459    0.001253                                
H              2.004448   -0.101417   -0.000710                                
H              0.879028   -3.000685    0.000484                                
H              2.675323   -2.516779   -0.000673                                


       *******************************************************************
       *********** Output from DALTON general input processing ***********
       *******************************************************************

 --------------------------------------------------------------------------------
   Overall default print level:    0
   Print level for DALTON.STAT:    1

    HERMIT 1- and 2-electron integral sections will be executed
    "Old" integral transformation used (limited to max 255 basis functions)
    Wave function sections will be executed (SIRIUS module)
    Dynamic molecular response properties section will be executed (RESPONSE module)
    Environment is modeled using polarizable embedding scheme (PE library)
 --------------------------------------------------------------------------------


   ****************************************************************************
   *************** Output of molecule and basis set information ***************
   ****************************************************************************


    The two title cards from your ".mol" input:
    ------------------------------------------------------------------------
 1: Acrolein                                                                
 2: ------------------------                                                
    ------------------------------------------------------------------------

  Coordinates are entered in Angstrom and converted to atomic units.
          - Conversion factor : 1 bohr = 0.52917721 A

  Atomic type no.    1
  --------------------
  Nuclear charge:   6.00000
  Number of symmetry independent centers:    3
  Number of basis sets to read;    2
  Basis set file used for this atomic type with Z =   6 :
     "/home/magnus/Projects/dalton_devel/dalton/build_release/basis/STO-3G"

  Atomic type no.    2
  --------------------
  Nuclear charge:   8.00000
  Number of symmetry independent centers:    1
  Number of basis sets to read;    2
  Basis set file used for this atomic type with Z =   8 :
     "/home/magnus/Projects/dalton_devel/dalton/build_release/basis/STO-3G"

  Atomic type no.    3
  --------------------
  Nuclear charge:   1.00000
  Number of symmetry independent centers:    4
  Number of basis sets to read;    2
  Basis set file used for this atomic type with Z =   1 :
     "/home/magnus/Projects/dalton_devel/dalton/build_release/basis/STO-3G"


                         SYMGRP: Point group information
                         -------------------------------

@    Point group: C1 


                                 Isotopic Masses
                                 ---------------

                           C          12.000000
                           C          12.000000
                           C          12.000000
                           O          15.994915
                           H           1.007825
                           H           1.007825
                           H           1.007825
                           H           1.007825

                       Total mass:    56.026215 amu
                       Natural abundance:  96.446 %

 Center-of-mass coordinates (a.u.):    0.973773   -1.393790    0.000425


  Atoms and basis sets
  --------------------

  Number of atom types :    3
  Total number of atoms:    8

  Basis set used is "STO-3G" from the basis set library.

  label    atoms   charge   prim   cont     basis
  ----------------------------------------------------------------------
  C           3    6.0000    15     5      [6s3p|2s1p]                                        
  O           1    8.0000    15     5      [6s3p|2s1p]                                        
  H           4    1.0000     3     1      [3s|1s]                                            
  ----------------------------------------------------------------------
  total:      8   30.0000    72    24
  ----------------------------------------------------------------------

  Threshold for neglecting AO integrals:  1.00D-12


  Cartesian Coordinates (a.u.)
  ----------------------------

  Total number of coordinates:   24
  C       :     1  x  -0.2746433464    2  y  -1.0332455534    3  z   0.0011470638
  C       :     4  x   2.4075280908    5  y  -1.7243202870    6  z  -0.0003155843
  C       :     7  x   3.0804727920    8  y  -4.1719294689    9  z  -0.0002494438
  O       :    10  x  -1.0584431615   11  y   1.1507997464   12  z   0.0010091138
  H       :    13  x  -1.6476597673   14  y  -2.6200277935   15  z   0.0023678268
  H       :    16  x   3.7878577518   17  y  -0.1916503544   18  z  -0.0013417055
  H       :    19  x   1.6611221762   20  y  -5.6704728374   21  z   0.0009146274
  H       :    22  x   5.0556277659   23  y  -4.7560230271   24  z  -0.0012717857


   Interatomic separations (in Angstrom):
   --------------------------------------

            C           C           C           O           H           H     
            ------      ------      ------      ------      ------      ------
 C     :    0.000000
 C     :    1.465700    0.000000
 C     :    2.431231    1.343281    0.000000
 O     :    1.227919    2.383018    3.568007    0.000000
 H     :    1.110397    2.197637    2.633349    2.019650    0.000000
 H     :    2.195429    1.091490    2.139278    2.661125    3.150355    0.000000
 H     :    2.659139    2.125241    1.092234    3.885970    2.381489    3.110036
 H     :    3.440501    2.130137    1.089951    4.498704    3.722962    2.506800

            H           H     
            ------      ------
 H     :    0.000000
 H     :    1.860334    0.000000


  Max    interatomic separation is    4.4987 Angstrom (    8.5013 Bohr)
  between atoms    8 and    4, "H     " and "O     ".

  Min HX interatomic separation is    1.0900 Angstrom (    2.0597 Bohr)

  Min YX interatomic separation is    1.2279 Angstrom (    2.3204 Bohr)


  Bond distances (Angstrom):
  --------------------------

                  atom 1     atom 2       distance
                  ------     ------       --------
  bond distance:  C          C            1.465700
  bond distance:  C          C            1.343281
  bond distance:  O          C            1.227919
  bond distance:  H          C            1.110397
  bond distance:  H          C            1.091490
  bond distance:  H          C            1.092234
  bond distance:  H          C            1.089951


  Bond angles (degrees):
  ----------------------

                  atom 1     atom 2     atom 3         angle
                  ------     ------     ------         -----
  bond angle:     C          C          O            124.190
  bond angle:     C          C          H            116.421
  bond angle:     O          C          H            119.389
  bond angle:     C          C          C            119.821
  bond angle:     C          C          H            117.558
  bond angle:     C          C          H            122.621
  bond angle:     C          C          H            121.182
  bond angle:     C          C          H            121.847
  bond angle:     H          C          H            116.971




 Principal moments of inertia (u*A**2) and principal axes
 --------------------------------------------------------

   IA      10.696865         -0.668732    0.743503    0.000230
   IB     108.794831          0.743503    0.668732   -0.000587
   IC     119.491696          0.000590    0.000221    1.000000


 Rotational constants
 --------------------

@    The molecule is planar.

               A                   B                   C

          47245.5253           4645.2483           4229.4069 MHz
            1.575941            0.154949            0.141078 cm-1


@  Nuclear repulsion energy :  102.664846860515 Hartree

  Reading potential input file

  Polarizable embedding information
  ---------------------------------

    Number of classical sites:     10

    Multipole moments upto 3rd order.

    Dipole-dipole polarizabilities.

    Iterative solver for induced moments will be used
    with convergence threshold: 1.0E-08


                     .---------------------------------------.
                     | Starting in Integral Section (HERMIT) |
                     `---------------------------------------'



 ***************************************************************************************
 ****************** Output from **INTEGRALS input processing (HERMIT) ******************
 ***************************************************************************************


 - Using defaults, no **INTEGRALS input found

 Default print level:        1

 * Nuclear model: Point charge

 Calculation of one- and two-electron Hamiltonian integrals.

 Center of mass  (bohr):      0.973773359129     -1.393789716280      0.000424788898
 Operator center (bohr):      0.000000000000      0.000000000000      0.000000000000
 Gauge origin    (bohr):      0.000000000000      0.000000000000      0.000000000000
 Dipole origin   (bohr):      0.000000000000      0.000000000000      0.000000000000


     ************************************************************************
     ************************** Output from HERINT **************************
     ************************************************************************


 Threshold for neglecting two-electron integrals:  1.00D-12
 Number of two-electron integrals written:       43383 ( 96.1% )
 Megabytes written:                              0.502

 >>>  Time used in TWOINT     is   0.22 seconds
 >>>> Total CPU  time used in HERMIT:   0.26 seconds
 >>>> Total wall time used in HERMIT:   0.26 seconds


                        .----------------------------------.
                        | End of Integral Section (HERMIT) |
                        `----------------------------------'



                   .--------------------------------------------.
                   | Starting in Wave Function Section (SIRIUS) |
                   `--------------------------------------------'


 *** Output from Huckel module :

     Using EWMO model:          T
     Using EHT  model:          F
     Number of Huckel orbitals each symmetry:   24

 EWMO - Energy Weighted Maximum Overlap - is a Huckel type method,
        which normally is better than Extended Huckel Theory.
 Reference: Linderberg and Ohrn, Propagators in Quantum Chemistry (Wiley, 1973)

 Huckel EWMO eigenvalues for symmetry :  1
          -20.684561     -11.357400     -11.351264     -11.346036      -1.724840
           -1.477979      -1.046134      -1.031570      -0.744448      -0.729231
           -0.672044      -0.551742      -0.540543      -0.516178      -0.438809
           -0.319925      -0.220785      -0.162868      -0.131432      -0.129120
           -0.123435      -0.114530      -0.093199      -0.085427

 **********************************************************************
 *SIRIUS* a direct, restricted step, second order MCSCF program       *
 **********************************************************************

 
     Date and time (Linux)  : Sun May 25 16:48:24 2014
     Host name              : foeroyar                                

 Title lines from ".mol" input file:
     Acrolein                                                                
     ------------------------                                                

 Print level on unit LUPRI =   2 is   0
 Print level on unit LUW4  =   2 is   5

@    Restricted, closed shell Hartree-Fock calculation.

@    Time-dependent Hartree-Fock calculation (random phase approximation).

 Initial molecular orbitals are obtained according to
 ".MOSTART EWMO  " input option

@    QM part is embedded in an environment :

@         Model: PE

     Wave function specification
     ============================

     Wave function environment is modeled using the
     polarizable embedding model (PE library).

@    Wave function type        >>> PE-HF <<<
@    Number of closed shell electrons          30
@    Number of electrons in active shells       0
@    Total charge of the molecule               0

@    Spin multiplicity and 2 M_S                1         0
@    Total number of symmetries                 1 (point group: C1 )
@    Reference state symmetry                   1 (irrep name : A  )

     Orbital specifications
     ======================
     Abelian symmetry species          All |    1
                                           |  A  
                                       --- |  ---
@    Occupied SCF orbitals              15 |   15
     Secondary orbitals                  9 |    9
     Total number of orbitals           24 |   24
     Number of basis functions          24 |   24

     Optimization information
     ========================
@    Number of configurations                 1
@    Number of orbital rotations            135
     ------------------------------------------
@    Total number of variables              136

     Maximum number of Fock   iterations      0
     Maximum number of DIIS   iterations     60
     Maximum number of QC-SCF iterations     60
     Threshold for SCF convergence     1.00D-05


 *********************************************
 ***** DIIS optimization of Hartree-Fock *****
 *********************************************

 C1-DIIS algorithm; max error vectors =    8

 Iter      Total energy     Embedding energy      Error norm     Delta(E)
 -----------------------------------------------------------------------------
     (Precalculated two-electron integrals are transformed to P-supermatrix elements.
      Threshold for discarding integrals :  1.00D-12 )
@  1  -187.948496600     -4.868374348978E-02    2.01259D+00   -1.88D+02
      Virial theorem: -V/T =      2.003056
@      MULPOP C       0.93; C       0.24; C       0.42; O      -1.03; H      -0.16; H      -0.14; H      -0.12; H      -0.13; 
 -----------------------------------------------------------------------------
@  2  -188.184117641      2.395631939632E-03    1.37205D+00   -2.36D-01
      Virial theorem: -V/T =      2.009445
@      MULPOP C      -0.40; C      -0.18; C      -0.25; O       0.36; H       0.08; H       0.15; H       0.12; H       0.12; 
 -----------------------------------------------------------------------------
@  3  -188.315286617     -1.994245484711E-02    1.24791D-01   -1.31D-01
      Virial theorem: -V/T =      2.007781
@      MULPOP C       0.20; C      -0.10; C      -0.11; O      -0.30; H       0.05; H       0.09; H       0.08; H       0.08; 
 -----------------------------------------------------------------------------
@  4  -188.317217414     -1.921303195463E-02    2.86002D-02   -1.93D-03
      Virial theorem: -V/T =      2.007878
@      MULPOP C       0.14; C      -0.09; C      -0.09; O      -0.27; H       0.07; H       0.09; H       0.07; H       0.08; 
 -----------------------------------------------------------------------------
@  5  -188.317375460     -1.916756484708E-02    1.01219D-02   -1.58D-04
      Virial theorem: -V/T =      2.007837
@      MULPOP C       0.14; C      -0.09; C      -0.10; O      -0.27; H       0.07; H       0.10; H       0.07; H       0.08; 
 -----------------------------------------------------------------------------
@  6  -188.317390661     -1.918462219929E-02    2.91836D-03   -1.52D-05
      Virial theorem: -V/T =      2.007836
@      MULPOP C       0.14; C      -0.09; C      -0.09; O      -0.27; H       0.07; H       0.10; H       0.07; H       0.08; 
 -----------------------------------------------------------------------------
@  7  -188.317391836     -1.918172059284E-02    7.63510D-04   -1.18D-06
      Virial theorem: -V/T =      2.007836
@      MULPOP C       0.14; C      -0.09; C      -0.10; O      -0.27; H       0.07; H       0.10; H       0.07; H       0.08; 
 -----------------------------------------------------------------------------
@  8  -188.317391912     -1.918424880808E-02    1.65047D-04   -7.57D-08
      Virial theorem: -V/T =      2.007835
@      MULPOP C       0.14; C      -0.09; C      -0.10; O      -0.27; H       0.07; H       0.10; H       0.07; H       0.08; 
 -----------------------------------------------------------------------------
@  9  -188.317391916     -1.918425716014E-02    3.88606D-05   -3.86D-09
      Virial theorem: -V/T =      2.007835
@      MULPOP C       0.14; C      -0.09; C      -0.10; O      -0.27; H       0.07; H       0.10; H       0.07; H       0.08; 
 -----------------------------------------------------------------------------
@ 10  -188.317391916     -1.918439284565E-02    1.02862D-05   -2.78D-10
      Virial theorem: -V/T =      2.007835
@      MULPOP C       0.14; C      -0.09; C      -0.10; O      -0.27; H       0.07; H       0.10; H       0.07; H       0.08; 
 -----------------------------------------------------------------------------
@ 11  -188.317391916     -1.918440240297E-02    4.26094D-06   -2.16D-11

@ *** DIIS converged in  11 iterations !
@     Converged SCF energy, gradient:   -188.317391916171    4.26D-06
    - total time used in SIRFCK :              0.00 seconds


 *** SCF orbital energy analysis ***
   (incl. contribution from polarizable embedding potential)

 Only the five lowest virtual orbital energies printed in each symmetry.

 Number of electrons :   30
 Orbital occupations :   15

 Sym       Hartree-Fock orbital energies

1 A     -20.28723581   -11.13975626   -11.05534269   -11.04610016    -1.34280981
         -1.02347202    -0.82817316    -0.73627017    -0.61639425    -0.60505823
         -0.52315109    -0.50359054    -0.47863649    -0.36294748    -0.32551273
          0.20429349     0.38331437     0.59620659     0.62636541     0.65972017

    E(LUMO) :     0.20429349 au (symmetry 1)
  - E(HOMO) :    -0.32551273 au (symmetry 1)
  ------------------------------------------
    gap     :     0.52980622 au

      Polarizable embedding energy contributions:
     ---------------------------------------------

       Electrostatic contributions:
         Monopoles                 -0.015401656187
         Dipoles                    0.004183500763
         Quadrupoles               -0.004908351948
         Octopoles                 -0.002292515951

       Polarization contributions:
         Electronic                -0.043153628614
         Nuclear                    0.042259210352
         Multipole                  0.000129039182

       Total PE energy:            -0.019184402403

 >>> Writing SIRIFC interface file

 >>>> CPU and wall time for SCF :       0.503       0.504


                       .-----------------------------------.
                       | >>> Final results from SIRIUS <<< |
                       `-----------------------------------'


@    Spin multiplicity:           1
@    Spatial symmetry:            1 ( irrep  A   in C1  )
@    Total charge of molecule:    0

@    Final HF energy:            -188.317391916171                 
@    Nuclear repulsion:           102.664846860515
@    Electronic energy:          -290.963054374284
@    Embedding energy:             -0.019184402403

@    Final gradient norm:           0.000004260938

 
     Date and time (Linux)  : Sun May 25 16:48:25 2014
     Host name              : foeroyar                                

 (Only coefficients >0.0100 are printed.)

 Molecular orbitals for symmetry species 1  (A  )
 ------------------------------------------------

    Orbital         1        2        3        4        5        6        7
   1 C   :1s    -0.0005  -0.9926   0.0004   0.0013   0.1233  -0.0657   0.1392
   2 C   :1s     0.0071  -0.0332  -0.0000  -0.0065  -0.2836   0.1854  -0.4286
   3 C   :2px   -0.0021  -0.0003  -0.0001  -0.0043   0.0477   0.1137  -0.1057
   4 C   :2py    0.0059  -0.0005   0.0002   0.0011  -0.1463  -0.0899   0.1304
   6 C   :1s     0.0000   0.0004   0.0391   0.9914   0.0213  -0.1794   0.0529
   7 C   :1s    -0.0003   0.0061  -0.0062   0.0366  -0.0515   0.4698  -0.1576
   8 C   :2px    0.0000  -0.0040  -0.0012  -0.0004   0.0281  -0.0165   0.1812
   9 C   :2py   -0.0006   0.0013   0.0043  -0.0016  -0.0077  -0.0928  -0.1653
  11 C   :1s    -0.0000   0.0003   0.9916  -0.0385   0.0045  -0.1571  -0.1474
  12 C   :1s    -0.0001  -0.0001   0.0353  -0.0091  -0.0107   0.4160   0.4325
  13 C   :2px   -0.0001  -0.0000  -0.0004   0.0013   0.0023  -0.0398   0.0556
  14 C   :2py   -0.0000   0.0000   0.0012  -0.0045  -0.0054   0.1050  -0.0565
  16 O   :1s    -0.9943  -0.0002   0.0000  -0.0000   0.2184   0.0460  -0.0787
  17 O   :1s    -0.0260   0.0058  -0.0001   0.0003  -0.7670  -0.1799   0.3406
  18 O   :2px   -0.0019   0.0007  -0.0000   0.0002  -0.0541   0.0217  -0.0698
  19 O   :2py    0.0052  -0.0016   0.0001  -0.0001   0.1483  -0.0078   0.1122
  21 H   :1s    -0.0002   0.0065  -0.0001   0.0001  -0.0318   0.0480  -0.1541
  22 H   :1s     0.0002  -0.0000  -0.0002  -0.0067  -0.0082   0.0990  -0.0508
  23 H   :1s     0.0000   0.0001  -0.0067   0.0004  -0.0019   0.0983   0.1507
  24 H   :1s     0.0000   0.0001  -0.0067   0.0004  -0.0011   0.0900   0.1894

    Orbital         8        9       10       11       12       13       14
   1 C   :1s    -0.0908   0.0077   0.0546   0.0043   0.0290  -0.0000  -0.0049
   2 C   :1s     0.2953  -0.0229  -0.1854  -0.0095  -0.1109   0.0000   0.0178
   3 C   :2px   -0.2401  -0.3742   0.0236   0.0875  -0.1994   0.0004   0.2011
   4 C   :2py   -0.1716  -0.1155  -0.2336  -0.3686   0.0747   0.0002   0.0582
   5 C   :2pz    0.0002   0.0003   0.0000   0.0001   0.0002   0.5624  -0.0001
   6 C   :1s     0.1078  -0.0315  -0.0341   0.0048  -0.0185   0.0000  -0.0358
   7 C   :1s    -0.3319   0.1038   0.0971  -0.0028   0.0806  -0.0000   0.1571
   8 C   :2px   -0.1321   0.3075  -0.0790  -0.0568   0.2253   0.0001  -0.3136
   9 C   :2py   -0.1452  -0.0726  -0.2764   0.3253   0.2498   0.0000   0.0574
  10 C   :2pz    0.0001  -0.0002   0.0001  -0.0000  -0.0001   0.2906   0.0002
  11 C   :1s    -0.0570   0.0160   0.0142   0.0232   0.0106  -0.0000   0.0069
  12 C   :1s     0.1780  -0.0656  -0.0632  -0.0645  -0.0297   0.0000  -0.0215
  13 C   :2px   -0.0487   0.1921  -0.3275   0.1933  -0.3522   0.0001   0.0735
  14 C   :2py   -0.1707   0.2761   0.2263  -0.2836  -0.2269   0.0001  -0.0641
  15 C   :2pz    0.0001  -0.0002   0.0001  -0.0000   0.0003   0.1863  -0.0001
  16 O   :1s     0.0421   0.0008  -0.0748  -0.0565   0.0109  -0.0000  -0.0014
  17 O   :1s    -0.1929  -0.0060   0.3821   0.3138  -0.0629   0.0000   0.0095
  18 O   :2px   -0.1249  -0.3476  -0.2212  -0.1859  -0.2259   0.0004  -0.7920
  19 O   :2py   -0.1723  -0.1243   0.3551   0.4955  -0.1816   0.0002  -0.2833
  20 O   :2pz    0.0001   0.0003   0.0000  -0.0000   0.0003   0.5788   0.0006
  21 H   :1s     0.2761   0.2001   0.0382   0.2022   0.0099  -0.0000  -0.3536
  22 H   :1s    -0.2438   0.1541  -0.1392   0.1748   0.3459  -0.0001  -0.1252
  23 H   :1s     0.1768  -0.2785   0.0217   0.0441   0.3828  -0.0000  -0.0587
  24 H   :1s     0.0721   0.0524  -0.3222   0.2088  -0.2831   0.0000   0.1043

    Orbital        15       16       17
   5 C   :2pz    0.1679  -0.5381  -0.6701
  10 C   :2pz   -0.5667  -0.3985   0.7309
  15 C   :2pz   -0.5857   0.6322  -0.5310
  20 O   :2pz    0.4118   0.5832   0.4465



 >>>> Total CPU  time used in SIRIUS :      0.51 seconds
 >>>> Total wall time used in SIRIUS :      0.51 seconds

 
     Date and time (Linux)  : Sun May 25 16:48:25 2014
     Host name              : foeroyar                                


                     .---------------------------------------.
                     | End of Wave Function Section (SIRIUS) |
                     `---------------------------------------'



                 .------------------------------------------------.
                 | Starting in Dynamic Property Section (RESPONS) |
                 `------------------------------------------------'


 ------------------------------------------------------------------------------
  RESPONSE  -  an MCSCF, MC-srDFT, DFT, and SOPPA response property program
 ------------------------------------------------------------------------------


 <<<<<<<<<< OUTPUT FROM RESPONSE INPUT PROCESSING >>>>>>>>>>




 Quadratic Response single residue calculation
 ---------------------------------------------

 That is, calculation of second order moments.

 Two-photon transition processes computed (.TWO-PHOTON).
 Both photon frequencies are half the excitation energy.

 Spin of operator A , ISPINA=    0
 Spin of operator B , ISPINB=    0
 Spin of operator C , (Excitation energy) ISPINC=    0

 Print level                                    : IPRSMO =    2
 Threshold for convergence in RSPPP             : THCPP  = 1.000D-03
 Maximum number of iterations in RSPPP          : MAXITP =   60
 Threshold for convergence in RSPLR             : THCLR  = 1.000D-03
 Maximum number of iterations in RSPLR          : MAXITL =   60
 Maximum iterations in optimal orbital algorithm: MAXITO =    5
 Environment is modeled using the polarizable embedding scheme (PE library)

    3 A OPERATORS OF SYMMETRY NO:    1 AND LABELS:

          XDIPLEN 
          YDIPLEN 
          ZDIPLEN 

    3 B OPERATORS OF SYMMETRY NO:    1 AND LABELS:

          XDIPLEN 
          YDIPLEN 
          ZDIPLEN 

 Integral transformation: Total CPU and WALL times (sec)       0.047       0.047


   SCF energy         :     -188.317391916171346
 -- inactive part     :     -290.963054374283558
 -- nuclear repulsion :      102.664846860515169


                     ***************************************
                     *** RHF response calculation (TDHF) ***
                     ***************************************



 Linear response excitations for quadratic response
 - symmetry of excitation operator    1  ( A  )
 - is the operator a triplet operator ?     F


 Perturbation symmetry.     KSYMOP:       1
 Perturbation spin symmetry.TRPLET:       F
 Orbital variables.         KZWOPT:     135
 Configuration variables.   KZCONF:       0
 Total number of variables. KZVAR :     135



 <<< EXCITATION ENERGIES AND TRANSITION MOMENT CALCULATION (MCTDHF) >>>

 Operator symmetry = 1  ( A  ); triplet =   F


 *** THE REQUESTED    4 SOLUTION VECTORS CONVERGED

 Convergence of RSP solution vectors, threshold = 1.00D-03
 ---------------------------------------------------------------
 (dimension of paired reduced space:   58)
 RSP solution vector no.    1; norm of residual   2.48D-04
 RSP solution vector no.    2; norm of residual   4.21D-04
 RSP solution vector no.    3; norm of residual   1.94D-04
 RSP solution vector no.    4; norm of residual   7.89D-04

 *** RSPCTL MICROITERATIONS CONVERGED

@ QRPPVE: SINGLET EXCITATION VECTOR    1    SYMMETRY    1  ( A  )
@ Singlet excitation energy  1.562407D-01

@ QRPPVE: SINGLET EXCITATION VECTOR    2    SYMMETRY    1  ( A  )
@ Singlet excitation energy  3.085869D-01

@ QRPPVE: SINGLET EXCITATION VECTOR    3    SYMMETRY    1  ( A  )
@ Singlet excitation energy  3.219753D-01

@ QRPPVE: SINGLET EXCITATION VECTOR    4    SYMMETRY    1  ( A  )
@ Singlet excitation energy  3.806990D-01


 Linear response calculations for quadratic response
 - singlet property operator of symmetry    1  ( A  )


 Perturbation symmetry.     KSYMOP:       1
 Perturbation spin symmetry.TRPLET:       F
 Orbital variables.         KZWOPT:     135
 Configuration variables.   KZCONF:       0
 Total number of variables. KZVAR :     135


 QRLRVE -- linear response calculation for symmetry  1  ( A  )
 QRLRVE -- operator label : XDIPLEN 
 QRLRVE -- operator spin  :   0
 QRLRVE -- frequencies :  0.078120  0.154293  0.160988  0.190350



 <<<  SOLVING SETS OF LINEAR EQUATIONS FOR LINEAR RESPONSE PROPERTIES >>>

 Operator symmetry = 1  ( A  ); triplet =   F


 *** THE REQUESTED    4 SOLUTION VECTORS CONVERGED

 Convergence of RSP solution vectors, threshold = 1.00D-03
 ---------------------------------------------------------------
 (dimension of paired reduced space:   40)
 RSP solution vector no.    1; norm of residual   1.50D-04
 RSP solution vector no.    2; norm of residual   1.99D-04
 RSP solution vector no.    3; norm of residual   2.06D-04
 RSP solution vector no.    4; norm of residual   2.44D-04

 *** RSPCTL MICROITERATIONS CONVERGED

@ QRLRVE: SINGLET SOLUTION FOR SYMMETRY    1  ( A  )    LABEL   XDIPLEN     FREQUENCY   0.781203D-01

@ QRLRVE:  << XDIPLEN  ; XDIPLEN  >> (   0.07812):     21.5292075982    

@ QRLRVE:  << YDIPLEN  ; XDIPLEN  >> (   0.07812):    -9.31548189306    

@ QRLRVE:  << ZDIPLEN  ; XDIPLEN  >> (   0.07812):   -7.866611385779E-03

@ QRLRVE: SINGLET SOLUTION FOR SYMMETRY    1  ( A  )    LABEL   XDIPLEN     FREQUENCY   0.154293D+00

@ QRLRVE:  << XDIPLEN  ; XDIPLEN  >> (   0.15429):     23.4229544440    

@ QRLRVE:  << YDIPLEN  ; XDIPLEN  >> (   0.15429):    -11.8072341246    

@ QRLRVE:  << ZDIPLEN  ; XDIPLEN  >> (   0.15429):   -8.351334318361E-03

@ QRLRVE: SINGLET SOLUTION FOR SYMMETRY    1  ( A  )    LABEL   XDIPLEN     FREQUENCY   0.160988D+00

@ QRLRVE:  << XDIPLEN  ; XDIPLEN  >> (   0.16099):     23.7003118987    

@ QRLRVE:  << YDIPLEN  ; XDIPLEN  >> (   0.16099):    -12.1901646608    

@ QRLRVE:  << ZDIPLEN  ; XDIPLEN  >> (   0.16099):   -8.420654410747E-03

@ QRLRVE: SINGLET SOLUTION FOR SYMMETRY    1  ( A  )    LABEL   XDIPLEN     FREQUENCY   0.190350D+00

@ QRLRVE:  << XDIPLEN  ; XDIPLEN  >> (   0.19035):     25.2924655575    

@ QRLRVE:  << YDIPLEN  ; XDIPLEN  >> (   0.19035):    -14.4597441826    

@ QRLRVE:  << ZDIPLEN  ; XDIPLEN  >> (   0.19035):   -8.812233353262E-03


 QRLRVE -- linear response calculation for symmetry  1  ( A  )
 QRLRVE -- operator label : YDIPLEN 
 QRLRVE -- operator spin  :   0
 QRLRVE -- frequencies :  0.078120  0.154293  0.160988  0.190350



 <<<  SOLVING SETS OF LINEAR EQUATIONS FOR LINEAR RESPONSE PROPERTIES >>>

 Operator symmetry = 1  ( A  ); triplet =   F


 *** THE REQUESTED    4 SOLUTION VECTORS CONVERGED

 Convergence of RSP solution vectors, threshold = 1.00D-03
 ---------------------------------------------------------------
 (dimension of paired reduced space:   40)
 RSP solution vector no.    1; norm of residual   1.02D-04
 RSP solution vector no.    2; norm of residual   1.36D-04
 RSP solution vector no.    3; norm of residual   1.40D-04
 RSP solution vector no.    4; norm of residual   1.64D-04

 *** RSPCTL MICROITERATIONS CONVERGED

@ QRLRVE: SINGLET SOLUTION FOR SYMMETRY    1  ( A  )    LABEL   YDIPLEN     FREQUENCY   0.781203D-01

@ QRLRVE:  << XDIPLEN  ; YDIPLEN  >> (   0.07812):    -9.31554754149    

@ QRLRVE:  << YDIPLEN  ; YDIPLEN  >> (   0.07812):     34.8231521107    

@ QRLRVE:  << ZDIPLEN  ; YDIPLEN  >> (   0.07812):   -8.809084585227E-04

@ QRLRVE: SINGLET SOLUTION FOR SYMMETRY    1  ( A  )    LABEL   YDIPLEN     FREQUENCY   0.154293D+00

@ QRLRVE:  << XDIPLEN  ; YDIPLEN  >> (   0.15429):    -11.8072564267    

@ QRLRVE:  << YDIPLEN  ; YDIPLEN  >> (   0.15429):     39.6831258031    

@ QRLRVE:  << ZDIPLEN  ; YDIPLEN  >> (   0.15429):   -3.819737774983E-04

@ QRLRVE: SINGLET SOLUTION FOR SYMMETRY    1  ( A  )    LABEL   YDIPLEN     FREQUENCY   0.160988D+00

@ QRLRVE:  << XDIPLEN  ; YDIPLEN  >> (   0.16099):    -12.1901764801    

@ QRLRVE:  << YDIPLEN  ; YDIPLEN  >> (   0.16099):     40.4139027145    

@ QRLRVE:  << ZDIPLEN  ; YDIPLEN  >> (   0.16099):   -3.027286580955E-04

@ QRLRVE: SINGLET SOLUTION FOR SYMMETRY    1  ( A  )    LABEL   YDIPLEN     FREQUENCY   0.190350D+00

@ QRLRVE:  << XDIPLEN  ; YDIPLEN  >> (   0.19035):    -14.4596770266    

@ QRLRVE:  << YDIPLEN  ; YDIPLEN  >> (   0.19035):     44.6834149857    

@ QRLRVE:  << ZDIPLEN  ; YDIPLEN  >> (   0.19035):    1.769218448348E-04


 QRLRVE -- linear response calculation for symmetry  1  ( A  )
 QRLRVE -- operator label : ZDIPLEN 
 QRLRVE -- operator spin  :   0
 QRLRVE -- frequencies :  0.078120  0.154293  0.160988  0.190350



 <<<  SOLVING SETS OF LINEAR EQUATIONS FOR LINEAR RESPONSE PROPERTIES >>>

 Operator symmetry = 1  ( A  ); triplet =   F


 *** INFO, negative eigenvalues in reduced matrix. Symmetry  1,  triplet       F

 GP * SOLUTION vector at frequency     0.16099 a.u.
 after    8 linear transformations is      4.77748600D+00
 INERTIA (POS,ZER,NEG) of reduced matrix is   15    0    1
 Determinant of reduced matrix is-71.71 * 10 **-20.0

 *** INFO, negative eigenvalues in reduced matrix. Symmetry  1,  triplet       F

 GP * SOLUTION vector at frequency     0.19035 a.u.
 after    8 linear transformations is      4.95238348D+00
 INERTIA (POS,ZER,NEG) of reduced matrix is   15    0    1
 Determinant of reduced matrix is-22.06 * 10 **  0.0

 *** INFO, negative eigenvalues in reduced matrix. Symmetry  1,  triplet       F

 GP * SOLUTION vector at frequency     0.16099 a.u.
 after   12 linear transformations is      4.83797644D+00
 INERTIA (POS,ZER,NEG) of reduced matrix is   23    0    1
 Determinant of reduced matrix is-97.91 * 10 **  0.0

 *** INFO, negative eigenvalues in reduced matrix. Symmetry  1,  triplet       F

 GP * SOLUTION vector at frequency     0.19035 a.u.
 after   12 linear transformations is      4.96658808D+00
 INERTIA (POS,ZER,NEG) of reduced matrix is   23    0    1
 Determinant of reduced matrix is-55.21 * 10 ** 10.0

 *** INFO, negative eigenvalues in reduced matrix. Symmetry  1,  triplet       F

 GP * SOLUTION vector at frequency     0.16099 a.u.
 after   16 linear transformations is      4.83868222D+00
 INERTIA (POS,ZER,NEG) of reduced matrix is   31    0    1
 Determinant of reduced matrix is-53.91 * 10 ** 20.0

 *** INFO, negative eigenvalues in reduced matrix. Symmetry  1,  triplet       F

 GP * SOLUTION vector at frequency     0.19035 a.u.
 after   16 linear transformations is      4.96738476D+00
 INERTIA (POS,ZER,NEG) of reduced matrix is   31    0    1
 Determinant of reduced matrix is-26.82 * 10 ** 30.0

 *** INFO, negative eigenvalues in reduced matrix. Symmetry  1,  triplet       F

 GP * SOLUTION vector at frequency     0.16099 a.u.
 after   20 linear transformations is      4.83873047D+00
 INERTIA (POS,ZER,NEG) of reduced matrix is   39    0    1
 Determinant of reduced matrix is-23.37 * 10 ** 40.0

 *** INFO, negative eigenvalues in reduced matrix. Symmetry  1,  triplet       F

 GP * SOLUTION vector at frequency     0.19035 a.u.
 after   20 linear transformations is      4.96741903D+00
 INERTIA (POS,ZER,NEG) of reduced matrix is   39    0    1
 Determinant of reduced matrix is-10.51 * 10 ** 50.0

 *** INFO, negative eigenvalues in reduced matrix. Symmetry  1,  triplet       F

 GP * SOLUTION vector at frequency     0.16099 a.u.
 after   23 linear transformations is      4.83873212D+00
 INERTIA (POS,ZER,NEG) of reduced matrix is   45    0    1
 Determinant of reduced matrix is-40.36 * 10 ** 60.0

 *** INFO, negative eigenvalues in reduced matrix. Symmetry  1,  triplet       F

 GP * SOLUTION vector at frequency     0.19035 a.u.
 after   23 linear transformations is      4.96742022D+00
 INERTIA (POS,ZER,NEG) of reduced matrix is   45    0    1
 Determinant of reduced matrix is-17.29 * 10 ** 70.0

 *** THE REQUESTED    4 SOLUTION VECTORS CONVERGED

 Convergence of RSP solution vectors, threshold = 1.00D-03
 ---------------------------------------------------------------
 (dimension of paired reduced space:   46)
 RSP solution vector no.    1; norm of residual   6.25D-05
 RSP solution vector no.    2; norm of residual   3.98D-04
 RSP solution vector no.    3; norm of residual   2.17D-04
 RSP solution vector no.    4; norm of residual   2.66D-04

 *** RSPCTL MICROITERATIONS CONVERGED

@ QRLRVE: SINGLET SOLUTION FOR SYMMETRY    1  ( A  )    LABEL   ZDIPLEN     FREQUENCY   0.781203D-01

@ QRLRVE:  << XDIPLEN  ; ZDIPLEN  >> (   0.07812):   -7.849042074648E-03

@ QRLRVE:  << YDIPLEN  ; ZDIPLEN  >> (   0.07812):   -8.954307944214E-04

@ QRLRVE:  << ZDIPLEN  ; ZDIPLEN  >> (   0.07812):     4.64042330129    

@ QRLRVE: SINGLET SOLUTION FOR SYMMETRY    1  ( A  )    LABEL   ZDIPLEN     FREQUENCY   0.154293D+00

@ QRLRVE:  << XDIPLEN  ; ZDIPLEN  >> (   0.15429):   -8.063651730467E-03

@ QRLRVE:  << YDIPLEN  ; ZDIPLEN  >> (   0.15429):   -6.985271422350E-04

@ QRLRVE:  << ZDIPLEN  ; ZDIPLEN  >> (   0.15429):     4.84122260795    

@ QRLRVE: SINGLET SOLUTION FOR SYMMETRY    1  ( A  )    LABEL   ZDIPLEN     FREQUENCY   0.160988D+00

@ QRLRVE:  << XDIPLEN  ; ZDIPLEN  >> (   0.16099):   -8.595801239470E-03

@ QRLRVE:  << YDIPLEN  ; ZDIPLEN  >> (   0.16099):   -1.857486687312E-05

@ QRLRVE:  << ZDIPLEN  ; ZDIPLEN  >> (   0.16099):     4.83873211940    

@ QRLRVE: SINGLET SOLUTION FOR SYMMETRY    1  ( A  )    LABEL   ZDIPLEN     FREQUENCY   0.190350D+00

@ QRLRVE:  << XDIPLEN  ; ZDIPLEN  >> (   0.19035):   -8.944069801190E-03

@ QRLRVE:  << YDIPLEN  ; ZDIPLEN  >> (   0.19035):    4.665580145214E-04

@ QRLRVE:  << ZDIPLEN  ; ZDIPLEN  >> (   0.19035):     4.96742021916    


 Second order moment in a.u. for
 A operator label,  symmetry, spin:      XDIPLEN     1    0
 B operator label,  symmetry, spin:      XDIPLEN     1    0
 Excited state no., symmetry, spin:             1    1    0

 omega B, excitation energy, moment :    0.078120    0.156241    0.000701


 Second order moment in a.u. for
 A operator label,  symmetry, spin:      YDIPLEN     1    0
 B operator label,  symmetry, spin:      XDIPLEN     1    0
 Excited state no., symmetry, spin:             1    1    0

 omega B, excitation energy, moment :    0.078120    0.156241    0.000278


 Second order moment in a.u. for
 A operator label,  symmetry, spin:      ZDIPLEN     1    0
 B operator label,  symmetry, spin:      XDIPLEN     1    0
 Excited state no., symmetry, spin:             1    1    0

 omega B, excitation energy, moment :    0.078120    0.156241    0.486406


 Second order moment in a.u. for
 A operator label,  symmetry, spin:      XDIPLEN     1    0
 B operator label,  symmetry, spin:      YDIPLEN     1    0
 Excited state no., symmetry, spin:             1    1    0

 omega B, excitation energy, moment :    0.078120    0.156241    0.000278


 Second order moment in a.u. for
 A operator label,  symmetry, spin:      YDIPLEN     1    0
 B operator label,  symmetry, spin:      YDIPLEN     1    0
 Excited state no., symmetry, spin:             1    1    0

 omega B, excitation energy, moment :    0.078120    0.156241    0.000361


 Second order moment in a.u. for
 A operator label,  symmetry, spin:      ZDIPLEN     1    0
 B operator label,  symmetry, spin:      YDIPLEN     1    0
 Excited state no., symmetry, spin:             1    1    0

 omega B, excitation energy, moment :    0.078120    0.156241    0.436977


 Second order moment in a.u. for
 A operator label,  symmetry, spin:      XDIPLEN     1    0
 B operator label,  symmetry, spin:      ZDIPLEN     1    0
 Excited state no., symmetry, spin:             1    1    0

 omega B, excitation energy, moment :    0.078120    0.156241    0.486406


 Second order moment in a.u. for
 A operator label,  symmetry, spin:      YDIPLEN     1    0
 B operator label,  symmetry, spin:      ZDIPLEN     1    0
 Excited state no., symmetry, spin:             1    1    0

 omega B, excitation energy, moment :    0.078120    0.156241    0.436977


 Second order moment in a.u. for
 A operator label,  symmetry, spin:      ZDIPLEN     1    0
 B operator label,  symmetry, spin:      ZDIPLEN     1    0
 Excited state no., symmetry, spin:             1    1    0

 omega B, excitation energy, moment :    0.078120    0.156241   -0.000802


 Second order moment in a.u. for
 A operator label,  symmetry, spin:      XDIPLEN     1    0
 B operator label,  symmetry, spin:      XDIPLEN     1    0
 Excited state no., symmetry, spin:             2    1    0

 omega B, excitation energy, moment :    0.154293    0.308587   -7.377443


 Second order moment in a.u. for
 A operator label,  symmetry, spin:      YDIPLEN     1    0
 B operator label,  symmetry, spin:      XDIPLEN     1    0
 Excited state no., symmetry, spin:             2    1    0

 omega B, excitation energy, moment :    0.154293    0.308587    5.783820


 Second order moment in a.u. for
 A operator label,  symmetry, spin:      ZDIPLEN     1    0
 B operator label,  symmetry, spin:      XDIPLEN     1    0
 Excited state no., symmetry, spin:             2    1    0

 omega B, excitation energy, moment :    0.154293    0.308587    0.002972


 Second order moment in a.u. for
 A operator label,  symmetry, spin:      XDIPLEN     1    0
 B operator label,  symmetry, spin:      YDIPLEN     1    0
 Excited state no., symmetry, spin:             2    1    0

 omega B, excitation energy, moment :    0.154293    0.308587    5.783820


 Second order moment in a.u. for
 A operator label,  symmetry, spin:      YDIPLEN     1    0
 B operator label,  symmetry, spin:      YDIPLEN     1    0
 Excited state no., symmetry, spin:             2    1    0

 omega B, excitation energy, moment :    0.154293    0.308587   -3.423858


 Second order moment in a.u. for
 A operator label,  symmetry, spin:      ZDIPLEN     1    0
 B operator label,  symmetry, spin:      YDIPLEN     1    0
 Excited state no., symmetry, spin:             2    1    0

 omega B, excitation energy, moment :    0.154293    0.308587   -0.002338


 Second order moment in a.u. for
 A operator label,  symmetry, spin:      XDIPLEN     1    0
 B operator label,  symmetry, spin:      ZDIPLEN     1    0
 Excited state no., symmetry, spin:             2    1    0

 omega B, excitation energy, moment :    0.154293    0.308587    0.002972


 Second order moment in a.u. for
 A operator label,  symmetry, spin:      YDIPLEN     1    0
 B operator label,  symmetry, spin:      ZDIPLEN     1    0
 Excited state no., symmetry, spin:             2    1    0

 omega B, excitation energy, moment :    0.154293    0.308587   -0.002338


 Second order moment in a.u. for
 A operator label,  symmetry, spin:      ZDIPLEN     1    0
 B operator label,  symmetry, spin:      ZDIPLEN     1    0
 Excited state no., symmetry, spin:             2    1    0

 omega B, excitation energy, moment :    0.154293    0.308587   -0.321160


 Second order moment in a.u. for
 A operator label,  symmetry, spin:      XDIPLEN     1    0
 B operator label,  symmetry, spin:      XDIPLEN     1    0
 Excited state no., symmetry, spin:             3    1    0

 omega B, excitation energy, moment :    0.160988    0.321975    0.001283


 Second order moment in a.u. for
 A operator label,  symmetry, spin:      YDIPLEN     1    0
 B operator label,  symmetry, spin:      XDIPLEN     1    0
 Excited state no., symmetry, spin:             3    1    0

 omega B, excitation energy, moment :    0.160988    0.321975   -0.000740


 Second order moment in a.u. for
 A operator label,  symmetry, spin:      ZDIPLEN     1    0
 B operator label,  symmetry, spin:      XDIPLEN     1    0
 Excited state no., symmetry, spin:             3    1    0

 omega B, excitation energy, moment :    0.160988    0.321975   -0.667197


 Second order moment in a.u. for
 A operator label,  symmetry, spin:      XDIPLEN     1    0
 B operator label,  symmetry, spin:      YDIPLEN     1    0
 Excited state no., symmetry, spin:             3    1    0

 omega B, excitation energy, moment :    0.160988    0.321975   -0.000740


 Second order moment in a.u. for
 A operator label,  symmetry, spin:      YDIPLEN     1    0
 B operator label,  symmetry, spin:      YDIPLEN     1    0
 Excited state no., symmetry, spin:             3    1    0

 omega B, excitation energy, moment :    0.160988    0.321975    0.002005


 Second order moment in a.u. for
 A operator label,  symmetry, spin:      ZDIPLEN     1    0
 B operator label,  symmetry, spin:      YDIPLEN     1    0
 Excited state no., symmetry, spin:             3    1    0

 omega B, excitation energy, moment :    0.160988    0.321975    1.832072


 Second order moment in a.u. for
 A operator label,  symmetry, spin:      XDIPLEN     1    0
 B operator label,  symmetry, spin:      ZDIPLEN     1    0
 Excited state no., symmetry, spin:             3    1    0

 omega B, excitation energy, moment :    0.160988    0.321975   -0.667197


 Second order moment in a.u. for
 A operator label,  symmetry, spin:      YDIPLEN     1    0
 B operator label,  symmetry, spin:      ZDIPLEN     1    0
 Excited state no., symmetry, spin:             3    1    0

 omega B, excitation energy, moment :    0.160988    0.321975    1.832072


 Second order moment in a.u. for
 A operator label,  symmetry, spin:      ZDIPLEN     1    0
 B operator label,  symmetry, spin:      ZDIPLEN     1    0
 Excited state no., symmetry, spin:             3    1    0

 omega B, excitation energy, moment :    0.160988    0.321975   -0.000196


 Second order moment in a.u. for
 A operator label,  symmetry, spin:      XDIPLEN     1    0
 B operator label,  symmetry, spin:      XDIPLEN     1    0
 Excited state no., symmetry, spin:             4    1    0

 omega B, excitation energy, moment :    0.190350    0.380699   -0.001377


 Second order moment in a.u. for
 A operator label,  symmetry, spin:      YDIPLEN     1    0
 B operator label,  symmetry, spin:      XDIPLEN     1    0
 Excited state no., symmetry, spin:             4    1    0

 omega B, excitation energy, moment :    0.190350    0.380699   -0.000239


 Second order moment in a.u. for
 A operator label,  symmetry, spin:      ZDIPLEN     1    0
 B operator label,  symmetry, spin:      XDIPLEN     1    0
 Excited state no., symmetry, spin:             4    1    0

 omega B, excitation energy, moment :    0.190350    0.380699   -1.037413


 Second order moment in a.u. for
 A operator label,  symmetry, spin:      XDIPLEN     1    0
 B operator label,  symmetry, spin:      YDIPLEN     1    0
 Excited state no., symmetry, spin:             4    1    0

 omega B, excitation energy, moment :    0.190350    0.380699   -0.000239


 Second order moment in a.u. for
 A operator label,  symmetry, spin:      YDIPLEN     1    0
 B operator label,  symmetry, spin:      YDIPLEN     1    0
 Excited state no., symmetry, spin:             4    1    0

 omega B, excitation energy, moment :    0.190350    0.380699   -0.001492


 Second order moment in a.u. for
 A operator label,  symmetry, spin:      ZDIPLEN     1    0
 B operator label,  symmetry, spin:      YDIPLEN     1    0
 Excited state no., symmetry, spin:             4    1    0

 omega B, excitation energy, moment :    0.190350    0.380699   -1.052265


 Second order moment in a.u. for
 A operator label,  symmetry, spin:      XDIPLEN     1    0
 B operator label,  symmetry, spin:      ZDIPLEN     1    0
 Excited state no., symmetry, spin:             4    1    0

 omega B, excitation energy, moment :    0.190350    0.380699   -1.037413


 Second order moment in a.u. for
 A operator label,  symmetry, spin:      YDIPLEN     1    0
 B operator label,  symmetry, spin:      ZDIPLEN     1    0
 Excited state no., symmetry, spin:             4    1    0

 omega B, excitation energy, moment :    0.190350    0.380699   -1.052265


 Second order moment in a.u. for
 A operator label,  symmetry, spin:      ZDIPLEN     1    0
 B operator label,  symmetry, spin:      ZDIPLEN     1    0
 Excited state no., symmetry, spin:             4    1    0

 omega B, excitation energy, moment :    0.190350    0.380699    0.001618


       *******************************************************************
       ************ FINAL RESULTS FROM TWO-PHOTON CALCULATION ************
       *******************************************************************

 The two-photon absorption strength for an average molecular  
 orientation is computed according to formulas given by       
 P.R. Monson and W.M. McClain in J. Chem. Phys. 53:29, 1970   
 and W.M. McClain in J. Chem. Phys. 55:2789, 1971.            
 The absorption depends on the light polarization.            
 A monochromatic light source is assumed.                     

 All results are presented in atomic units, except the        
 excitation energy which is given in eV and two-photon cross  
 section which is given in GM. A FWHM of 0.1 eV is assumed.   

   Conversion factors:
      1 a.u. = 1.896788 10^{-50} cm^4 s/photon
      1 GM = 10^{-50} cm^4 s/photon


                  +--------------------------------+
                  | Two-photon transition tensor S |
                  +--------------------------------+
     ---------------------------------------------------------------
     Sym  No  Energy     Sxx     Syy     Szz     Sxy     Sxz     Syz
     ---------------------------------------------------------------
       1   1    4.25     0.0     0.0    -0.0     0.0     0.5     0.4
       1   2    8.40    -7.4    -3.4    -0.3     5.8     0.0    -0.0
       1   3    8.76     0.0     0.0    -0.0    -0.0    -0.7     1.8
       1   4   10.36    -0.0    -0.0     0.0    -0.0    -1.0    -1.1
     ---------------------------------------------------------------


                    Transition probabilities (a.u.)         
                   -----------------------------------------
                    D  =  2*Df + 4*Dg, Linear   polarization
                    D  = -2*Df + 6*Dg, Circular polarization
                    Df = sum(i,j){ S_ii * S_jj }/30         
                    Dg = sum(i,j){ S_ij * S_ij }/30         

                   Two-photon cross sections                
         ---------------------------------------------------
          sigma  =  8*pi^3*alpha^2*hbar/e^4 * E^2*D   (a.u.)

                             Polarization ratio      
                      -------------------------------
                          R  = (-Df+3*Dg)/(Df+2*Dg)  


                   +-----------------------------------+
                   |   Two-photon absorption summary   |
                   +-----------------------------------+
   ---------------------------------------------------------------------------------
   Sym  No  Energy  Polarization         Df         Dg          D      sigma       R
   ---------------------------------------------------------------------------------
     1   1    4.25   Linear       0.226E-08  0.285E-01  0.114E+00  0.151E-02    1.50
     1   1    4.25   Circular     0.226E-08  0.285E-01  0.171E+00  0.226E-02    1.50
     1   2    8.40   Linear       0.412E+01  0.444E+01  0.260E+02  0.134E+01    0.71
     1   2    8.40   Circular     0.412E+01  0.444E+01  0.184E+02  0.950E+00    0.71
     1   3    8.76   Linear       0.319E-06  0.253E+00  0.101E+01  0.570E-01    1.50
     1   3    8.76   Circular     0.319E-06  0.253E+00  0.152E+01  0.855E-01    1.50
     1   4   10.36   Linear       0.522E-07  0.146E+00  0.582E+00  0.458E-01    1.50
     1   4   10.36   Circular     0.522E-07  0.146E+00  0.873E+00  0.687E-01    1.50
   ---------------------------------------------------------------------------------

 >>>> Total CPU  time used in RESPONSE:   1.43 seconds
 >>>> Total wall time used in RESPONSE:   1.43 seconds


                   .-------------------------------------------.
                   | End of Dynamic Property Section (RESPONS) |
                   `-------------------------------------------'

 >>>> Total CPU  time used in DALTON:   2.20 seconds
 >>>> Total wall time used in DALTON:   2.20 seconds

 
     Date and time (Linux)  : Sun May 25 16:48:26 2014
     Host name              : foeroyar                                
