

     ************************************************************************
     *************** Dalton - An Electronic Structure Program ***************
     ************************************************************************

    This is output from DALTON 2013.2
   ----------------------------------------------------------------------------
    NOTE:
     
    Dalton is an experimental code for the evaluation of molecular
    properties using (MC)SCF, DFT, CI, and CC wave functions.
    The authors accept no responsibility for the performance of
    the code or for the correctness of the results.
     
    The code (in whole or part) is provided under a licence and
    is not to be reproduced for further distribution without
    the written permission of the authors or their representatives.
     
    See the home page "http://daltonprogram.org" for further information.
     
    If results obtained with this code are published,
    the appropriate citations would be both of:
     
       K. Aidas, C. Angeli, K. L. Bak, V. Bakken, R. Bast,
       L. Boman, O. Christiansen, R. Cimiraglia, S. Coriani,
       P. Dahle, E. K. Dalskov, U. Ekstroem, T. Enevoldsen,
       J. J. Eriksen, P. Ettenhuber, B. Fernandez, L. Ferrighi,
       H. Fliegl, L. Frediani, K. Hald, A. Halkier, C. Haettig,
       H. Heiberg, T. Helgaker, A. C. Hennum, H. Hettema,
       E. Hjertenaes, S. Hoest, I.-M. Hoeyvik, M. F. Iozzi,
       B. Jansik, H. J. Aa. Jensen, D. Jonsson, P. Joergensen,
       J. Kauczor, S. Kirpekar, T. Kjaergaard, W. Klopper,
       S. Knecht, R. Kobayashi, H. Koch, J. Kongsted, A. Krapp,
       K. Kristensen, A. Ligabue, O. B. Lutnaes, J. I. Melo,
       K. V. Mikkelsen, R. H. Myhre, C. Neiss, C. B. Nielsen,
       P. Norman, J. Olsen, J. M. H. Olsen, A. Osted,
       M. J. Packer, F. Pawlowski, T. B. Pedersen, P. F. Provasi,
       S. Reine, Z. Rinkevicius, T. A. Ruden, K. Ruud, V. Rybkin,
       P. Salek, C. C. M. Samson, A. Sanchez de Meras, T. Saue,
       S. P. A. Sauer, B. Schimmelpfennig, K. Sneskov,
       A. H. Steindal, K. O. Sylvester-Hvid, P. R. Taylor,
       A. M. Teale, E. I. Tellgren, D. P. Tew, A. J. Thorvaldsen,
       L. Thoegersen, O. Vahtras, M. A. Watson, D. J. D. Wilson,
       M. Ziolkowski and H. Aagren,
       "The Dalton quantum chemistry program system",
       WIREs Comput. Mol. Sci. 2013. (doi: 10.1002/wcms.1172)
    
    and
    
       Dalton, a Molecular Electronic Structure Program,
       Release DALTON2013.2 (2013), see http://daltonprogram.org
   ----------------------------------------------------------------------------

    Authors in alphabetical order (major contribution(s) in parenthesis):

  Kestutis Aidas,           Vilnius University,           Lithuania   (QM/MM)
  Celestino Angeli,         University of Ferrara,        Italy       (NEVPT2)
  Keld L. Bak,              UNI-C,                        Denmark     (AOSOPPA, non-adiabatic coupling, magnetic properties)
  Vebjoern Bakken,          University of Oslo,           Norway      (DALTON; geometry optimizer, symmetry detection)
  Radovan Bast,             KTH Stockholm,                Sweden      (DALTON installation and execution frameworks)
  Pablo Baudin,             University of Valencia,       Spain       (Cholesky excitation energies)
  Linus Boman,              NTNU,                         Norway      (Cholesky decomposition and subsystems)
  Ove Christiansen,         Aarhus University,            Denmark     (CC module)
  Renzo Cimiraglia,         University of Ferrara,        Italy       (NEVPT2)
  Sonia Coriani,            University of Trieste,        Italy       (CC module, MCD in RESPONS)
  Paal Dahle,               University of Oslo,           Norway      (Parallelization)
  Erik K. Dalskov,          UNI-C,                        Denmark     (SOPPA)
  Thomas Enevoldsen,        Univ. of Southern Denmark,    Denmark     (SOPPA)
  Janus J. Eriksen,         Aarhus University,            Denmark     (PE-MP2/SOPPA, TDA)
  Berta Fernandez,          U. of Santiago de Compostela, Spain       (doublet spin, ESR in RESPONS)
  Lara Ferrighi,            Aarhus University,            Denmark     (PCM Cubic response)
  Heike Fliegl,             University of Oslo,           Norway      (CCSD(R12))
  Luca Frediani,            UiT The Arctic U. of Norway,  Norway      (PCM)
  Bin Gao,                  UiT The Arctic U. of Norway,  Norway      (Gen1Int library)
  Christof Haettig,         Ruhr-University Bochum,       Germany     (CC module)
  Kasper Hald,              Aarhus University,            Denmark     (CC module)
  Asger Halkier,            Aarhus University,            Denmark     (CC module)
  Hanne Heiberg,            University of Oslo,           Norway      (geometry analysis, selected one-electron integrals)
  Trygve Helgaker,          University of Oslo,           Norway      (DALTON; ABACUS, ERI, DFT modules, London, and much more)
  Alf Christian Hennum,     University of Oslo,           Norway      (Parity violation)
  Hinne Hettema,            University of Auckland,       New Zealand (quadratic response in RESPONS; SIRIUS supersymmetry)
  Eirik Hjertenaes,         NTNU,                         Norway      (Cholesky decomposition)
  Maria Francesca Iozzi,    University of Oslo,           Norway      (RPA)
  Brano Jansik              Technical Univ. of Ostrava    Czech Rep.  (DFT cubic response)
  Hans Joergen Aa. Jensen,  Univ. of Southern Denmark,    Denmark     (DALTON; SIRIUS, RESPONS, ABACUS modules, London, and much more)
  Dan Jonsson,              UiT The Arctic U. of Norway,  Norway      (cubic response in RESPONS module)
  Poul Joergensen,          Aarhus University,            Denmark     (RESPONS, ABACUS, and CC modules)
  Joanna Kauczor,           Linkoeping University,        Sweden      (Complex polarization propagator (CPP) module)
  Sheela Kirpekar,          Univ. of Southern Denmark,    Denmark     (Mass-velocity & Darwin integrals)
  Wim Klopper,              KIT Karlsruhe,                Germany     (R12 code in CC, SIRIUS, and ABACUS modules)
  Stefan Knecht,            ETH Zurich,                   Switzerland (Parallel CI and MCSCF)
  Rika Kobayashi,           Australian National Univ.,    Australia   (DIIS in CC, London in MCSCF)
  Henrik Koch,              NTNU,                         Norway      (CC module, Cholesky decomposition)
  Jacob Kongsted,           Univ. of Southern Denmark,    Denmark     (Polarizable embedding, QM/MM)
  Andrea Ligabue,           University of Modena,         Italy       (CTOCD, AOSOPPA)
  Ola B. Lutnaes,           University of Oslo,           Norway      (DFT Hessian)
  Juan I. Melo,             University of Buenos Aires,   Argentina   (LRESC, Relativistic Effects on NMR Shieldings)
  Kurt V. Mikkelsen,        University of Copenhagen,     Denmark     (MC-SCRF and QM/MM)
  Rolf H. Myhre,            NTNU,                         Norway      (Cholesky, subsystems and ECC2)
  Christian Neiss,          Univ. Erlangen-Nuernberg,     Germany     (CCSD(R12))
  Christian B. Nielsen,     University of Copenhagen,     Denmark     (QM/MM)
  Patrick Norman,           Linkoeping University,        Sweden      (Cubic response and complex response in RESPONS)
  Jeppe Olsen,              Aarhus University,            Denmark     (SIRIUS CI/density modules)
  Jogvan Magnus H. Olsen,   Univ. of Southern Denmark,    Denmark     (Polarizable embedding, PE library, QM/MM)
  Anders Osted,             Copenhagen University,        Denmark     (QM/MM)
  Martin J. Packer,         University of Sheffield,      UK          (SOPPA)
  Filip Pawlowski,          Kazimierz Wielki University,  Poland      (CC3)
  Thomas B. Pedersen,       University of Oslo,           Norway      (Cholesky decomposition)
  Patricio F. Provasi,      University of Northeastern,   Argentina   (Analysis of coupling constants in localized orbitals)
  Zilvinas Rinkevicius,     KTH Stockholm,                Sweden      (open-shell DFT, ESR)
  Elias Rudberg,            KTH Stockholm,                Sweden      (DFT grid and basis info)
  Torgeir A. Ruden,         University of Oslo,           Norway      (Numerical derivatives in ABACUS)
  Kenneth Ruud,             UiT The Arctic U. of Norway,  Norway      (DALTON; ABACUS magnetic properties and  much more)
  Pawel Salek,              KTH Stockholm,                Sweden      (DALTON; DFT code)
  Claire C. M. Samson       University of Karlsruhe       Germany     (Boys localization, r12 integrals in ERI)
  Alfredo Sanchez de Meras, University of Valencia,       Spain       (CC module, Cholesky decomposition)
  Trond Saue,               Paul Sabatier University,     France      (direct Fock matrix construction)
  Stephan P. A. Sauer,      University of Copenhagen,     Denmark     (SOPPA(CCSD), SOPPA prop., AOSOPPA, vibrational g-factors)
  Bernd Schimmelpfennig,    Forschungszentrum Karlsruhe,  Germany     (AMFI module)
  Kristian Sneskov,         Aarhus University,            Denmark     (QM/MM, PE-CC)
  Arnfinn H. Steindal,      UiT The Arctic U. of Norway,  Norway      (parallel QM/MM)
  Casper Steinmann,         Univ. of Southern Denmark,    Denmark     (QFIT)
  K. O. Sylvester-Hvid,     University of Copenhagen,     Denmark     (MC-SCRF)
  Peter R. Taylor,          VLSCI/Univ. of Melbourne,     Australia   (Symmetry handling ABACUS, integral transformation)
  Andrew M. Teale,          University of Nottingham,     England     (DFT-AC, DFT-D)
  David P. Tew,             University of Bristol,        England     (CCSD(R12))
  Olav Vahtras,             KTH Stockholm,                Sweden      (triplet response, spin-orbit, ESR, TDDFT, open-shell DFT)
  David J. Wilson,          La Trobe University,          Australia   (DFT Hessian and DFT magnetizabilities)
  Hans Agren,               KTH Stockholm,                Sweden      (SIRIUS module, RESPONS, MC-SCRF solvation model)
 --------------------------------------------------------------------------------

     Date and time (Linux)  : Sun May 25 16:48:21 2014
     Host name              : foeroyar                                

 * Work memory size             :    64000000 =  488.28 megabytes.

 * Directories for basis set searches:
   1) /home/magnus/Projects/dalton_devel/dalton/build_release/peqm_tests
   2) /home/magnus/Projects/dalton_devel/dalton/build_release/basis


Compilation information
-----------------------

 Who compiled             | magnus
 Host                     | foeroyar
 System                   | Linux-3.14.4-200.fc20.x86_64
 CMake generator          | Unix Makefiles
 Processor                | x86_64
 64-bit integers          | OFF
 MPI                      | OFF
 Fortran compiler         | /usr/bin/gfortran
 Fortran compiler version | GNU Fortran (GCC) 4.8.2 20131212 (Red Hat 4.8.2-7)
 C compiler               | /usr/bin/gcc
 C compiler version       | gcc (GCC) 4.8.2 20131212 (Red Hat 4.8.2-7)
 C++ compiler             | /usr/bin/g++
 C++ compiler version     | g++ (GCC) 4.8.2 20131212 (Red Hat 4.8.2-7)
 BLAS                     | /lib64/atlas/libf77blas.so;/lib64/atlas/libcblas.s
                          | o;/lib64/atlas/libatlas.so
 LAPACK                   | /lib64/atlas/libatlas.so;/lib64/atlas/liblapack.so
 Static linking           | OFF
 Last Git revision        | 2f9776f2fd9675185f08009607df1b9494db2901
 Configuration time       | 2014-05-25 16:42:05.557733


   Content of the .dal input file
 ----------------------------------

**DALTON                                          
.RUN PROPERTIES                                   
.PEQM                                             
*PEQM                                             
.VERBOSE                                          
**WAVE FUNCTIONS                                  
.HF                                               
*SCF INPUT                                        
.DOUBLY OCCUPIED                                  
7                                                 
.SINGLY OCCUPIED                                  
2                                                 
**END OF                                          


   Content of the .mol file
 ----------------------------

BASIS                                                                          
STO-3G                                                                         
Formaldehyde                                                                   
------------------------                                                       
AtomTypes=3 NoSymmetry Angstrom                                                
Charge=6.0 Atoms=1                                                             
C           -1.588367    -.770650     .029109                                  
Charge=8.0 Atoms=1                                                             
O           -1.657083     .436069    -.009750                                  
Charge=1.0 Atoms=2                                                             
H           -.620668   -1.294822      .054251                                  
H           -2.508043   -1.382001     .040282                                  


       *******************************************************************
       *********** Output from DALTON general input processing ***********
       *******************************************************************

 --------------------------------------------------------------------------------
   Overall default print level:    0
   Print level for DALTON.STAT:    1

    HERMIT 1- and 2-electron integral sections will be executed
    "Old" integral transformation used (limited to max 255 basis functions)
    Wave function sections will be executed (SIRIUS module)
    Static molecular property section will be executed (ABACUS module)
    Environment is modeled using polarizable embedding scheme (PE library)
 --------------------------------------------------------------------------------


   ****************************************************************************
   *************** Output of molecule and basis set information ***************
   ****************************************************************************


    The two title cards from your ".mol" input:
    ------------------------------------------------------------------------
 1: Formaldehyde                                                            
 2: ------------------------                                                
    ------------------------------------------------------------------------

  Coordinates are entered in Angstrom and converted to atomic units.
          - Conversion factor : 1 bohr = 0.52917721 A

  Atomic type no.    1
  --------------------
  Nuclear charge:   6.00000
  Number of symmetry independent centers:    1
  Number of basis sets to read;    2
  Basis set file used for this atomic type with Z =   6 :
     "/home/magnus/Projects/dalton_devel/dalton/build_release/basis/STO-3G"

  Atomic type no.    2
  --------------------
  Nuclear charge:   8.00000
  Number of symmetry independent centers:    1
  Number of basis sets to read;    2
  Basis set file used for this atomic type with Z =   8 :
     "/home/magnus/Projects/dalton_devel/dalton/build_release/basis/STO-3G"

  Atomic type no.    3
  --------------------
  Nuclear charge:   1.00000
  Number of symmetry independent centers:    2
  Number of basis sets to read;    2
  Basis set file used for this atomic type with Z =   1 :
     "/home/magnus/Projects/dalton_devel/dalton/build_release/basis/STO-3G"


                         SYMGRP: Point group information
                         -------------------------------

@    Point group: C1 


                                 Isotopic Masses
                                 ---------------

                           C          12.000000
                           O          15.994915
                           H           1.007825
                           H           1.007825

                       Total mass:    30.010565 amu
                       Natural abundance:  98.633 %

 Center-of-mass coordinates (a.u.):   -3.067740   -0.312997    0.018175


  Atoms and basis sets
  --------------------

  Number of atom types :    3
  Total number of atoms:    4

  Basis set used is "STO-3G" from the basis set library.

  label    atoms   charge   prim   cont     basis
  ----------------------------------------------------------------------
  C           1    6.0000    15     5      [6s3p|2s1p]                                        
  O           1    8.0000    15     5      [6s3p|2s1p]                                        
  H           2    1.0000     3     1      [3s|1s]                                            
  ----------------------------------------------------------------------
  total:      4   16.0000    36    12
  ----------------------------------------------------------------------

  Threshold for neglecting AO integrals:  1.00D-12


  Cartesian Coordinates (a.u.)
  ----------------------------

  Total number of coordinates:   12
  C       :     1  x  -3.0015786160    2  y  -1.4563174382    3  z   0.0550080378
  O       :     4  x  -3.1314330364    5  y   0.8240509816    6  z  -0.0184248297
  H       :     7  x  -1.1728925345    8  y  -2.4468589606    9  z   0.1025195320
  H       :    10  x  -4.7395143797   11  y  -2.6116033945   12  z   0.0761219478


   Interatomic separations (in Angstrom):
   --------------------------------------

            C           O           H           H     
            ------      ------      ------      ------
 C     :    0.000000
 O     :    1.209298    0.000000
 H     :    1.100831    2.018474    0.000000
 H     :    1.104391    2.007988    1.889439    0.000000


  Max    interatomic separation is    2.0185 Angstrom (    3.8144 Bohr)
  between atoms    3 and    2, "H     " and "O     ".

  Min HX interatomic separation is    1.1008 Angstrom (    2.0803 Bohr)

  Min YX interatomic separation is    1.2093 Angstrom (    2.2852 Bohr)


  Bond distances (Angstrom):
  --------------------------

                  atom 1     atom 2       distance
                  ------     ------       --------
  bond distance:  O          C            1.209298
  bond distance:  H          C            1.100831
  bond distance:  H          C            1.104391


  Bond angles (degrees):
  ----------------------

                  atom 1     atom 2     atom 3         angle
                  ------     ------     ------         -----
  bond angle:     O          C          H            121.724
  bond angle:     O          C          H            120.357
  bond angle:     H          C          H            117.919




 Principal moments of inertia (u*A**2) and principal axes
 --------------------------------------------------------

   IA       1.798871         -0.056827    0.997867   -0.032124
   IB      13.009178          0.998345    0.057081    0.007042
   IC      14.808049         -0.008861    0.031671    0.999459


 Rotational constants
 --------------------

@    The molecule is planar.

               A                   B                   C

         280942.3015          38847.8806          34128.6681 MHz
            9.371226            1.295826            1.138410 cm-1


@  Nuclear repulsion energy :   31.249215315972 Hartree

  Reading potential input file

  Polarizable embedding information
  ---------------------------------

    Number of classical sites:      6

    Multipole moments upto 2nd order.

    Dipole-dipole polarizabilities.

    Iterative solver for induced moments will be used
    with convergence threshold: 1.0E-08


                     .---------------------------------------.
                     | Starting in Integral Section (HERMIT) |
                     `---------------------------------------'



 ***************************************************************************************
 ****************** Output from **INTEGRALS input processing (HERMIT) ******************
 ***************************************************************************************


 - Using defaults, no **INTEGRALS input found

 Default print level:        1

 * Nuclear model: Point charge

 Calculation of one- and two-electron Hamiltonian integrals.

 Center of mass  (bohr):     -3.067740315293     -0.312997395263      0.018174673399
 Operator center (bohr):      0.000000000000      0.000000000000      0.000000000000
 Gauge origin    (bohr):      0.000000000000      0.000000000000      0.000000000000
 Dipole origin   (bohr):      0.000000000000      0.000000000000      0.000000000000


     ************************************************************************
     ************************** Output from HERINT **************************
     ************************************************************************


 Threshold for neglecting two-electron integrals:  1.00D-12
 Number of two-electron integrals written:        2907 ( 94.4% )
 Megabytes written:                              0.034

 >>>> Total CPU  time used in HERMIT:   0.03 seconds
 >>>> Total wall time used in HERMIT:   0.03 seconds


                        .----------------------------------.
                        | End of Integral Section (HERMIT) |
                        `----------------------------------'



                   .--------------------------------------------.
                   | Starting in Wave Function Section (SIRIUS) |
                   `--------------------------------------------'


 *** Output from Huckel module :

     Using EWMO model:          T
     Using EHT  model:          F
     Number of Huckel orbitals each symmetry:   12

 EWMO - Energy Weighted Maximum Overlap - is a Huckel type method,
        which normally is better than Extended Huckel Theory.
 Reference: Linderberg and Ohrn, Propagators in Quantum Chemistry (Wiley, 1973)

 Huckel EWMO eigenvalues for symmetry :  1
          -20.684762     -11.351957      -1.632119      -1.046130      -0.813248
           -0.702067      -0.605910      -0.491826      -0.321033      -0.161573
           -0.131670      -0.108806

 **********************************************************************
 *SIRIUS* a direct, restricted step, second order MCSCF program       *
 **********************************************************************

 
     Date and time (Linux)  : Sun May 25 16:48:21 2014
     Host name              : foeroyar                                

 Title lines from ".mol" input file:
     Formaldehyde                                                            
     ------------------------                                                

 Print level on unit LUPRI =   2 is   0
 Print level on unit LUW4  =   2 is   5

@    Restricted, high spin open shell Hartree-Fock calculation.

 Initial molecular orbitals are obtained according to
 ".MOSTART EWMO  " input option

@    QM part is embedded in an environment :

@         Model: PE

     Wave function specification
     ============================

     Wave function environment is modeled using the
     polarizable embedding model (PE library).

@    Wave function type        >>> PE-HF <<<
@    Number of closed shell electrons          14
@    Number of electrons in active shells       2
@    Total charge of the molecule               0

@    Spin multiplicity and 2 M_S                3         2
@    Total number of symmetries                 1 (point group: C1 )
@    Reference state symmetry                   1 (irrep name : A  )

     Orbital specifications
     ======================
     Abelian symmetry species          All |    1
                                           |  A  
                                       --- |  ---
@    Occupied SCF orbitals               7 |    7
@    Open shell SCF orbitals             2 |    2
     Secondary orbitals                  3 |    3
     Total number of orbitals           12 |   12
     Number of basis functions          12 |   12

     Optimization information
     ========================
@    Number of configurations                 1
@    Number of orbital rotations             41
     ------------------------------------------
@    Total number of variables               42

     Maximum number of Fock   iterations      0
     Maximum number of DIIS   iterations     60
     Maximum number of QC-SCF iterations     60
     Threshold for SCF convergence     1.00D-05


 *********************************************
 ***** DIIS optimization of Hartree-Fock *****
 *********************************************

 C1-DIIS algorithm; max error vectors =    8

 Iter      Total energy     Embedding energy      Error norm     Delta(E)
 -----------------------------------------------------------------------------
      Induced dipole moments converged in  8 iterations.
@  1  -112.137762693     -2.379013241829E-02    1.08190D+00   -1.12D+02
      Virial theorem: -V/T =      2.001982
@      MULPOP C       0.44; O      -0.47; H       0.01; H       0.02; 
 -----------------------------------------------------------------------------
      Induced dipole moments converged in  7 iterations.
@  2  -112.246227906     -2.870168381283E-03    5.70884D-01   -1.08D-01
      Virial theorem: -V/T =      2.008536
@      MULPOP C      -0.40; O       0.19; H       0.12; H       0.09; 
 -----------------------------------------------------------------------------
      Induced dipole moments converged in  7 iterations.
@  3  -112.280963947     -1.072259031253E-02    1.10268D-01   -3.47D-02
      Virial theorem: -V/T =      2.005764
@      MULPOP C      -0.11; O      -0.10; H       0.12; H       0.08; 
 -----------------------------------------------------------------------------
      Induced dipole moments converged in  6 iterations.
@  4  -112.286942439     -9.888198419033E-03    3.15768D-02   -5.98D-03
      Virial theorem: -V/T =      2.005308
@      MULPOP C      -0.10; O      -0.10; H       0.12; H       0.08; 
 -----------------------------------------------------------------------------
      Induced dipole moments converged in  6 iterations.
@  5  -112.287400280     -1.077188514612E-02    2.43627D-02   -4.58D-04
      Virial theorem: -V/T =      2.004951
@      MULPOP C      -0.09; O      -0.12; H       0.12; H       0.08; 
 -----------------------------------------------------------------------------
      Induced dipole moments converged in  5 iterations.
@  6  -112.287525267     -1.081396145920E-02    3.88448D-03   -1.25D-04
      Virial theorem: -V/T =      2.004908
@      MULPOP C      -0.09; O      -0.12; H       0.13; H       0.08; 
 -----------------------------------------------------------------------------
      Induced dipole moments converged in  5 iterations.
@  7  -112.287529162     -1.085569290298E-02    4.70264D-04   -3.90D-06
      Virial theorem: -V/T =      2.004899
@      MULPOP C      -0.09; O      -0.12; H       0.13; H       0.08; 
 -----------------------------------------------------------------------------
      Induced dipole moments converged in  4 iterations.
@  8  -112.287529277     -1.085410297820E-02    2.17183D-04   -1.15D-07
      Virial theorem: -V/T =      2.004900
@      MULPOP C      -0.09; O      -0.12; H       0.13; H       0.08; 
 -----------------------------------------------------------------------------
      Induced dipole moments converged in  4 iterations.
@  9  -112.287529347     -1.085723762455E-02    1.26107D-04   -6.96D-08
      Virial theorem: -V/T =      2.004901
@      MULPOP C      -0.09; O      -0.12; H       0.13; H       0.08; 
 -----------------------------------------------------------------------------
      Induced dipole moments converged in  4 iterations.
@ 10  -112.287529381     -1.085964065770E-02    6.88689D-05   -3.35D-08
      Virial theorem: -V/T =      2.004900
@      MULPOP C      -0.09; O      -0.12; H       0.13; H       0.08; 
 -----------------------------------------------------------------------------
      Induced dipole moments converged in  4 iterations.
@ 11  -112.287529392     -1.086011456948E-02    3.98624D-05   -1.15D-08
      Virial theorem: -V/T =      2.004900
@      MULPOP C      -0.09; O      -0.12; H       0.13; H       0.08; 
 -----------------------------------------------------------------------------
      Induced dipole moments converged in  4 iterations.
@ 12  -112.287529397     -1.085965667944E-02    8.47947D-06   -4.54D-09

@ *** DIIS converged in  12 iterations !
@     Converged SCF energy, gradient:   -112.287529396608    8.48D-06
    - total time used in SIRFCK :              0.00 seconds


 *** SCF orbital energy analysis ***
   (incl. contribution from polarizable embedding potential)

 Orbital energy analysis for an open-shell system.
 Orbital energies are not well-defined for open-shell systems
   here is used block diagonalization of the FD=FC+FV Fock matrix.
 NOTE that Koopmans' theorem is not fulfilled for this case.

 Only the five lowest virtual orbital energies printed in each symmetry.

 Number of electrons :   14
 Orbital occupations :    7

 Sym       Hartree-Fock orbital energies

1 A     -20.37187453   -11.02551945    -1.36566040    -0.78331485    -0.57593818
         -0.57042386    -0.53444993    -0.14159239     0.06835884     0.66205004
          0.78677425     0.92200541

    E(LUMO) :     0.66205004 au (symmetry 1)
  - E(HOMO) :    -0.53444993 au (symmetry 1)
  ------------------------------------------
    gap     :     1.19649997 au

and energy and symmetry of HSROHF open shell orbitals:
    -0.14159239         1
     0.06835884         1

 NOTE: MOLECULAR ORBITALS ARE NOT CANONICAL HARTREE-FOCK ORBITALS

 Largest off-diagonal Fock matrix element is  5.28D-02

      Polarizable embedding energy contributions:
     ---------------------------------------------

       Electrostatic contributions:
         Monopoles                 -0.004999022403
         Dipoles                    0.001184831498
         Quadrupoles               -0.001767820323

       Polarization contributions:
         Electronic                -0.017231255360
         Nuclear                    0.016434894066
         Multipole                 -0.004481284157

       Total PE energy:            -0.010859656679

      Polarizable embedding information:
     ------------------------------------

                         Induced dipole moments
         site          X              Y              Z
            1    -0.08635364     0.13380670    -0.00622630
            2    -0.06285965     0.01129151    -0.00296695
            3    -0.00514051     0.02622764     0.01785305
            4     0.03291316     0.06422483    -0.00633225
            5    -0.00512409     0.15117873     0.00506443
            6    -0.00096986     0.00830004    -0.00721243

                        Total induced dipole moment
                       X              Y              Z
                 -0.12753458     0.39502945     0.00017954


 >>> Writing SIRIFC interface file
      Induced dipole moments converged in  1 iterations.

 >>>> CPU and wall time for SCF :       0.088       0.088


                       .-----------------------------------.
                       | >>> Final results from SIRIUS <<< |
                       `-----------------------------------'


@    Spin multiplicity:           3
@    Spatial symmetry:            1 ( irrep  A   in C1  )
@    Total charge of molecule:    0

@    Final HF energy:            -112.287529396608                 
@    Nuclear repulsion:            31.249215315972
@    Electronic energy:          -143.525885055901
@    Embedding energy:             -0.010859656679

@    Final gradient norm:           0.000008479475

 
     Date and time (Linux)  : Sun May 25 16:48:22 2014
     Host name              : foeroyar                                

 (Only coefficients >0.0100 are printed.)

 Molecular orbitals for symmetry species 1  (A  )
 ------------------------------------------------

    Orbital         1        2        3        4        5        6        7
   1 C   :1s    -0.0005  -0.9924  -0.1125   0.1910   0.0102   0.0018  -0.0001
   2 C   :1s     0.0074  -0.0341   0.2311  -0.5808  -0.0458  -0.0190   0.0002
   3 C   :2px   -0.0004   0.0002  -0.0082   0.0046  -0.4975   0.2678  -0.0016
   4 C   :2py    0.0063  -0.0014   0.1443   0.1274   0.2059   0.3868  -0.0127
   5 C   :2pz   -0.0002   0.0000  -0.0044  -0.0050  -0.0091  -0.0120  -0.3734
   6 O   :1s    -0.9943  -0.0002  -0.2266  -0.1055   0.0305   0.0581  -0.0001
   7 O   :1s    -0.0261   0.0064   0.8069   0.4833  -0.1722  -0.3192   0.0005
   8 O   :2px   -0.0003   0.0001   0.0202   0.0053  -0.1407   0.0897   0.0094
   9 O   :2py    0.0056  -0.0019  -0.1669   0.3006  -0.3468  -0.5804  -0.0262
  10 O   :2pz   -0.0002   0.0001   0.0057  -0.0099   0.0156   0.0143  -0.8513
  11 H   :1s    -0.0002   0.0066   0.0284  -0.2312  -0.4313   0.0272  -0.0033
  12 H   :1s    -0.0003   0.0067   0.0306  -0.2546   0.2221  -0.3861   0.0048

    Orbital         8        9       10       11
   1 C   :1s     0.0010  -0.0000   0.2126   0.0173
   2 C   :1s    -0.0016   0.0005  -1.3201  -0.1133
   3 C   :2px    0.0714  -0.0087   0.0614  -1.1492
   4 C   :2py   -0.0119   0.0304   0.4042  -0.0861
   5 C   :2pz   -0.0015   0.9521  -0.0116  -0.0075
   6 O   :1s    -0.0066   0.0000  -0.0302  -0.0067
   7 O   :1s     0.0309  -0.0002   0.1843   0.0479
   8 O   :2px   -0.9743   0.0036  -0.0059   0.2779
   9 O   :2py   -0.0303  -0.0176  -0.2537  -0.0390
  10 O   :2pz   -0.0098  -0.5666   0.0078   0.0037
  11 H   :1s     0.2161  -0.0006   0.8316   0.9052
  12 H   :1s    -0.2188  -0.0008   0.9285  -0.8005



 >>>> Total CPU  time used in SIRIUS :      0.09 seconds
 >>>> Total wall time used in SIRIUS :      0.09 seconds

 
     Date and time (Linux)  : Sun May 25 16:48:22 2014
     Host name              : foeroyar                                


                     .---------------------------------------.
                     | End of Wave Function Section (SIRIUS) |
                     `---------------------------------------'


 WARNING SIR_INTOPEN, old integral transformation not found as expected, ICASE = 1
 - ICASE = 1: MO integral file MOTWOINT does not exist
 - ICASE = 2: no MO integrals on MOTWOINT
 - ICASE = 3: transformation level on MOTWOINT not sufficient

 NSETUP: MO transformation level too low or no MO integral file found.
 NSETUP: generating MO 2-el. integral file.


 Integral transformation: Total CPU and WALL times (sec)       0.002       0.002

 Center of mass dipole origin  :   -3.067740   -0.312997    0.018175

 Center of mass gauge origin   :   -3.067740   -0.312997    0.018175


                 .------------------------------------------------.
                 | Starting in Static Property Section (ABACUS) - |
                 `------------------------------------------------'


 
     Date and time (Linux)  : Sun May 25 16:48:22 2014
     Host name              : foeroyar                                


   ***************************************************************************
   ************************ FINAL RESULTS from ABACUS ************************
   ***************************************************************************


 
     Date and time (Linux)  : Sun May 25 16:48:22 2014
     Host name              : foeroyar                                


                             Molecular geometry (au)
                             -----------------------

 C         -3.0015786160           -1.4563174382            0.0550080378
 O         -3.1314330364            0.8240509816           -0.0184248297
 H         -1.1728925345           -2.4468589606            0.1025195320
 H         -4.7395143797           -2.6116033945            0.0761219478





                        Molecular wave function and energy
                        ----------------------------------

     Spin multiplicity  3     State number       1     Total charge       0

     Total energy       -112.2875293966 au (Hartrees)
                         -3055.49910440 eV
                           -294810.8630 kJ/mol


                             Relativistic corrections
                             ------------------------

     Darwin correction:                          0.1684188833 au
     Mass-velocity correction:                  -0.2161819827 au

     Total relativistic correction:             -0.0477630993 au (0.0425%)
     Non-relativistic + relativistic energy:  -112.3352924960 au




                                  Dipole moment
                                  -------------

                 au               Debye          C m (/(10**-30)
              0.433241           1.101189           3.673173


                             Dipole moment components
                             ------------------------

                 au               Debye          C m (/(10**-30)

      x      0.05261570         0.13373575         0.44609445
      y     -0.42985667        -1.09258660        -3.64447660
      z      0.01236391         0.03142593         0.10482560


   Units:   1 a.u. =   2.54175 Debye 
            1 a.u. =   8.47835 (10**-30) C m (SI)




   Interatomic separations (in Angstrom):
   --------------------------------------

            C           O           H           H     
            ------      ------      ------      ------
 C     :    0.000000
 O     :    1.209298    0.000000
 H     :    1.100831    2.018474    0.000000
 H     :    1.104391    2.007988    1.889439    0.000000


  Max    interatomic separation is    2.0185 Angstrom (    3.8144 Bohr)
  between atoms    3 and    2, "H     " and "O     ".

  Min HX interatomic separation is    1.1008 Angstrom (    2.0803 Bohr)

  Min YX interatomic separation is    1.2093 Angstrom (    2.2852 Bohr)


  Bond distances (Angstrom):
  --------------------------

                  atom 1     atom 2       distance
                  ------     ------       --------
  bond distance:  O          C            1.209298
  bond distance:  H          C            1.100831
  bond distance:  H          C            1.104391


  Bond angles (degrees):
  ----------------------

                  atom 1     atom 2     atom 3         angle
                  ------     ------     ------         -----
  bond angle:     O          C          H            121.724
  bond angle:     O          C          H            120.357
  bond angle:     H          C          H            117.919




 CPU time statistics for ABACUS
 ------------------------------




 >>>> Total CPU  time used in ABACUS:   0.01 seconds
 >>>> Total wall time used in ABACUS:   0.01 seconds


                   .-------------------------------------------.
                   | End of Static Property Section (ABACUS) - |
                   `-------------------------------------------'

 >>>> Total CPU  time used in DALTON:   0.14 seconds
 >>>> Total wall time used in DALTON:   0.14 seconds

 
     Date and time (Linux)  : Sun May 25 16:48:22 2014
     Host name              : foeroyar                                
