

     ************************************************************************
     *************** Dalton - An Electronic Structure Program ***************
     ************************************************************************

    This is output from DALTON 2013.2
   ----------------------------------------------------------------------------
    NOTE:
     
    Dalton is an experimental code for the evaluation of molecular
    properties using (MC)SCF, DFT, CI, and CC wave functions.
    The authors accept no responsibility for the performance of
    the code or for the correctness of the results.
     
    The code (in whole or part) is provided under a licence and
    is not to be reproduced for further distribution without
    the written permission of the authors or their representatives.
     
    See the home page "http://daltonprogram.org" for further information.
     
    If results obtained with this code are published,
    the appropriate citations would be both of:
     
       K. Aidas, C. Angeli, K. L. Bak, V. Bakken, R. Bast,
       L. Boman, O. Christiansen, R. Cimiraglia, S. Coriani,
       P. Dahle, E. K. Dalskov, U. Ekstroem, T. Enevoldsen,
       J. J. Eriksen, P. Ettenhuber, B. Fernandez, L. Ferrighi,
       H. Fliegl, L. Frediani, K. Hald, A. Halkier, C. Haettig,
       H. Heiberg, T. Helgaker, A. C. Hennum, H. Hettema,
       E. Hjertenaes, S. Hoest, I.-M. Hoeyvik, M. F. Iozzi,
       B. Jansik, H. J. Aa. Jensen, D. Jonsson, P. Joergensen,
       J. Kauczor, S. Kirpekar, T. Kjaergaard, W. Klopper,
       S. Knecht, R. Kobayashi, H. Koch, J. Kongsted, A. Krapp,
       K. Kristensen, A. Ligabue, O. B. Lutnaes, J. I. Melo,
       K. V. Mikkelsen, R. H. Myhre, C. Neiss, C. B. Nielsen,
       P. Norman, J. Olsen, J. M. H. Olsen, A. Osted,
       M. J. Packer, F. Pawlowski, T. B. Pedersen, P. F. Provasi,
       S. Reine, Z. Rinkevicius, T. A. Ruden, K. Ruud, V. Rybkin,
       P. Salek, C. C. M. Samson, A. Sanchez de Meras, T. Saue,
       S. P. A. Sauer, B. Schimmelpfennig, K. Sneskov,
       A. H. Steindal, K. O. Sylvester-Hvid, P. R. Taylor,
       A. M. Teale, E. I. Tellgren, D. P. Tew, A. J. Thorvaldsen,
       L. Thoegersen, O. Vahtras, M. A. Watson, D. J. D. Wilson,
       M. Ziolkowski and H. Aagren,
       "The Dalton quantum chemistry program system",
       WIREs Comput. Mol. Sci. 2013. (doi: 10.1002/wcms.1172)
    
    and
    
       Dalton, a Molecular Electronic Structure Program,
       Release DALTON2013.2 (2013), see http://daltonprogram.org
   ----------------------------------------------------------------------------

    Authors in alphabetical order (major contribution(s) in parenthesis):

  Kestutis Aidas,           Vilnius University,           Lithuania   (QM/MM)
  Celestino Angeli,         University of Ferrara,        Italy       (NEVPT2)
  Keld L. Bak,              UNI-C,                        Denmark     (AOSOPPA, non-adiabatic coupling, magnetic properties)
  Vebjoern Bakken,          University of Oslo,           Norway      (DALTON; geometry optimizer, symmetry detection)
  Radovan Bast,             KTH Stockholm,                Sweden      (DALTON installation and execution frameworks)
  Linus Boman,              NTNU,                         Norway      (Cholesky decomposition and subsystems)
  Ove Christiansen,         Aarhus University,            Denmark     (CC module)
  Renzo Cimiraglia,         University of Ferrara,        Italy       (NEVPT2)
  Sonia Coriani,            University of Trieste,        Italy       (CC module, MCD in RESPONS)
  Paal Dahle,               University of Oslo,           Norway      (Parallelization)
  Erik K. Dalskov,          UNI-C,                        Denmark     (SOPPA)
  Thomas Enevoldsen,        Univ. of Southern Denmark,    Denmark     (SOPPA)
  Janus J. Eriksen,         Aarhus University,            Denmark     (PE-MP2/SOPPA, TDA)
  Berta Fernandez,          U. of Santiago de Compostela, Spain       (doublet spin, ESR in RESPONS)
  Lara Ferrighi,            Aarhus University,            Denmark     (PCM Cubic response)
  Heike Fliegl,             University of Oslo,           Norway      (CCSD(R12))
  Luca Frediani,            UiT The Arctic U. of Norway,  Norway      (PCM)
  Bin Gao,                  UiT The Arctic U. of Norway,  Norway      (Gen1Int library)
  Christof Haettig,         Ruhr-University Bochum,       Germany     (CC module)
  Kasper Hald,              Aarhus University,            Denmark     (CC module)
  Asger Halkier,            Aarhus University,            Denmark     (CC module)
  Hanne Heiberg,            University of Oslo,           Norway      (geometry analysis, selected one-electron integrals)
  Trygve Helgaker,          University of Oslo,           Norway      (DALTON; ABACUS, ERI, DFT modules, London, and much more)
  Alf Christian Hennum,     University of Oslo,           Norway      (Parity violation)
  Hinne Hettema,            University of Auckland,       New Zealand (quadratic response in RESPONS; SIRIUS supersymmetry)
  Eirik Hjertenaes,         NTNU,                         Norway      (Cholesky decomposition)
  Maria Francesca Iozzi,    University of Oslo,           Norway      (RPA)
  Brano Jansik              Technical Univ. of Ostrava    Czech Rep.  (DFT cubic response)
  Hans Joergen Aa. Jensen,  Univ. of Southern Denmark,    Denmark     (DALTON; SIRIUS, RESPONS, ABACUS modules, London, and much more)
  Dan Jonsson,              UiT The Arctic U. of Norway,  Norway      (cubic response in RESPONS module)
  Poul Joergensen,          Aarhus University,            Denmark     (RESPONS, ABACUS, and CC modules)
  Joanna Kauczor,           Linkoeping University,        Sweden      (Complex polarization propagator (CPP) module)
  Sheela Kirpekar,          Univ. of Southern Denmark,    Denmark     (Mass-velocity & Darwin integrals)
  Wim Klopper,              KIT Karlsruhe,                Germany     (R12 code in CC, SIRIUS, and ABACUS modules)
  Stefan Knecht,            ETH Zurich,                   Switzerland (Parallel CI and MCSCF)
  Rika Kobayashi,           Australian National Univ.,    Australia   (DIIS in CC, London in MCSCF)
  Henrik Koch,              NTNU,                         Norway      (CC module, Cholesky decomposition)
  Jacob Kongsted,           Univ. of Southern Denmark,    Denmark     (Polarizable embedding, QM/MM)
  Andrea Ligabue,           University of Modena,         Italy       (CTOCD, AOSOPPA)
  Ola B. Lutnaes,           University of Oslo,           Norway      (DFT Hessian)
  Juan I. Melo,             University of Buenos Aires,   Argentina   (LRESC, Relativistic Effects on NMR Shieldings)
  Kurt V. Mikkelsen,        University of Copenhagen,     Denmark     (MC-SCRF and QM/MM)
  Rolf H. Myhre,            NTNU,                         Norway      (Cholesky, subsystems and ECC2)
  Christian Neiss,          Univ. Erlangen-Nuernberg,     Germany     (CCSD(R12))
  Christian B. Nielsen,     University of Copenhagen,     Denmark     (QM/MM)
  Patrick Norman,           Linkoeping University,        Sweden      (Cubic response and complex response in RESPONS)
  Jeppe Olsen,              Aarhus University,            Denmark     (SIRIUS CI/density modules)
  Jogvan Magnus H. Olsen,   Univ. of Southern Denmark,    Denmark     (Polarizable embedding, PE library, QM/MM)
  Anders Osted,             Copenhagen University,        Denmark     (QM/MM)
  Martin J. Packer,         University of Sheffield,      UK          (SOPPA)
  Filip Pawlowski,          Kazimierz Wielki University,  Poland      (CC3)
  Thomas B. Pedersen,       University of Oslo,           Norway      (Cholesky decomposition)
  Patricio F. Provasi,      University of Northeastern,   Argentina   (Analysis of coupling constants in localized orbitals)
  Zilvinas Rinkevicius,     KTH Stockholm,                Sweden      (open-shell DFT, ESR)
  Elias Rudberg,            KTH Stockholm,                Sweden      (DFT grid and basis info)
  Torgeir A. Ruden,         University of Oslo,           Norway      (Numerical derivatives in ABACUS)
  Kenneth Ruud,             UiT The Arctic U. of Norway,  Norway      (DALTON; ABACUS magnetic properties and  much more)
  Pawel Salek,              KTH Stockholm,                Sweden      (DALTON; DFT code)
  Claire C. M. Samson       University of Karlsruhe       Germany     (Boys localization, r12 integrals in ERI)
  Alfredo Sanchez de Meras, University of Valencia,       Spain       (CC module, Cholesky decomposition)
  Trond Saue,               Paul Sabatier University,     France      (direct Fock matrix construction)
  Stephan P. A. Sauer,      University of Copenhagen,     Denmark     (SOPPA(CCSD), SOPPA prop., AOSOPPA, vibrational g-factors)
  Bernd Schimmelpfennig,    Forschungszentrum Karlsruhe,  Germany     (AMFI module)
  Kristian Sneskov,         Aarhus University,            Denmark     (QM/MM, PE-CC)
  Arnfinn H. Steindal,      UiT The Arctic U. of Norway,  Norway      (parallel QM/MM)
  K. O. Sylvester-Hvid,     University of Copenhagen,     Denmark     (MC-SCRF)
  Peter R. Taylor,          VLSCI/Univ. of Melbourne,     Australia   (Symmetry handling ABACUS, integral transformation)
  Andrew M. Teale,          University of Nottingham,     England     (DFT-AC, DFT-D)
  David P. Tew,             University of Bristol,        England     (CCSD(R12))
  Olav Vahtras,             KTH Stockholm,                Sweden      (triplet response, spin-orbit, ESR, TDDFT, open-shell DFT)
  David J. Wilson,          La Trobe University,          Australia   (DFT Hessian and DFT magnetizabilities)
  Hans Agren,               KTH Stockholm,                Sweden      (SIRIUS module, RESPONS, MC-SCRF solvation model)
 --------------------------------------------------------------------------------

     Date and time (Linux)  : Fri Mar 21 21:52:39 2014
     Host name              : foeroyar                                

 * Work memory size             :    64000000 =  488.28 megabytes.

 * Directories for basis set searches:
   1) /home/magnus/Projects/dalton_devel/dalton/DALTON/test/2014-03-21T21_50-testjob-pid-12498
   2) /home/magnus/Projects/dalton_devel/dalton/build/basis


Compilation information
-----------------------

 Who compiled             | magnus
 Host                     | foeroyar
 System                   | Linux-3.13.5-202.fc20.x86_64
 CMake generator          | Unix Makefiles
 Processor                | x86_64
 64-bit integers          | OFF
 MPI                      | ON
 Fortran compiler         | /usr/lib64/openmpi/bin/mpif90
 Fortran compiler version | GNU Fortran (GCC) 4.8.2 20131212 (Red Hat 4.8.2-7)
 C compiler               | /usr/lib64/openmpi/bin/mpicc
 C compiler version       | gcc (GCC) 4.8.2 20131212 (Red Hat 4.8.2-7)
 C++ compiler             | /usr/lib64/openmpi/bin/mpicxx
 C++ compiler version     | unknown
 Static linking           | OFF
 Last Git revision        | b641632729849b6fb659c4aecdb3d22c77947f55
 Git branch               | polarizable-embedding
 Configuration time       | 2014-03-21 21:45:15.042707

 * Sequential calculation using 1 CPU


   Content of the .dal input file
 ----------------------------------

**DALTON                                          
.RUN PROPERTIES                                   
.PEQM                                             
**WAVE FUNCTIONS                                  
.HF                                               
.MCSCF                                            
*OPTIMIZATION                                     
.THRESH                                           
1.0D-10                                           
*SCF INPUT                                        
.THRESH                                           
 1.0D-10                                          
*CONFIGURATION INPUT                              
.SYMMETRY                                         
 1                                                
.SPIN MUL                                         
 1                                                
.INACTIVE                                         
 6                                                
.ELECTRONS                                        
 4                                                
.CAS SPACE                                        
 6                                                
**PROPERTIES                                      
.EXCITA                                           
*EXCITA                                           
.NEXCIT                                           
 2                                                
.DIPSTR                                           
.THRESH                                           
 1.0D-7                                           
**END OF                                          


   Content of the .mol file
 ----------------------------

ATOMBASIS                                                                      
CH2O PLUS 2 WATERS                                                             
------------------------                                                       
AtomTypes=3 NoSymmetry Angstrom                                                
        6.0   1    Basis=6-31G                                                 
C           -1.588367    -.770650     .029109                                  
        8.0   1    Basis=6-31G                                                 
O           -1.657083     .436069    -.009750                                  
        1.0   2    Basis=6-31G                                                 
H           -.620668   -1.294822      .054251                                  
H           -2.508043   -1.382001     .040282                                  


       *******************************************************************
       *********** Output from DALTON general input processing ***********
       *******************************************************************

 --------------------------------------------------------------------------------
   Overall default print level:    0
   Print level for DALTON.STAT:    1

    HERMIT 1- and 2-electron integral sections will be executed
    "Old" integral transformation used (limited to max 255 basis functions)
    Wave function sections will be executed (SIRIUS module)
    Static molecular property section will be executed (ABACUS module)
    Environment is modeled using polarizable embedding scheme (PE library)
 --------------------------------------------------------------------------------


   ****************************************************************************
   *************** Output of molecule and basis set information ***************
   ****************************************************************************


    The two title cards from your ".mol" input:
    ------------------------------------------------------------------------
 1: CH2O PLUS 2 WATERS                                                      
 2: ------------------------                                                
    ------------------------------------------------------------------------

  Coordinates are entered in Angstrom and converted to atomic units.
          - Conversion factor : 1 bohr = 0.52917721 A

  Atomic type no.    1
  --------------------
  Nuclear charge:   6.00000
  Number of symmetry independent centers:    1
  Number of basis sets to read;    2
  The basis set is "6-31G" from the basis set library.
  Basis set file used for this atomic type with Z =   6 :
     "/home/magnus/Projects/dalton_devel/dalton/build/basis/6-31G"

  Info about the basis set file: your basis has no documentation.
  Basis set: 6-31G                                                                           

  Atomic type no.    2
  --------------------
  Nuclear charge:   8.00000
  Number of symmetry independent centers:    1
  Number of basis sets to read;    2
  The basis set is "6-31G" from the basis set library.
  Basis set file used for this atomic type with Z =   8 :
     "/home/magnus/Projects/dalton_devel/dalton/build/basis/6-31G"

  Info about the basis set file: your basis has no documentation.
  Basis set: 6-31G                                                                           

  Atomic type no.    3
  --------------------
  Nuclear charge:   1.00000
  Number of symmetry independent centers:    2
  Number of basis sets to read;    2
  The basis set is "6-31G" from the basis set library.
  Basis set file used for this atomic type with Z =   1 :
     "/home/magnus/Projects/dalton_devel/dalton/build/basis/6-31G"

  Info about the basis set file: your basis has no documentation.
  Basis set: 6-31G                                                                           


                         SYMGRP: Point group information
                         -------------------------------

Point group: C1 


                                 Isotopic Masses
                                 ---------------

                           C          12.000000
                           O          15.994915
                           H           1.007825
                           H           1.007825

                       Total mass:    30.010565 amu
                       Natural abundance:  98.633 %

 Center-of-mass coordinates (a.u.):   -3.067740   -0.312997    0.018175


  Atoms and basis sets
  --------------------

  Number of atom types :    3
  Total number of atoms:    4

  label    atoms   charge   prim   cont     basis
  ----------------------------------------------------------------------
  C           1    6.0000    22     9      [10s4p|3s2p]                                       
  O           1    8.0000    22     9      [10s4p|3s2p]                                       
  H           2    1.0000     4     2      [4s|2s]                                            
  ----------------------------------------------------------------------
  total:      4   16.0000    52    22
  ----------------------------------------------------------------------

  Threshold for neglecting AO integrals:  1.00D-12


  Cartesian Coordinates (a.u.)
  ----------------------------

  Total number of coordinates:   12
  C       :     1  x  -3.0015786160    2  y  -1.4563174382    3  z   0.0550080378
  O       :     4  x  -3.1314330364    5  y   0.8240509816    6  z  -0.0184248297
  H       :     7  x  -1.1728925345    8  y  -2.4468589606    9  z   0.1025195320
  H       :    10  x  -4.7395143797   11  y  -2.6116033945   12  z   0.0761219478


   Interatomic separations (in Angstrom):
   --------------------------------------

            C           O           H           H     
            ------      ------      ------      ------
 C     :    0.000000
 O     :    1.209298    0.000000
 H     :    1.100831    2.018474    0.000000
 H     :    1.104391    2.007988    1.889439    0.000000


  Max    interatomic separation is    2.0185 Angstrom (    3.8144 Bohr)
  between atoms    3 and    2, "H     " and "O     ".

  Min HX interatomic separation is    1.1008 Angstrom (    2.0803 Bohr)

  Min YX interatomic separation is    1.2093 Angstrom (    2.2852 Bohr)


  Bond distances (Angstrom):
  --------------------------

                  atom 1     atom 2       distance
                  ------     ------       --------
  bond distance:  O          C            1.209298
  bond distance:  H          C            1.100831
  bond distance:  H          C            1.104391


  Bond angles (degrees):
  ----------------------

                  atom 1     atom 2     atom 3         angle
                  ------     ------     ------         -----
  bond angle:     O          C          H            121.724
  bond angle:     O          C          H            120.357
  bond angle:     H          C          H            117.919




 Principal moments of inertia (u*A**2) and principal axes
 --------------------------------------------------------

   IA       1.798871         -0.056827    0.997867   -0.032124
   IB      13.009178          0.998345    0.057081    0.007042
   IC      14.808049         -0.008861    0.031671    0.999459


 Rotational constants
 --------------------

 The molecule is planar.

               A                   B                   C

         280942.3015          38847.8806          34128.6681 MHz
            9.371226            1.295826            1.138410 cm-1


@  Nuclear repulsion energy :   31.249215315972 Hartree

  Reading potential input file

  Polarizable embedding information
  ---------------------------------

    Number of classical sites:      6

    Multipole moments upto 2nd order.

    Dipole-dipole polarizabilities.

    Iterative solver for induced moments will be used
    with convergence threshold: 1.0E-08


                     .---------------------------------------.
                     | Starting in Integral Section (HERMIT) |
                     `---------------------------------------'



     ************************************************************************
     ************************** Output from HERINT **************************
     ************************************************************************


 Threshold for neglecting two-electron integrals:  1.00D-12
 Number of two-electron integrals written:       30487 ( 94.9% )
 Megabytes written:                              0.350

 >>>> Total CPU  time used in HERMIT:   0.09 seconds
 >>>> Total wall time used in HERMIT:   0.09 seconds


                        .----------------------------------.
                        | End of Integral Section (HERMIT) |
                        `----------------------------------'



                   .--------------------------------------------.
                   | Starting in Wave Function Section (SIRIUS) |
                   `--------------------------------------------'


 *** Output from Huckel module :

     Using EWMO model:          T
     Using EHT  model:          F
     Number of Huckel orbitals each symmetry:   12

 EWMO - Energy Weighted Maximum Overlap - is a Huckel type method,
        which normally is better than Extended Huckel Theory.
 Reference: Linderberg and Ohrn, Propagators in Quantum Chemistry (Wiley, 1973)

 Huckel EWMO eigenvalues for symmetry :  1
          -20.684762     -11.351957      -1.632119      -1.046130      -0.813248
           -0.702067      -0.605910      -0.491826      -0.321033      -0.161573
           -0.131670      -0.108806

 **********************************************************************
 *SIRIUS* a direct, restricted step, second order MCSCF program       *
 **********************************************************************

 
     Date and time (Linux)  : Fri Mar 21 21:52:40 2014
     Host name              : foeroyar                                

 Title lines from ".mol" input file:
     CH2O PLUS 2 WATERS                                                      
     ------------------------                                                

 Print level on unit LUPRI =   2 is   0
 Print level on unit LUW4  =   2 is   5

@    MC-SCF optimization.
@              Type: complete active space calculation (CAS).

@    This is a combination run starting with
@              a restricted, closed shell Hartree-Fock calculation


 Initial molecular orbitals are obtained according to
 ".MOSTART EWMO  " input option

@    QM part is embedded in an environment :

@         Model: PE

     Wave function specification
     ============================

     Wave function environment is modeled using the
     polarizable embedding model (PE library).

@    For the wave function of type :      >>> PE-MC-SCF <<<
@    Number of closed shell electrons          12
@    Number of electrons in active shells       4
@    Total charge of the molecule               0

@    Spin multiplicity and 2 M_S                1         0
     Total number of symmetries                 1
@    Reference state symmetry                   1

     Orbital specifications
     ======================
     Abelian symmetry species          All |    1
                                       --- |  ---
@    Inactive orbitals                   6 |    6
@    Active orbitals                     6 |    6
     Secondary orbitals                 10 |   10
     Total number of orbitals           22 |   22
     Number of basis functions          22 |   22

      -- Initial occupation of symmetries is determined from total charge (only one symmetry!)
      -- Initial occupation of symmetries is :
@    Occupied SCF orbitals               8 |    8

     Optimization information
     ========================
@    Number of configurations               105
@    Number of orbital rotations            156
     ------------------------------------------
@    Total number of variables              261

     Maximum number of macro iterations      25
     Maximum number of micro iterations     600
     Threshold for MCSCF gradient      1.00D-10
     Number of initial trial vectors          1
     Number of initial CI iterations          3
     Number of simultaneous trial vectors     1

@    This calculation converges to the lowest state for the specified symmetry and spin species.

     Maximum number of NEO/NR iterations  24


 *********************************************
 ***** DIIS optimization of Hartree-Fock *****
 *********************************************

 C1-DIIS algorithm; max error vectors =    8

 Iter      Total energy     Embedding energy      Error norm     Delta(E)
 -----------------------------------------------------------------------------
     (Precalculated two-electron integrals are transformed to P-supermatrix elements.
      Threshold for discarding integrals :  1.00D-12 )
@  1  -113.444202726     -3.384722866425E-02    2.31766D+00   -1.13D+02
      Virial theorem: -V/T =      2.002632
@      MULPOP C       1.09; O      -0.80; H      -0.15; H      -0.15; 
 -----------------------------------------------------------------------------
@  2  -113.714898770     -1.825204427759E-02    1.52157D+00   -2.71D-01
      Virial theorem: -V/T =      2.004252
@      MULPOP C      -0.43; O      -0.01; H       0.25; H       0.19; 
 -----------------------------------------------------------------------------
@  3  -113.832045466     -3.273953330893E-02    2.98921D-01   -1.17D-01
      Virial theorem: -V/T =      1.997624
@      MULPOP C       0.18; O      -0.56; H       0.23; H       0.15; 
 -----------------------------------------------------------------------------
@  4  -113.836663525     -3.194022451544E-02    5.81708D-02   -4.62D-03
      Virial theorem: -V/T =      2.001268
@      MULPOP C       0.15; O      -0.54; H       0.24; H       0.15; 
 -----------------------------------------------------------------------------
@  5  -113.836982243     -3.274187389159E-02    1.52350D-02   -3.19D-04
      Virial theorem: -V/T =      2.000487
@      MULPOP C       0.14; O      -0.55; H       0.25; H       0.16; 
 -----------------------------------------------------------------------------
@  6  -113.837017306     -3.296730101069E-02    5.61709D-03   -3.51D-05
      Virial theorem: -V/T =      2.000502
@      MULPOP C       0.14; O      -0.55; H       0.25; H       0.16; 
 -----------------------------------------------------------------------------
@  7  -113.837022878     -3.304052776540E-02    1.14532D-03   -5.57D-06
      Virial theorem: -V/T =      2.000526
@      MULPOP C       0.15; O      -0.55; H       0.25; H       0.16; 
 -----------------------------------------------------------------------------
@  8  -113.837023123     -3.304798020251E-02    1.48057D-04   -2.45D-07
      Virial theorem: -V/T =      2.000526
@      MULPOP C       0.15; O      -0.55; H       0.25; H       0.16; 
 -----------------------------------------------------------------------------
@  9  -113.837023126     -3.304704126321E-02    3.03926D-05   -3.17D-09
      Virial theorem: -V/T =      2.000526
@      MULPOP C       0.15; O      -0.55; H       0.25; H       0.16; 
 -----------------------------------------------------------------------------
@ 10  -113.837023127     -3.304692865347E-02    1.41494D-05   -2.89D-10
      Virial theorem: -V/T =      2.000526
@      MULPOP C       0.15; O      -0.55; H       0.25; H       0.16; 
 -----------------------------------------------------------------------------
@ 11  -113.837023127     -3.304692729621E-02    5.67878D-06   -1.02D-10
      Virial theorem: -V/T =      2.000526
@      MULPOP C       0.15; O      -0.55; H       0.25; H       0.16; 
 -----------------------------------------------------------------------------
@ 12  -113.837023127     -3.304694192184E-02    5.34501D-07   -1.45D-11
      Virial theorem: -V/T =      2.000526
@      MULPOP C       0.15; O      -0.55; H       0.25; H       0.16; 
 -----------------------------------------------------------------------------
@ 13  -113.837023127     -3.304694164676E-02    1.80581D-07   -3.82D-12
      Virial theorem: -V/T =      2.000526
@      MULPOP C       0.15; O      -0.55; H       0.25; H       0.16; 
 -----------------------------------------------------------------------------
@ 14  -113.837023127     -3.304694065321E-02    5.91117D-08   -9.95D-14
      Virial theorem: -V/T =      2.000526
@      MULPOP C       0.15; O      -0.55; H       0.25; H       0.16; 
 -----------------------------------------------------------------------------
@ 15  -113.837023127     -3.304694019912E-02    1.72081D-08   -4.18D-12
      Virial theorem: -V/T =      2.000526
@      MULPOP C       0.15; O      -0.55; H       0.25; H       0.16; 
 -----------------------------------------------------------------------------
@ 16  -113.837023127     -3.304694018547E-02    4.30135D-09    4.55D-12
      Virial theorem: -V/T =      2.000526
@      MULPOP C       0.15; O      -0.55; H       0.25; H       0.16; 
 -----------------------------------------------------------------------------
@ 17  -113.837023127     -3.304694023790E-02    1.27501D-09    7.82D-13
      Virial theorem: -V/T =      2.000526
@      MULPOP C       0.15; O      -0.55; H       0.25; H       0.16; 
 -----------------------------------------------------------------------------
@ 18  -113.837023127     -3.304694024726E-02    3.11192D-10   -4.97D-13
      Virial theorem: -V/T =      2.000526
@      MULPOP C       0.15; O      -0.55; H       0.25; H       0.16; 
 -----------------------------------------------------------------------------
@ 19  -113.837023127     -3.304694024869E-02    8.03898D-11    2.13D-13

@ *** DIIS converged in  19 iterations !
@     Converged SCF energy, gradient:   -113.837023126673    8.04D-11
    - total time used in SIRFCK :              0.00 seconds

      Polarizable embedding energy contributions:
     ---------------------------------------------

       Electrostatic contributions:
         Monopoles                 -0.018823860730
         Dipoles                    0.006496932572
         Quadrupoles               -0.009833686124

       Polarization contributions:
         Electronic                -0.074935858124
         Nuclear                    0.069851346754
         Multipole                 -0.005801814596

       Total PE energy:            -0.033046940249

 >>> Writing SIRIFC interface file

 >>>> CPU and wall time for SCF :       0.366       0.367


        SIRIUS MCSCF optimization (SIROPT)
 ================================================



 <<<<< Output from SIRIUS CI module (CICTL) >>>>>




 Integral transformation: Total CPU and WALL times (sec)       0.008       0.008

 (CIST1)  4 lowest diagonal elements:

 Element no. Config.no.    Active energy      Total energy

         1 :          1     -4.9096255797   -113.8039761864
         2 :         16     -4.7494373154   -113.6437879221
         3 :         26     -4.5892630043   -113.4836136110
         4 :         17     -4.5043119289   -113.3986625356


 Convergence threshold for CI optimization :     0.00000000



 *** Reached maximum number of CI iterations:    3
              1 CI roots are not converged.


 CI energies and residuals:
    1     -113.837720848932008       5.14D-03


 Final CI energy:     -113.837720848932008

   <<< OUTPUT FROM SIRCNO     Keyword = FD+NO 


 Occupations of CAS natural orbitals:

 Symmetry  1

   1.927190989   1.993936391   0.073509518   0.000757055   0.004244298
   0.000361749


 <<< MACRO ITERATION  1 >>>
 --------------------------

 Integral transformation: Total CPU and WALL times (sec)       0.017       0.018

 Total MCSCF energy       :          -113.863178473629830  (MACRO    1)

 - Nuclear repulsion      :            31.249215315972382
 - Inactive energy        :          -140.143565922699764
 - Active energy          :            -4.943370242204602
 - Embedding energy       :            -0.025457624697833

 Norm of total gradient   :             0.212871775723
 -    of CI gradient      :             0.069913006721
 -    of orbital gradient :             0.201063582955
      Virial theorem: -V/T =      2.002684
@      MULPOP C       0.06; O      -0.40; H       0.20; H       0.14; 

 (SIRNEO) iteration (  1,  6)
 Micro iteration termination criterion met, EVAL(ISTATE+1) = -3.63D-04

   <<< OUTPUT FROM SIRCNO     Keyword = FD+NO 


 Occupations of CAS natural orbitals:

 Symmetry  1

   1.834632278   1.979311842   0.166692673   0.000057911   0.019100192
   0.000205103


 <<< MACRO ITERATION  2 >>>
 --------------------------

 Integral transformation: Total CPU and WALL times (sec)       0.016       0.017

 Total MCSCF energy       :          -113.875357304339175  (MACRO    2)

 - Nuclear repulsion      :            31.249215315972382
 - Inactive energy        :          -139.893482865425028
 - Active energy          :            -5.202762379554422
 - Embedding energy       :            -0.028327375332097

 Norm of total gradient   :             0.280813876510
 -    of CI gradient      :             0.256561528418
 -    of orbital gradient :             0.114160480800
      Virial theorem: -V/T =      1.997667
@      MULPOP C       0.04; O      -0.44; H       0.24; H       0.16; 

 Residual norm when dim(red L) =   6
 NEO root     CSF        orbital          total
    1     0.04889327     0.01273092     0.05052354 converged

 (NEONEX) NEO vector is converged.

   <<< OUTPUT FROM SIRCNO     Keyword = FD+NO 


 Occupations of CAS natural orbitals:

 Symmetry  1

   1.937991215   1.982390077   0.062224359   0.000107650   0.016819047
   0.000467653


 <<< MACRO ITERATION  3 >>>
 --------------------------

 Integral transformation: Total CPU and WALL times (sec)       0.017       0.018

 Total MCSCF energy       :          -113.895924993534393  (MACRO    3)

 - Nuclear repulsion      :            31.249215315972382
 - Inactive energy        :          -139.643748702082263
 - Active energy          :            -5.472166573985811
 - Embedding energy       :            -0.029225033438699

 Norm of total gradient   :             0.107625407613
 -    of CI gradient      :             0.102788041561
 -    of orbital gradient :             0.031903712570
      Virial theorem: -V/T =      2.000086
@      MULPOP C       0.06; O      -0.46; H       0.24; H       0.15; 

 Residual norm when dim(red L) =   5
 NEO root     CSF        orbital          total
    1     0.01611968     0.01209970     0.02015557 converged

 (NEONEX) NEO vector is converged.

   <<< OUTPUT FROM SIRCNO     Keyword = FD+NO 


 Occupations of CAS natural orbitals:

 Symmetry  1

   1.928317248   1.982206538   0.071924543   0.000030327   0.016798715
   0.000722628


 <<< MACRO ITERATION  4 >>>
 --------------------------

 Integral transformation: Total CPU and WALL times (sec)       0.021       0.021

 Total MCSCF energy       :          -113.899204727187637  (MACRO    4)

 - Nuclear repulsion      :            31.249215315972382
 - Inactive energy        :          -139.449866281882066
 - Active energy          :            -5.668571563835273
 - Embedding energy       :            -0.029982197442674

 Norm of total gradient   :             0.028264018715
 -    of CI gradient      :             0.023583497394
 -    of orbital gradient :             0.015577978193
      Virial theorem: -V/T =      2.000007
@      MULPOP C       0.09; O      -0.47; H       0.24; H       0.14; 

 (SIRNEO) iteration (  4,  7)
 Micro iteration termination criterion met, EVAL(ISTATE+1) = -2.29D-03

   <<< OUTPUT FROM SIRCNO     Keyword = FD+NO 


 Occupations of CAS natural orbitals:

 Symmetry  1

   1.923289306   1.978373122   0.076295816   0.000316301   0.020795424
   0.000930032


 <<< MACRO ITERATION  5 >>>
 --------------------------

 Integral transformation: Total CPU and WALL times (sec)       0.018       0.019

 Total MCSCF energy       :          -113.901890560743055  (MACRO    5)

 - Nuclear repulsion      :            31.249215315972382
 - Inactive energy        :          -139.196618366584062
 - Active energy          :            -5.924410656680997
 - Embedding energy       :            -0.030076853450386

 Norm of total gradient   :             0.075939640986
 -    of CI gradient      :             0.063334855744
 -    of orbital gradient :             0.041898987111
      Virial theorem: -V/T =      1.999583
@      MULPOP C       0.07; O      -0.46; H       0.24; H       0.15; 

 (SIRNEO) iteration (  5,  7)
 Micro iteration termination criterion met, EVAL(ISTATE+1) = -4.11D-03

   <<< OUTPUT FROM SIRCNO     Keyword = FD+NO 


 Occupations of CAS natural orbitals:

 Symmetry  1

   1.921968672   1.979859929   0.076729734   0.000421186   0.019798964
   0.001221515


 <<< MACRO ITERATION  6 >>>
 --------------------------

 Integral transformation: Total CPU and WALL times (sec)       0.018       0.018

 Total MCSCF energy       :          -113.908153139367258  (MACRO    6)

 - Nuclear repulsion      :            31.249215315972382
 - Inactive energy        :          -138.887074634861392
 - Active energy          :            -6.240249100743876
 - Embedding energy       :            -0.030044719734368

 Norm of total gradient   :             0.071032944685
 -    of CI gradient      :             0.061706148146
 -    of orbital gradient :             0.035185657754
      Virial theorem: -V/T =      1.999479
@      MULPOP C       0.07; O      -0.47; H       0.24; H       0.15; 

 (SIRNEO) iteration (  6,  6)
 Micro iteration termination criterion met, EVAL(ISTATE+1) = -1.34D-03

   <<< OUTPUT FROM SIRCNO     Keyword = FD+NO 


 Occupations of CAS natural orbitals:

 Symmetry  1

   1.920341401   1.976453288   0.078104590   0.000467212   0.023254192
   0.001379316


 <<< MACRO ITERATION  7 >>>
 --------------------------

 Integral transformation: Total CPU and WALL times (sec)       0.017       0.018

 Total MCSCF energy       :          -113.914253814230335  (MACRO    7)

 - Nuclear repulsion      :            31.249215315972382
 - Inactive energy        :          -138.688368319544679
 - Active energy          :            -6.444893582710757
 - Embedding energy       :            -0.030207227947279

 Norm of total gradient   :             0.053075142943
 -    of CI gradient      :             0.043853711099
 -    of orbital gradient :             0.029896869757
      Virial theorem: -V/T =      1.999500
@      MULPOP C       0.09; O      -0.47; H       0.24; H       0.14; 

 Residual norm when dim(red L) =   9
 NEO root     CSF        orbital          total
    1     0.00484971     0.00236700     0.00539651 converged

 (NEONEX) NEO vector is converged.

   <<< OUTPUT FROM SIRCNO     Keyword = FD+NO 


 Occupations of CAS natural orbitals:

 Symmetry  1

   1.921038685   1.976792609   0.076184392   0.001207291   0.022035153
   0.002741870


 <<< MACRO ITERATION  8 >>>
 --------------------------

 Integral transformation: Total CPU and WALL times (sec)       0.019       0.019

 Total MCSCF energy       :          -113.917701564310562  (MACRO    8)

 - Nuclear repulsion      :            31.249215315972382
 - Inactive energy        :          -138.702619838392025
 - Active energy          :            -6.434188190051024
 - Embedding energy       :            -0.030108851839879

 Norm of total gradient   :             0.035123246593
 -    of CI gradient      :             0.034585118215
 -    of orbital gradient :             0.006124708098
      Virial theorem: -V/T =      1.999337
@      MULPOP C       0.08; O      -0.47; H       0.24; H       0.15; 

 Residual norm when dim(red L) =  11
 NEO root     CSF        orbital          total
    1     0.00473842     0.00137997     0.00493528 converged

 (NEONEX) NEO vector is converged.

   <<< OUTPUT FROM SIRCNO     Keyword = FD+NO 


 Occupations of CAS natural orbitals:

 Symmetry  1

   1.922467672   1.975876772   0.074869587   0.002007453   0.022109069
   0.002669446


 <<< MACRO ITERATION  9 >>>
 --------------------------

 Integral transformation: Total CPU and WALL times (sec)       0.018       0.017

 Total MCSCF energy       :          -113.919542587074062  (MACRO    9)

 - Nuclear repulsion      :            31.249215315972382
 - Inactive energy        :          -138.725887625208713
 - Active energy          :            -6.412719892358993
 - Embedding energy       :            -0.030150385478738

 Norm of total gradient   :             0.028736254266
 -    of CI gradient      :             0.028496407020
 -    of orbital gradient :             0.003705009604
      Virial theorem: -V/T =      1.999396
@      MULPOP C       0.08; O      -0.47; H       0.24; H       0.15; 

 Residual norm when dim(red L) =   8
 NEO root     CSF        orbital          total
    1     0.00353967     0.00141351     0.00381146 converged

 (NEONEX) NEO vector is converged.

   <<< OUTPUT FROM SIRCNO     Keyword = FD+NO 


 Occupations of CAS natural orbitals:

 Symmetry  1

   1.923343081   1.976457953   0.074219835   0.001560869   0.022012655
   0.002405608


 <<< MACRO ITERATION 10 >>>
 --------------------------

 Integral transformation: Total CPU and WALL times (sec)       0.020       0.019

 Total MCSCF energy       :          -113.919802795710183  (MACRO   10)

 - Nuclear repulsion      :            31.249215315972382
 - Inactive energy        :          -138.656915194855088
 - Active energy          :            -6.481991024104355
 - Embedding energy       :            -0.030111892723107

 Norm of total gradient   :             0.004267035617
 -    of CI gradient      :             0.004002557576
 -    of orbital gradient :             0.001478893442
      Virial theorem: -V/T =      1.999404
@      MULPOP C       0.08; O      -0.47; H       0.24; H       0.15; 

 Residual norm when dim(red L) =  13
 NEO root     CSF        orbital          total
    1     0.00006850     0.00001831     0.00007091 converged

 (NEONEX) NEO vector is converged.

   <<< OUTPUT FROM SIRCNO     Keyword = FD+NO 


 Occupations of CAS natural orbitals:

 Symmetry  1

   1.923056614   1.976530079   0.074511023   0.001560530   0.021946716
   0.002395039


 <<< MACRO ITERATION 11 >>>
 --------------------------

 Integral transformation: Total CPU and WALL times (sec)       0.019       0.019

 Total MCSCF energy       :          -113.919807554817496  (MACRO   11)

 - Nuclear repulsion      :            31.249215315972382
 - Inactive energy        :          -138.660633492791078
 - Active energy          :            -6.478276421990211
 - Embedding energy       :            -0.030112956008579

 Norm of total gradient   :             0.000082158439
 -    of CI gradient      :             0.000079423037
 -    of orbital gradient :             0.000021023567
      Virial theorem: -V/T =      1.999403
@      MULPOP C       0.08; O      -0.47; H       0.24; H       0.15; 

 Residual norm when dim(red L) =  23
 NEO root     CSF        orbital          total
    1     0.00000003     0.00000002     0.00000004 converged

 (NEONEX) NEO vector is converged.

   <<< OUTPUT FROM SIRCNO     Keyword = FD+NO 


 Occupations of CAS natural orbitals:

 Symmetry  1

   1.923057232   1.976530496   0.074510897   0.001559842   0.021946804
   0.002394729


 <<< MACRO ITERATION 12 >>>
 --------------------------

 Integral transformation: Total CPU and WALL times (sec)       0.018       0.018

 Total MCSCF energy       :          -113.919807555926113  (MACRO   12)

 - Nuclear repulsion      :            31.249215315972382
 - Inactive energy        :          -138.660598821858287
 - Active energy          :            -6.478312513587165
 - Embedding energy       :            -0.030111536453039

 Norm of total gradient   :             0.000000037990
 -    of CI gradient      :             0.000000031857
 -    of orbital gradient :             0.000000020698
      Virial theorem: -V/T =      1.999404
@      MULPOP C       0.08; O      -0.47; H       0.24; H       0.15; 

 (SIRSTP) Close to convergence, ratio set to one.
 Energy difference; actual and predicted:   -1.10862D-09   -1.09990D-09

 (SIRSTP) Close to convergence, ratio set to one.
 Energy difference; actual and predicted:    1.00792D+00
 Close to convergence, ratio set to one.

 Residual norm when dim(red L) =  18
 NEO root     CSF        orbital          total
    1     0.00000000     0.00000000     0.00000000 converged

 (NEONEX) NEO vector is converged.

   <<< OUTPUT FROM SIRCNO     Keyword = FD+NO 


 Occupations of CAS natural orbitals:

 Symmetry  1

   1.923057232   1.976530496   0.074510897   0.001559842   0.021946805
   0.002394729


 <<< MACRO ITERATION 13 >>>
 --------------------------

 Integral transformation: Total CPU and WALL times (sec)       0.018       0.017

 Total MCSCF energy       :          -113.919807555924024  (MACRO   13)

 - Nuclear repulsion      :            31.249215315972382
 - Inactive energy        :          -138.660598901607983
 - Active energy          :            -6.478312433868480
 - Embedding energy       :            -0.030111536419940

 Norm of total gradient   :             0.000000000080
 -    of CI gradient      :             0.000000000069
 -    of orbital gradient :             0.000000000041
      Virial theorem: -V/T =      1.999404
@      MULPOP C       0.08; O      -0.47; H       0.24; H       0.15; 

 (SIRSTP) Close to convergence, ratio set to one.
 Energy difference; actual and predicted:    2.08900D-12   -2.99688D-16

 (SIRSTP) Close to convergence, ratio set to one.
 Energy difference; actual and predicted:   -6.97058D+03
 Close to convergence, ratio set to one.

 *** Optimization control: MCSCF converged ***
     Number of macro iterations used           13
     Number of micro iterations used          103
     Total number of CPU seconds used         3.95

      Polarizable embedding energy contributions:
     ---------------------------------------------

       Electrostatic contributions:
         Monopoles                 -0.016986453676
         Dipoles                    0.005971302739
         Quadrupoles               -0.009142249131

       Polarization contributions:
         Electronic                -0.069879833358
         Nuclear                    0.065533370531
         Multipole                 -0.005607673524

       Total PE energy:            -0.030111536420

 Integral transformation: Total CPU and WALL times (sec)       0.021       0.022

 >>>> CPU and wall time for MCSCF :       4.027       4.044


                     .----------------------------------------.
                     | >>> SIRIUS OPTIMIZATION STATISTICS <<< |
                     `----------------------------------------'


 
     Date and time (Linux)  : Fri Mar 21 21:52:44 2014
     Host name              : foeroyar                                


  ITER ITMIC     EMCSCF           GRDNRM        RATIO      STPLNG
 ---------------------------------------------------------------------
    1    6   -113.863178473630   0.2128717757  0.000000   0.7517268867
    2    4   -113.875357304339   0.2808138765  0.306053   0.5064817647
    3    3   -113.895924993534   0.1076254076  0.819534   0.3580570084
    4    7   -113.899204727188   0.0282640187  0.911863   0.6729489115
    5    7   -113.901890560743   0.0759396410  0.653067   0.6732596719
    6    6   -113.908153139367   0.0710329447  0.857570   0.7144858092
    7    7   -113.914253814230   0.0530751429  0.811374   0.7245213006
    8    9   -113.917701564311   0.0351232466  0.797821   0.7308483456
    9    6   -113.919542587074   0.0287362543  0.776754   0.2083315740
   10   11   -113.919802795710   0.0042670356  1.019232   0.0287316738
   11   21   -113.919807554817   0.0000821584  1.000790   0.0001625466
   12   16   -113.919807555926   0.0000000380  1.000000   0.0000000000
   13    0   -113.919807555924   0.0000000001  1.000000   0.0000000000


  ITER  INDGCM  GCIMAX      GCINRM     INDGOM  GOBMAX      GOBNRM      GRDNRM
 ------------------------------------------------------------------------------
    1     19    0.051801    0.069913    104    0.078908    0.201064    0.212872
    2      3   -0.189312    0.256562    122   -0.069928    0.114160    0.280814
    3      9    0.065294    0.102788     29   -0.021553    0.031904    0.107625
    4     78   -0.011069    0.023583    114   -0.007354    0.015578    0.028264
    5      7   -0.035393    0.063335     29    0.012510    0.041899    0.075940
    6      9   -0.018946    0.061706     98   -0.012442    0.035186    0.071033
    7      7   -0.013807    0.043854     29   -0.008089    0.029897    0.053075
    8     12   -0.017062    0.034585    148   -0.002047    0.006125    0.035123
    9     88   -0.015841    0.028496    115   -0.001559    0.003705    0.028736
   10     21    0.001677    0.004003    115    0.000509    0.001479    0.004267
   11     14    0.000036    0.000079    100   -0.000007    0.000021    0.000082
   12     14   -0.000000    0.000000     46   -0.000000    0.000000    0.000000
   13      3   -0.000000    0.000000    116    0.000000    0.000000    0.000000


  ITER ITMIC NCLIN NOLIN   TIMMAC    TIMITR    TIMMIC    TIMLIN    TIMMIC/ITMIC
 ------------------------------------------------------------------------------

    1     6     3     3      0.20      0.02      0.17      0.17      0.03
    2     4     2     3      0.17      0.02      0.14      0.14      0.03
    3     3     2     2      0.17      0.02      0.13      0.13      0.04
    4     7     4     4      0.30      0.02      0.26      0.26      0.04
    5     7     4     4      0.28      0.02      0.25      0.25      0.04
    6     6     4     3      0.24      0.02      0.21      0.21      0.03
    7     7     4     4      0.28      0.02      0.25      0.25      0.04
    8     9     5     5      0.34      0.02      0.30      0.30      0.03
    9     6     3     4      0.24      0.02      0.21      0.21      0.03
   10    11     5     7      0.43      0.02      0.39      0.39      0.04
   11    21    11    11      0.70      0.02      0.66      0.65      0.03
   12    16     8     9      0.54      0.02      0.51      0.51      0.03
   13     0     0     0      0.04      0.02      0.00      0.00


 ITER         EMY                 EACTIV              EMCSCF

    1   -140.143565922700     -4.943370242205   -113.863178473630
    2   -139.893482865425     -5.202762379554   -113.875357304339
    3   -139.643748702082     -5.472166573986   -113.895924993534
    4   -139.449866281882     -5.668571563835   -113.899204727188
    5   -139.196618366584     -5.924410656681   -113.901890560743
    6   -138.887074634861     -6.240249100744   -113.908153139367
    7   -138.688368319545     -6.444893582711   -113.914253814230
    8   -138.702619838392     -6.434188190051   -113.917701564311
    9   -138.725887625209     -6.412719892359   -113.919542587074
   10   -138.656915194855     -6.481991024104   -113.919802795710
   11   -138.660633492791     -6.478276421990   -113.919807554817
   12   -138.660598821858     -6.478312513587   -113.919807555926
   13   -138.660598901608     -6.478312433868   -113.919807555924


 ITER         DEPRED              DEACT               RATIO

    1      0.000000000000      0.000000000000      0.000000000000
    2     -0.039793151565     -0.012178830709      0.306053434580
    3     -0.025096817742     -0.020567689195      0.819533751525
    4     -0.003596738429     -0.003279733653      0.911863266631
    5     -0.004112644490     -0.002685833555      0.653067281100
    6     -0.007302706741     -0.006262578624      0.857569507601
    7     -0.007518942227     -0.006100674863      0.811374084145
    8     -0.004321458441     -0.003447750080      0.797820950331
    9     -0.002370150232     -0.001841022764      0.776753616204
   10     -0.000255298652     -0.000260208636      1.019232316729
   11     -0.000004755351     -0.000004759107      1.000789993630
   12     -0.000000001100     -0.000000001109      1.000000000000
   13     -0.000000000000      0.000000000002      1.000000000000


 ITER    BETA           GAMMA             STPLNG              RTRUST

    1      1.21458084  1.00000000      0.751726886683      0.700000000000
    2      1.00000000  1.00000000      0.506481764690      0.469000000000
    3      0.20000000  1.00000000      0.358057008368      0.562800000000
    4      2.55034985  1.00000000      0.672948911516      0.675360000000
    5      1.55548273  1.00000000      0.673259671863      0.675360000000
    6      1.24598661  1.00000000      0.714485809245      0.700000000000
    7      1.40170662  1.00000000      0.724521300642      0.700000000000
    8      1.00000000  1.00000000      0.730848345626      0.700000000000
    9      0.20000000  1.00000000      0.208331574005      0.700000000000
   10      0.20000000  1.00000000      0.028731673794      0.700000000000
   11      0.20000000  1.00000000      0.000162546638      0.700000000000
   12      0.20000000  1.00000000      0.000000000000      0.700000000000
   13      0.00000000  0.00000000      0.000000000000      0.700000000000


 Reduced L root no.  1
 ITER         EVAL              EVEC(1)           EVEC(2)           EVEC(3)
 ----------------------------------------------------------------------------
    1   -0.064029427921    0.738489319782   -0.569638074050   -0.095300412577
    2   -0.039946427090    0.892102269655   -0.110605108988   -0.363159853748
    3   -0.000286271021    0.997445723504   -0.005771085793   -0.069532920808
    4   -0.013559545752    0.503439432103   -0.020432980224   -0.337405419853
    5   -0.016854035179    0.690605172872   -0.004147689813   -0.414072940846
    6   -0.013024103329    0.746908100114   -0.024099019720   -0.419511195119
    7   -0.008359580803    0.701624841585   -0.004736835148   -0.683184622497
    8   -0.003089876161    0.807360693154   -0.001791419181   -0.563752906720
    9   -0.000020388496    0.999133087715   -0.001068077301   -0.037390871051
   10   -0.000000380415    0.999983490227   -0.000220003595   -0.005404915685
   11   -0.000000000088    0.999999999472   -0.000006683496   -0.000026880391
   12   -0.000000000000    1.000000000000   -0.000000001770   -0.000000034660
   13    0.000000000000    0.000000000000    0.000000000000    0.000000000000


                       .-----------------------------------.
                       | >>> Final results from SIRIUS <<< |
                       `-----------------------------------'


@    Spin multiplicity:           1
@    Spatial symmetry:            1
@    Total charge of molecule:    0
@    State number:                1

@    Final MCSCF energy:         -113.919807555924                 
@    Nuclear repulsion:            31.249215315972
@    Electronic energy:          -145.138911335476
@    Embedding energy:             -0.030111536420

@    Final gradient norm:           0.000000000080

 
     Date and time (Linux)  : Fri Mar 21 21:52:44 2014
     Host name              : foeroyar                                

 Occupancies of natural orbitals
 -------------------------------

 Symmetry  1 -- Total occupation in this symmetry is  16.000000000

   2.000000000   2.000000000   2.000000000   2.000000000   2.000000000
   2.000000000   1.923057232   1.976530496   0.074510897   0.001559842
   0.021946805   0.002394729

 (Only coefficients >0.0100 are printed.)

 Molecular orbitals for symmetry species  1
 ------------------------------------------

    Orbital         1        2        3        4        5        6        7
   1 C   :1s    -0.0000  -0.9958  -0.0716   0.1634   0.0019  -0.0017  -0.0001
   2 C   :1s    -0.0002  -0.0247   0.1193  -0.3470  -0.0070   0.0013   0.0010
   3 C   :1s    -0.0057   0.0097   0.0469  -0.3569   0.0139   0.0255  -0.0017
   4 C   :2px    0.0000   0.0002   0.0020  -0.0258   0.4195   0.2137   0.0032
   5 C   :2py   -0.0005  -0.0026  -0.0309   0.2179   0.0211   0.0139  -0.0118
   6 C   :2pz    0.0000   0.0001   0.0011  -0.0076   0.0029   0.0016  -0.3600
   7 C   :2px    0.0002  -0.0001  -0.0064  -0.0212   0.1864   0.0995   0.0015
   8 C   :2py   -0.0035  -0.0011  -0.0624   0.0742   0.0055  -0.0135  -0.0072
   9 C   :2pz    0.0001   0.0000   0.0023  -0.0036   0.0016   0.0013  -0.2081
  10 O   :1s    -0.9958   0.0005  -0.2136  -0.0748  -0.0017  -0.0004  -0.0000
  11 O   :1s    -0.0228  -0.0004   0.4724   0.1708  -0.0005   0.0072   0.0000
  12 O   :1s     0.0113   0.0003   0.5465   0.2448   0.0129  -0.0012   0.0009
  13 O   :2px   -0.0003  -0.0001  -0.0172  -0.0076   0.3289  -0.5605   0.0027
  14 O   :2py    0.0028   0.0018   0.1365   0.0663   0.0209  -0.0334  -0.0160
  15 O   :2pz   -0.0001  -0.0001  -0.0044  -0.0023   0.0016  -0.0026  -0.5008
  16 O   :2px    0.0003   0.0000  -0.0008   0.0033   0.1797  -0.4712   0.0021
  17 O   :2py   -0.0034  -0.0004   0.1004   0.0192   0.0135  -0.0383  -0.0110
  18 O   :2pz    0.0001   0.0000  -0.0032  -0.0004   0.0004  -0.0015  -0.3349
  19 H   :1s     0.0003   0.0004   0.0582  -0.1965   0.1779   0.1857   0.0007
  20 H   :1s     0.0000  -0.0023   0.0302  -0.0587   0.0837   0.1635   0.0009
  21 H   :1s     0.0003   0.0004   0.0528  -0.1879  -0.1908  -0.1948   0.0001
  22 H   :1s     0.0000  -0.0025   0.0189  -0.0782  -0.1147  -0.2183  -0.0001

    Orbital         8        9       10       11       12       13       14
   1 C   :1s     0.0904   0.0001   0.0482   0.1109   0.0001  -0.1018  -0.0058
   2 C   :1s    -0.2176  -0.0012   0.8137  -0.5852   0.0009   0.2197   0.0097
   3 C   :1s     0.0160   0.0019   0.1760  -0.2407  -0.0024   1.5778   0.0656
   4 C   :2px    0.0238  -0.0053  -0.0411   0.0421  -0.0054   0.0159  -0.4331
   5 C   :2py   -0.4059   0.0203   0.7751  -0.7904   0.0208  -0.1360  -0.0279
   6 C   :2pz    0.0131   0.6243  -0.0259   0.0256   0.6130   0.0048  -0.0033
   7 C   :2px   -0.0069  -0.0021  -0.0038  -0.0006   0.0018   0.1098  -1.5817
   8 C   :2py   -0.0213   0.0101  -0.0673  -0.1195  -0.0072  -1.1374  -0.1043
   9 C   :2pz    0.0009   0.3035   0.0030   0.0039  -0.1866   0.0371  -0.0098
  10 O   :1s     0.0361   0.0000   0.0430  -0.0768  -0.0000  -0.0121   0.0008
  11 O   :1s    -0.0823   0.0002   0.1862   0.3346   0.0001   0.0052  -0.0028
  12 O   :1s     0.0630  -0.0011  -0.8586   0.3786   0.0008   0.4292  -0.0037
  13 O   :2px   -0.0415   0.0042   0.0327   0.0543  -0.0048   0.0056   0.1229
  14 O   :2py    0.5304  -0.0207  -0.5390  -0.8366   0.0239  -0.0413   0.0106
  15 O   :2pz   -0.0171  -0.6485   0.0166   0.0271   0.7563   0.0016   0.0003
  16 O   :2px   -0.0138   0.0014  -0.0954  -0.0011   0.0062  -0.0108   0.3920
  17 O   :2py    0.2740  -0.0041   1.6053  -0.0590  -0.0315   0.0542   0.0245
  18 O   :2pz   -0.0089  -0.1434  -0.0508   0.0018  -1.0096  -0.0024   0.0027
  19 H   :1s     0.0491  -0.0005   0.0591   0.0447   0.0006  -0.0430  -0.0206
  20 H   :1s     0.0595  -0.0007   0.1308   0.0665   0.0011  -1.5123   1.7158
  21 H   :1s     0.0435  -0.0002   0.0479   0.0377   0.0003  -0.0401   0.0154
  22 H   :1s     0.0508   0.0002   0.1243   0.0575   0.0003  -1.3571  -1.8107

 Printout of CI-coefficients abs greater than 0.05000 for root  1
 *** NOTE: this root is the reference state ***

 Printout of coefficients in interval  3.1623E-01 to  1.0000E+00
 ===============================================================

  Coefficient of CSF no.         1 is      0.97492775    9.74927746E-01
  Orbital          1   2
  Spin coupling    2   2

 Printout of coefficients in interval  1.0000E-01 to  3.1623E-01
 ===============================================================

  Coefficient of CSF no.         3 is     -0.17402293   -1.74022930E-01
  Orbital          2   3
  Spin coupling    2   2

 Printout of coefficients in interval  5.0000E-02 to  1.0000E-01
 ===============================================================

  Coefficient of CSF no.         7 is     -0.06385783   -6.38578319E-02
  Orbital          1   5
  Spin coupling    2   2

  Coefficient of CSF no.        78 is     -0.07447272   -7.44727206E-02
  Orbital          1   2   3   5
  Spin coupling    1   1  -1  -1

  Coefficient of CSF no.        79 is     -0.08070678   -8.07067764E-02
  Orbital          1   2   3   5
  Spin coupling    1  -1   1  -1

 Norm of printed CI vector ..      0.99690568

 Magnitude of CI coefficients
 ============================
 ( Ranges are relative to norm of vector :  1.00E+00 )

  10- 1 to 10- 0         2    0.98076809E+00      0.9807680891
  10- 2 to 10- 1        13    0.18924383E-01      0.9996924719
  10- 3 to 10- 2        19    0.30148869E-03      0.9999939606
  10- 4 to 10- 3        20    0.60295441E-05      0.9999999901
  10- 5 to 10- 4        11    0.95319538E-08      0.9999999997
  10- 6 to 10- 5        24    0.34126845E-09      1.0000000000
  10- 7 to 10- 6        13    0.27512350E-11      1.0000000000
  10- 8 to 10- 7         3    0.40568842E-14      1.0000000000
  Number of coefficients less than 10^-11 times norm is            0



 >>>> Total CPU  time used in SIRIUS :      4.40 seconds
 >>>> Total wall time used in SIRIUS :      4.42 seconds

 
     Date and time (Linux)  : Fri Mar 21 21:52:44 2014
     Host name              : foeroyar                                


                     .---------------------------------------.
                     | End of Wave Function Section (SIRIUS) |
                     `---------------------------------------'



        *****************************************************************
        ******** Output from **PROPE input processing for ABACUS ********
        *****************************************************************



 The following molecular properties will be calculated in this run:
 ------------------------------------------------------------------

 Default print level:        0

      Electronic excitation energies 
      Natural orbital connection is used
      for perturbation dependent basis sets.
      Environment is modeled using the polarizable embedding scheme (PE library).


 Changes of defaults for .EXCITA:
 --------------------------------

 Number of excitation energies:    2
 Print level          :    0
 Integral print level :    0
 Convergence threshold: 1.00E-07
 Maximum iterations   :   60
 Dipole strength

 Center of mass dipole origin  :   -3.067740   -0.312997    0.018175

 Center of mass gauge origin   :   -3.067740   -0.312997    0.018175


                 .------------------------------------------------.
                 | Starting in Static Property Section (ABACUS) - |
                 `------------------------------------------------'


 
     Date and time (Linux)  : Fri Mar 21 21:52:44 2014
     Host name              : foeroyar                                


                  **********************************************
                  *** ABACUS - Excitation energies (.EXCITA) ***
                  **********************************************


 TRACTL_1: Integral transformation abandoned,
           the required MO integrals are already available.

 **WARNING**  EIGENVALUES NOT PAIRED

 **WARNING**  EIGENVALUES NOT PAIRED

 **WARNING**  EIGENVALUES NOT PAIRED
 >>>  Time used in EXCITA     is   3.19 seconds


   ***************************************************************************
   ************************ FINAL RESULTS from ABACUS ************************
   ***************************************************************************


 
     Date and time (Linux)  : Fri Mar 21 21:52:47 2014
     Host name              : foeroyar                                


                             Molecular geometry (au)
                             -----------------------

 C         -3.0015786160           -1.4563174382            0.0550080378
 O         -3.1314330364            0.8240509816           -0.0184248297
 H         -1.1728925345           -2.4468589606            0.1025195320
 H         -4.7395143797           -2.6116033945            0.0761219478





                        Molecular wave function and energy
                        ----------------------------------

     Spin multiplicity  1     State number       1     Total charge       0

     Total energy       -113.9198075559 au (Hartrees)
                         -3099.91565253 eV
                           -299096.4086 kJ/mol


                             Relativistic corrections
                             ------------------------

     Darwin correction:                          0.2545964769 au
     Mass-velocity correction:                  -0.3206521541 au

     Total relativistic correction:             -0.0660556772 au (0.0580%)
     Non-relativistic + relativistic energy:  -113.9858632332 au




                                  Dipole moment
                                  -------------

                 au               Debye          C m (/(10**-30)
              1.289430           3.277403          10.932240


                             Dipole moment components
                             ------------------------

                 au               Debye          C m (/(10**-30)

      x      0.14741953         0.37470305         1.24987483
      y     -1.28042341        -3.25451148       -10.85588176
      z      0.03758123         0.09552194         0.31862691


   Units:   1 a.u. =   2.54175 Debye 
            1 a.u. =   8.47835 (10**-30) C m (SI)




                Singlet electronic excitation energies
                --------------------------------------

               ========================================
                 Sym.   Mode   Frequency    Frequency
                ex. st.  No.      (au)         (eV)
               ----------------------------------------
                   1      1     0.155938     4.243288
                   1      2     0.353752     9.626075
               ========================================


                Electric transition dipole moments (in a.u.)
                --------------------------------------------

  Sym.   Mode    Frequency       Velocity/Frequency              Length
 ex. st.  No.      (au)          x       y       z         x       y       z
 ==============================================================================
   1        1     0.155938    -0.0014  0.0027  0.0673    0.0008 -0.0006  0.0127
   1        2     0.353752    -0.0018  0.0065  0.2298   -0.0007  0.0029  0.1407
 ------------------------------------------------------------------------------


                               Oscillator strengths
                               --------------------

  Oscillator strengths are dimensionless.

  Sym.   Mode        Frequency     Oscillator-strength 
 ex. st.  No.           (eV)        velocity   length   
 -------------------------------------------------------
   1        1         4.243288        0.0005   0.0000
   1        2         9.626075        0.0125   0.0047


   Interatomic separations (in Angstrom):
   --------------------------------------

            C           O           H           H     
            ------      ------      ------      ------
 C     :    0.000000
 O     :    1.209298    0.000000
 H     :    1.100831    2.018474    0.000000
 H     :    1.104391    2.007988    1.889439    0.000000


  Max    interatomic separation is    2.0185 Angstrom (    3.8144 Bohr)
  between atoms    3 and    2, "H     " and "O     ".

  Min HX interatomic separation is    1.1008 Angstrom (    2.0803 Bohr)

  Min YX interatomic separation is    1.2093 Angstrom (    2.2852 Bohr)


  Bond distances (Angstrom):
  --------------------------

                  atom 1     atom 2       distance
                  ------     ------       --------
  bond distance:  O          C            1.209298
  bond distance:  H          C            1.100831
  bond distance:  H          C            1.104391


  Bond angles (degrees):
  ----------------------

                  atom 1     atom 2     atom 3         angle
                  ------     ------     ------         -----
  bond angle:     O          C          H            121.724
  bond angle:     O          C          H            120.357
  bond angle:     H          C          H            117.919




 CPU time statistics for ABACUS
 ------------------------------

 EXCITA     00:00:03     100 %

 TOTAL      00:00:03     100 %


 >>>> Total CPU  time used in ABACUS:   3.20 seconds
 >>>> Total wall time used in ABACUS:   3.21 seconds


                   .-------------------------------------------.
                   | End of Static Property Section (ABACUS) - |
                   `-------------------------------------------'

 >>>> Total CPU  time used in DALTON:   7.72 seconds
 >>>> Total wall time used in DALTON:   7.75 seconds

 
     Date and time (Linux)  : Fri Mar 21 21:52:47 2014
     Host name              : foeroyar                                
