

     ************************************************************************
     *************** Dalton - An Electronic Structure Program ***************
     ************************************************************************

    This is output from DALTON (Release Dalton2013 patch 0)
   ----------------------------------------------------------------------------
    NOTE:
     
    Dalton is an experimental code for the evaluation of molecular
    properties using (MC)SCF, DFT, CI, and CC wave functions.
    The authors accept no responsibility for the performance of
    the code or for the correctness of the results.
     
    The code (in whole or part) is provided under a licence and
    is not to be reproduced for further distribution without
    the written permission of the authors or their representatives.
     
    See the home page "http://daltonprogram.org" for further information.
     
    If results obtained with this code are published,
    the appropriate citations would be both of:
     
       K. Aidas, C. Angeli, K. L. Bak, V. Bakken, R. Bast,
       L. Boman, O. Christiansen, R. Cimiraglia, S. Coriani,
       P. Dahle, E. K. Dalskov, U. Ekstroem, T. Enevoldsen,
       J. J. Eriksen, P. Ettenhuber, B. Fernandez, L. Ferrighi,
       H. Fliegl, L. Frediani, K. Hald, A. Halkier, C. Haettig,
       H. Heiberg, T. Helgaker, A. C. Hennum, H. Hettema,
       E. Hjertenaes, S. Hoest, I.-M. Hoeyvik, M. F. Iozzi,
       B. Jansik, H. J. Aa. Jensen, D. Jonsson, P. Joergensen,
       J. Kauczor, S. Kirpekar, T. Kjaergaard, W. Klopper,
       S. Knecht, R. Kobayashi, H. Koch, J. Kongsted, A. Krapp,
       K. Kristensen, A. Ligabue, O. B. Lutnaes, J. I. Melo,
       K. V. Mikkelsen, R. H. Myhre, C. Neiss, C. B. Nielsen,
       P. Norman, J. Olsen, J. M. H. Olsen, A. Osted,
       M. J. Packer, F. Pawlowski, T. B. Pedersen, P. F. Provasi,
       S. Reine, Z. Rinkevicius, T. A. Ruden, K. Ruud, V. Rybkin,
       P. Salek, C. C. M. Samson, A. Sanchez de Meras, T. Saue,
       S. P. A. Sauer, B. Schimmelpfennig, K. Sneskov,
       A. H. Steindal, K. O. Sylvester-Hvid, P. R. Taylor,
       A. M. Teale, E. I. Tellgren, D. P. Tew, A. J. Thorvaldsen,
       L. Thoegersen, O. Vahtras, M. A. Watson, D. J. D. Wilson,
       M. Ziolkowski and H. Aagren.
       The Dalton quantum chemistry program system.
       WIREs Comput. Mol. Sci. 2013. doi: 10.1002/wcms.1172
    
    and
    
       Dalton, a Molecular Electronic Structure Program,
       Release DALTON2013.0 (2013), see http://daltonprogram.org
   ----------------------------------------------------------------------------

    Authors in alphabetical order (major contribution(s) in parenthesis):

  Kestutis Aidas,           Vilnius University,           Lithuania   (QM/MM)
  Celestino Angeli,         University of Ferrara,        Italy       (NEVPT2)
  Keld L. Bak,              UNI-C,                        Denmark     (AOSOPPA, non-adiabatic coupling, magnetic properties)
  Vebjoern Bakken,          University of Oslo,           Norway      (DALTON; geometry optimizer, symmetry detection)
  Radovan Bast,             KTH Stockholm                 Sweden      (DALTON installation and execution frameworks)
  Linus Boman,              NTNU,                         Norway      (Cholesky decomposition and subsystems)
  Ove Christiansen,         Aarhus University,            Denmark     (CC module)
  Renzo Cimiraglia,         University of Ferrara,        Italy       (NEVPT2)
  Sonia Coriani,            University of Trieste,        Italy       (CC module, MCD in RESPONS)
  Paal Dahle,               University of Oslo,           Norway      (Parallelization)
  Erik K. Dalskov,          UNI-C,                        Denmark     (SOPPA)
  Thomas Enevoldsen,        Univ. of Southern Denmark,    Denmark     (SOPPA)
  Janus J. Eriksen,         Aarhus University,            Denmark     (PE-MP2/SOPPA, TDA)
  Berta Fernandez,          U. of Santiago de Compostela, Spain       (doublet spin, ESR in RESPONS)
  Lara Ferrighi,            Aarhus University,            Denmark     (PCM Cubic response)
  Heike Fliegl,             University of Oslo,           Norway      (CCSD(R12))
  Luca Frediani,            UiT The Arctic U. of Norway,  Norway      (PCM)
  Bin Gao,                  UiT The Arctic U. of Norway,  Norway      (Gen1Int library)
  Christof Haettig,         Ruhr-University Bochum,       Germany     (CC module)
  Kasper Hald,              Aarhus University,            Denmark     (CC module)
  Asger Halkier,            Aarhus University,            Denmark     (CC module)
  Hanne Heiberg,            University of Oslo,           Norway      (geometry analysis, selected one-electron integrals)
  Trygve Helgaker,          University of Oslo,           Norway      (DALTON; ABACUS, ERI, DFT modules, London, and much more)
  Alf Christian Hennum,     University of Oslo,           Norway      (Parity violation)
  Hinne Hettema,            University of Auckland,       New Zealand (quadratic response in RESPONS; SIRIUS supersymmetry)
  Eirik Hjertenaes,         NTNU,                         Norway      (Cholesky decomposition)
  Maria Francesca Iozzi,    University of Oslo,           Norway      (RPA)
  Brano Jansik              Technical Univ. of Ostrava    Czech Rep.  (DFT cubic response)
  Hans Joergen Aa. Jensen,  Univ. of Southern Denmark,    Denmark     (DALTON; SIRIUS, RESPONS, ABACUS modules, London, and much more)
  Dan Jonsson,              UiT The Arctic U. of Norway,  Norway      (cubic response in RESPONS module)
  Poul Joergensen,          Aarhus University,            Denmark     (RESPONS, ABACUS, and CC modules)
  Joanna Kauczor,           Linkoeping University,        Sweden      (Complex polarization propagator (CPP) module)
  Sheela Kirpekar,          Univ. of Southern Denmark,    Denmark     (Mass-velocity & Darwin integrals)
  Wim Klopper,              KIT Karlsruhe,                Germany     (R12 code in CC, SIRIUS, and ABACUS modules)
  Stefan Knecht,            ETH Zurich,                   Switzerland (Parallel CI and MCSCF)
  Rika Kobayashi,           Australian National Univ.,    Australia   (DIIS in CC, London in MCSCF)
  Henrik Koch,              NTNU,                         Norway      (CC module, Cholesky decomposition)
  Jacob Kongsted,           Univ. of Southern Denmark,    Denmark     (Polarizable embedding, QM/MM)
  Andrea Ligabue,           University of Modena,         Italy       (CTOCD, AOSOPPA)
  Ola B. Lutnaes,           University of Oslo,           Norway      (DFT Hessian)
  Juan I. Melo,             University of Buenos Aires,   Argentina   (LRESC, Relativistic Effects on NMR Shieldings)
  Kurt V. Mikkelsen,        University of Copenhagen,     Denmark     (MC-SCRF and QM/MM)
  Rolf H. Myhre,            NTNU,                         Norway      (Cholesky, subsystems and ECC2)
  Christian Neiss,          Univ. Erlangen-Nuernberg,     Germany     (CCSD(R12))
  Christian B. Nielsen,     University of Copenhagen,     Denmark     (QM/MM)
  Patrick Norman,           Linkoeping University,        Sweden      (Cubic response and complex response in RESPONS)
  Jeppe Olsen,              Aarhus University,            Denmark     (SIRIUS CI/density modules)
  Jogvan Magnus H. Olsen,   Univ. of Southern Denmark,    Denmark     (Polarizable embedding, PE library, QM/MM)
  Anders Osted,             Copenhagen University,        Denmark     (QM/MM)
  Martin J. Packer,         University of Sheffield,      UK          (SOPPA)
  Filip Pawlowski,          Kazimierz Wielki University   Poland      (CC3)
  Thomas B. Pedersen,       University of Oslo,           Norway      (Cholesky decomposition)
  Patricio F. Provasi,      University of Northeastern,   Argentina   (Analysis of coupling constants in localized orbitals)
  Zilvinas Rinkevicius,     KTH Stockholm,                Sweden      (open-shell DFT, ESR)
  Elias Rudberg,            KTH Stockholm,                Sweden      (DFT grid and basis info)
  Torgeir A. Ruden,         University of Oslo,           Norway      (Numerical derivatives in ABACUS)
  Kenneth Ruud,             UiT The Arctic U. of Norway,  Norway      (DALTON; ABACUS magnetic properties and  much more)
  Pawel Salek,              KTH Stockholm,                Sweden      (DALTON; DFT code)
  Claire C. M. Samson       University of Karlsruhe       Germany     (Boys localization, r12 integrals in ERI)
  Alfredo Sanchez de Meras, University of Valencia,       Spain       (CC module, Cholesky decomposition)
  Trond Saue,               Paul Sabatier University,     France      (direct Fock matrix construction)
  Stephan P. A. Sauer,      University of Copenhagen,     Denmark     (SOPPA(CCSD), SOPPA prop., AOSOPPA, vibrational g-factors)
  Bernd Schimmelpfennig,    Forschungszentrum Karlsruhe,  Germany     (AMFI module)
  Kristian Sneskov,         Aarhus University,            Denmark     (QM/MM, PE-CC)
  Arnfinn H. Steindal,      UiT The Arctic U. of Norway,  Norway      (parallel QM/MM)
  K. O. Sylvester-Hvid,     University of Copenhagen,     Denmark     (MC-SCRF)
  Peter R. Taylor,          VLSCI/Univ. of Melbourne,     Australia   (Symmetry handling ABACUS, integral transformation)
  Andrew M. Teale,          University of Nottingham,     England     (DFT-AC, DFT-D)
  David P. Tew,             University of Bristol,        England     (CCSD(R12))
  Olav Vahtras,             KTH Stockholm,                Sweden      (triplet response, spin-orbit, ESR, TDDFT, open-shell DFT)
  David J. Wilson,          La Trobe University,          Australia   (DFT Hessian and DFT magnetizabilities)
  Hans Agren,               KTH Stockholm,                Sweden      (SIRIUS module, RESPONS, MC-SCRF solvation model)
 --------------------------------------------------------------------------------

     Date and time (Linux)  : Sun Sep  8 20:49:12 2013
     Host name              : lpqlx131.ups-tlse.fr                    

 * Work memory size             :    64000000 =  488.28 megabytes.

 * Directories for basis set searches:
   1) /home/bast/DALTON-2013.0-Source/build/test_prop_roa
   2) /home/bast/DALTON-2013.0-Source/build/basis


Compilation information
-----------------------

 Who compiled             | bast
 Host                     | lpqlx131.ups-tlse.fr
 System                   | Linux-3.8.5-201.fc18.x86_64
 CMake generator          | Unix Makefiles
 Processor                | x86_64
 64-bit integers          | OFF
 MPI                      | OFF
 Fortran compiler         | /usr/bin/gfortran
 Fortran compiler version | GNU Fortran (GCC) 4.7.2 20121109 (Red Hat 4.7.2-8)
 C compiler               | /usr/bin/gcc
 C compiler version       | gcc (GCC) 4.7.2 20121109 (Red Hat 4.7.2-8)
 C++ compiler             | /usr/bin/g++
 C++ compiler version     | g++ (GCC) 4.7.2 20121109 (Red Hat 4.7.2-8)
 Static linking           | OFF
 Last Git revision        | f34203295a86316e27f9e7b44f9b6769c4a046c0
 Configuration time       | 2013-09-08 20:31:27.952056


   Content of the .dal input file
 ----------------------------------

**DALTON INPUT                                    
.WALK                                             
.MAX IT                                           
 50                                               
*WALK                                             
.NUMERI                                           
.PRINT                                            
 1                                                
.DISPLA                                           
 0.001                                            
**WAVE FUNCTIONS                                  
.HF                                               
*SCF INPUT                                        
.THRESH                                           
1.0D-8                                            
**START                                           
.VROA                                             
*ABALNR                                           
.THRESH                                           
5.0D-8                                            
.FREQUE                                           
     3                                            
0.0932147101 0.088558504 0.08564539532            
**EACH STEP                                       
.VROA                                             
*ABALNR                                           
.THRESH                                           
5.0D-8                                            
.FREQUE                                           
     3                                            
0.0932147101 0.088558504 0.08564539532            
**PROPERTIES                                      
.VROA                                             
.RAMAN                                            
.VIBANA                                           
*RESPON                                           
.THRESH                                           
1.0D-6                                            
*ABALNR                                           
.THRESH                                           
5.0D-8                                            
.FREQUE                                           
     3                                            
0.0932147101 0.088558504 0.08564539532            
*VIBANA                                           
.HESPUN                                           
.ISOTOP                                           
   4   7                                          
1 1 1 2 1 1 2                                     
1 1 1 1 2 2 1                                     
1 1 1 2 1 2 1                                     
1 1 1 1 2 1 2                                     
**END OF DALTON INPUT                             


   Content of the .mol file
 ----------------------------

BASIS                                                                          
DZ(Dunning)                                                                    
ROA calculation for allene (H2C=C=CH2) at optimized geometry SCF-DZ            
No symmetry                                                                    
    2  0 0                                                                     
        6.    3                                                                
C1    0.0            0.0           0.0                                         
C2    0.0	     2.4743846667  0.0                                               
C3    0.0           -2.4743846667  0.0                                         
        1.    4                                                                
H4    1.7367853003   3.5259125935  0.0                                         
H5   -1.7367853003   3.5259125935  0.0                                         
H6    0.0           -3.5259125935  1.7367853003                                
H7    0.0           -3.5259125935 -1.7367853003                                


       *******************************************************************
       *********** Output from DALTON general input processing ***********
       *******************************************************************

 --------------------------------------------------------------------------------
   Overall default print level:    0
   Print level for DALTON.STAT:    1

    Geometry optimization
      Starting at iteration:    0
      Maximum number of iterations:   50
    "Old" integral transformation used (limited to max 255 basis functions)
 --------------------------------------------------------------------------------


                  .----------------------------------------------.
                  | Commencing geometry optimization using .WALK |
                  `----------------------------------------------'



     @@>>>>>>>>>> Geometry walk iteration number:    0 <<<<<<<<<<




   ****************************************************************************
   *************** Output of molecule and basis set information ***************
   ****************************************************************************


    The two title cards from your ".mol" input:
    ------------------------------------------------------------------------
 1: ROA calculation for allene (H2C=C=CH2) at optimized geometry SCF-DZ     
 2: No symmetry                                                             
    ------------------------------------------------------------------------

  Atomic type no.    1
  --------------------
  Nuclear charge:   6.00000
  Number of symmetry independent centers:    3
  Number of basis sets to read;    2
  Basis set file used for this atomic type with Z =   6 :
     "/home/bast/DALTON-2013.0-Source/build/basis/DZ(Dunning)"

  Atomic type no.    2
  --------------------
  Nuclear charge:   1.00000
  Number of symmetry independent centers:    4
  Number of basis sets to read;    2
  Basis set file used for this atomic type with Z =   1 :
     "/home/bast/DALTON-2013.0-Source/build/basis/DZ(Dunning)"


                         SYMGRP: Point group information
                         -------------------------------

Point group: C1 


                                 Isotopic Masses
                                 ---------------

                           C1         12.000000
                           C2         12.000000
                           C3         12.000000
                           H4          1.007825
                           H5          1.007825
                           H6          1.007825
                           H7          1.007825

                       Total mass:    40.031300 amu
                       Natural abundance:  96.678 %

 Center-of-mass coordinates (a.u.):    0.000000    0.000000    0.000000


  Atoms and basis sets
  --------------------

  Number of atom types :    2
  Total number of atoms:    7

  Basis set used is "DZ(Dunning)" from the basis set library.

  label    atoms   charge   prim   cont     basis
  ----------------------------------------------------------------------
  C3          3    6.0000    24    10      [9s5p|4s2p]                                        
  H7          4    1.0000     4     2      [4s|2s]                                            
  ----------------------------------------------------------------------
  total:      7   22.0000    88    38
  ----------------------------------------------------------------------

  Threshold for neglecting AO integrals:  1.00D-12


  Cartesian Coordinates (a.u.)
  ----------------------------

  Total number of coordinates:   21
  C1      :     1  x   0.0000000000    2  y   0.0000000000    3  z   0.0000000000
  C2      :     4  x   0.0000000000    5  y   2.4743846667    6  z   0.0000000000
  C3      :     7  x   0.0000000000    8  y  -2.4743846667    9  z   0.0000000000
  H4      :    10  x   1.7367853003   11  y   3.5259125935   12  z   0.0000000000
  H5      :    13  x  -1.7367853003   14  y   3.5259125935   15  z   0.0000000000
  H6      :    16  x   0.0000000000   17  y  -3.5259125935   18  z   1.7367853003
  H7      :    19  x   0.0000000000   20  y  -3.5259125935   21  z  -1.7367853003


   Interatomic separations (in Angstrom):
   --------------------------------------

            C1          C2          C3          H4          H5          H6    
            ------      ------      ------      ------      ------      ------
 C1    :    0.000000
 C2    :    1.309388    0.000000
 C3    :    1.309388    2.618776    0.000000
 H4    :    2.079908    1.074391    3.305557    0.000000
 H5    :    2.079908    1.074391    3.305557    1.838134    0.000000
 H6    :    2.079908    3.305557    1.074391    3.951543    3.951543    0.000000
 H7    :    2.079908    3.305557    1.074391    3.951543    3.951543    1.838134

            H7    
            ------
 H7    :    0.000000


  Max    interatomic separation is    3.9515 Angstrom (    7.4673 Bohr)
  between atoms    6 and    4, "H6    " and "H4    ".

  Min HX interatomic separation is    1.0744 Angstrom (    2.0303 Bohr)

  Min YX interatomic separation is    1.3094 Angstrom (    2.4744 Bohr)


  Bond distances (Angstrom):
  --------------------------

                  atom 1     atom 2       distance
                  ------     ------       --------
  bond distance:  C2         C1           1.309388
  bond distance:  C3         C1           1.309388
  bond distance:  H4         C2           1.074391
  bond distance:  H5         C2           1.074391
  bond distance:  H6         C3           1.074391
  bond distance:  H7         C3           1.074391


  Bond angles (degrees):
  ----------------------

                  atom 1     atom 2     atom 3         angle
                  ------     ------     ------         -----
  bond angle:     C2         C1         C3           180.000
  bond angle:     C1         C2         H4           121.193
  bond angle:     C1         C2         H5           121.193
  bond angle:     H4         C2         H5           117.615
  bond angle:     C1         C3         H6           121.193
  bond angle:     C1         C3         H7           121.193
  bond angle:     H6         C3         H7           117.615




 Principal moments of inertia (u*A**2) and principal axes
 --------------------------------------------------------

   IA       3.405177          0.000000    1.000000    0.000000
   IB      56.884804          1.000000    0.000000    0.000000
   IC      56.884804          0.000000    0.000000    1.000000


 Rotational constants
 --------------------

               A                   B                   C

         148414.9135           8884.2533           8884.2533 MHz
            4.950589            0.296347            0.296347 cm-1


@  Nuclear repulsion energy :   59.253265403029 Hartree


                     .---------------------------------------.
                     | Starting in Integral Section (HERMIT) |
                     `---------------------------------------'



    *************************************************************************
    ****************** Output from HERMIT input processing ******************
    *************************************************************************



     ************************************************************************
     ************************** Output from HERINT **************************
     ************************************************************************


 Threshold for neglecting two-electron integrals:  1.00D-12
 Number of two-electron integrals written:      145897 ( 53.1% )
 Megabytes written:                              1.676

 >>>  Time used in TWOINT     is   0.13 seconds
 >>>> Total CPU  time used in HERMIT:   0.16 seconds
 >>>> Total wall time used in HERMIT:   0.17 seconds


                        .----------------------------------.
                        | End of Integral Section (HERMIT) |
                        `----------------------------------'



                   .--------------------------------------------.
                   | Starting in Wave Function Section (SIRIUS) |
                   `--------------------------------------------'


 *** Output from Huckel module :

     Using EWMO model:          T
     Using EHT  model:          F
     Number of Huckel orbitals each symmetry:   19

 EWMO - Energy Weighted Maximum Overlap - is a Huckel type method,
        which normally is better than Extended Huckel Theory.
 Reference: Linderberg and Ohrn, Propagators in Quantum Chemistry (Wiley, 1973)

 Huckel EWMO eigenvalues for symmetry :  1
          -11.358212     -11.353320     -11.343988      -1.531556      -1.293796
           -0.796280      -0.785094      -0.785094      -0.503607      -0.482355
           -0.482355      -0.237277      -0.237277      -0.131745      -0.121220
           -0.103812      -0.099786      -0.099786      -0.067040

 **********************************************************************
 *SIRIUS* a direct, restricted step, second order MCSCF program       *
 **********************************************************************

 
     Date and time (Linux)  : Sun Sep  8 20:49:12 2013
     Host name              : lpqlx131.ups-tlse.fr                    

 Title lines from ".mol" input file:
     ROA calculation for allene (H2C=C=CH2) at optimized geometry SCF-DZ     
     No symmetry                                                             

 Print level on unit LUPRI =   2 is   0
 Print level on unit LUW4  =   2 is   5

@    Restricted, closed shell Hartree-Fock calculation.

 Initial molecular orbitals are obtained according to
 ".MOSTART EWMO  " input option

     Wave function specification
     ============================
@    For the wave function of type :      >>> HF <<<
@    Number of closed shell electrons          22
@    Number of electrons in active shells       0
@    Total charge of the molecule               0

@    Spin multiplicity and 2 M_S                1         0
     Total number of symmetries                 1
@    Reference state symmetry                   1

     Orbital specifications
     ======================
     Abelian symmetry species          All |    1
                                       --- |  ---
@    Occupied SCF orbitals              11 |   11
     Secondary orbitals                 27 |   27
     Total number of orbitals           38 |   38
     Number of basis functions          38 |   38

     Optimization information
     ========================
@    Number of configurations                 1
@    Number of orbital rotations            297
     ------------------------------------------
@    Total number of variables              298

     Maximum number of Fock   iterations      0
     Maximum number of DIIS   iterations     60
     Maximum number of QC-SCF iterations     60
     Threshold for SCF convergence     1.00D-08


 >>>>> DIIS optimization of Hartree-Fock <<<<<

 C1-DIIS algorithm; max error vectors =   10

 Iter      Total energy        Error norm    Delta(E)  DIIS dim.
 -----------------------------------------------------------------------------
     (Precalculated two-electron integrals are transformed to P-supermatrix elements.
      Threshold for discarding integrals :  1.00D-12 )
@  1    -115.425618488        2.26254D+00   -1.15D+02    1
      Virial theorem: -V/T =      2.022595
@      MULPOP C1      0.13; C2     -0.18; C3     -0.18; H4      0.06; H5      0.06; H6      0.06; H7      0.06; 
 -----------------------------------------------------------------------------
@  2    -115.791718800        6.35544D-01   -3.66D-01    2
      Virial theorem: -V/T =      1.992323
@      MULPOP C1     -0.01; C2     -0.58; C3     -0.58; H4      0.29; H5      0.29; H6      0.29; H7      0.29; 
 -----------------------------------------------------------------------------
@  3    -115.827430044        1.50422D-01   -3.57D-02    3
      Virial theorem: -V/T =      2.002020
@      MULPOP C1      0.22; C2     -0.54; C3     -0.54; H4      0.21; H5      0.21; H6      0.21; H7      0.21; 
 -----------------------------------------------------------------------------
@  4    -115.829960754        5.28262D-02   -2.53D-03    4
      Virial theorem: -V/T =      2.000669
@      MULPOP C1      0.12; C2     -0.49; C3     -0.49; H4      0.21; H5      0.21; H6      0.21; H7      0.21; 
 -----------------------------------------------------------------------------
@  5    -115.830224895        1.56721D-02   -2.64D-04    5
      Virial theorem: -V/T =      2.000499
@      MULPOP C1      0.13; C2     -0.49; C3     -0.49; H4      0.21; H5      0.21; H6      0.21; H7      0.21; 
 -----------------------------------------------------------------------------
@  6    -115.830278463        4.52323D-03   -5.36D-05    6
      Virial theorem: -V/T =      2.000446
@      MULPOP C1      0.12; C2     -0.48; C3     -0.48; H4      0.21; H5      0.21; H6      0.21; H7      0.21; 
 -----------------------------------------------------------------------------
@  7    -115.830282135        1.21734D-03   -3.67D-06    7
      Virial theorem: -V/T =      2.000453
@      MULPOP C1      0.12; C2     -0.48; C3     -0.48; H4      0.21; H5      0.21; H6      0.21; H7      0.21; 
 -----------------------------------------------------------------------------
@  8    -115.830282364        1.24573D-04   -2.30D-07    8
      Virial theorem: -V/T =      2.000454
@      MULPOP C1      0.12; C2     -0.48; C3     -0.48; H4      0.21; H5      0.21; H6      0.21; H7      0.21; 
 -----------------------------------------------------------------------------
@  9    -115.830282366        1.31529D-05   -1.98D-09    9
      Virial theorem: -V/T =      2.000454
@      MULPOP C1      0.12; C2     -0.48; C3     -0.48; H4      0.21; H5      0.21; H6      0.21; H7      0.21; 
 -----------------------------------------------------------------------------
@ 10    -115.830282366        1.69597D-06   -2.54D-11   10
      Virial theorem: -V/T =      2.000454
@      MULPOP C1      0.12; C2     -0.48; C3     -0.48; H4      0.21; H5      0.21; H6      0.21; H7      0.21; 
 -----------------------------------------------------------------------------
@ 11    -115.830282366        1.38521D-07   -4.55D-13   10
      Virial theorem: -V/T =      2.000454
@      MULPOP C1      0.12; C2     -0.48; C3     -0.48; H4      0.21; H5      0.21; H6      0.21; H7      0.21; 
 -----------------------------------------------------------------------------
@ 12    -115.830282366        1.92469D-08    1.42D-13   10
      Virial theorem: -V/T =      2.000454
@      MULPOP C1      0.12; C2     -0.48; C3     -0.48; H4      0.21; H5      0.21; H6      0.21; H7      0.21; 
 -----------------------------------------------------------------------------
@ 13    -115.830282366        1.83095D-09   -5.68D-14   10

@ *** DIIS converged in  13 iterations !
@     Converged SCF energy, gradient:   -115.830282366386    1.83D-09
    - total time used in SIRFCK :              0.00 seconds


 *** SCF orbital energy analysis ***

 Only the five lowest virtual orbital energies printed in each symmetry.

 Number of electrons :   22
 Orbital occupations :   11

 Sym       Hartree-Fock orbital energies

  1    -11.28432254   -11.24835516   -11.24828133    -1.08209578    -0.96674167
        -0.71928632    -0.63171388    -0.61414422    -0.61414422    -0.37754650
        -0.37754650     0.15966506     0.15966506     0.26187335     0.29459338
         0.31111781

    E(LUMO) :     0.15966506 au (symmetry 1)
  - E(HOMO) :    -0.37754650 au (symmetry 1)
  ------------------------------------------
    gap     :     0.53721156 au

 >>> Writing SIRIFC interface file <<<

 >>>> CPU and wall time for SCF :       0.049       0.049


                       .-----------------------------------.
                       | >>> Final results from SIRIUS <<< |
                       `-----------------------------------'


@    Spin multiplicity:           1
@    Spatial symmetry:            1
@    Total charge of molecule:    0

@    Final HF energy:            -115.830282366386                 
@    Nuclear repulsion:            59.253265403029
@    Electronic energy:          -175.083547769416

@    Final gradient norm:           0.000000001831

 
     Date and time (Linux)  : Sun Sep  8 20:49:12 2013
     Host name              : lpqlx131.ups-tlse.fr                    

 (Only coefficients >0.0100 are printed.)

 Molecular orbitals for symmetry species  1
 ------------------------------------------

    Orbital         7        8        9       10       11       12       13
   5 C1  :2px   -0.0000  -0.0203   0.1871   0.3586  -0.2393   0.0004   0.4926
   6 C1  :2py   -0.4433   0.0000  -0.0000   0.0000   0.0000   0.0000   0.0000
   7 C1  :2pz    0.0000   0.1871   0.0203  -0.2393  -0.3586  -0.4926   0.0004
   8 C1  :2px    0.0000  -0.0025   0.0229   0.1838  -0.1227   0.0007   0.8662
   9 C1  :2py    0.0552  -0.0000  -0.0000   0.0000   0.0000   0.0000   0.0000
  10 C1  :2pz   -0.0000   0.0229   0.0025  -0.1227  -0.1838  -0.8662   0.0007
  13 C2  :1s     0.0404  -0.0000   0.0000   0.0000   0.0000   0.0000   0.0000
  14 C2  :1s     0.0205   0.0000   0.0000  -0.0000  -0.0000  -0.0000  -0.0000
  15 C2  :2px   -0.0000  -0.0556   0.5128  -0.1228   0.0820   0.0001   0.0692
  16 C2  :2py    0.3823  -0.0000   0.0000   0.0000   0.0000  -0.0000  -0.0000
  17 C2  :2pz    0.0000   0.0848   0.0092  -0.2728  -0.4087   0.3704  -0.0003
  18 C2  :2px   -0.0000  -0.0112   0.1037  -0.1114   0.0744  -0.0001  -0.1029
  19 C2  :2py    0.0592  -0.0000  -0.0000   0.0000   0.0000   0.0000   0.0000
  20 C2  :2pz    0.0000   0.0277   0.0030  -0.1162  -0.1741   0.8652  -0.0007
  23 C3  :1s    -0.0404  -0.0000   0.0000  -0.0000  -0.0000  -0.0000  -0.0000
  24 C3  :1s    -0.0205  -0.0000  -0.0000   0.0000   0.0000   0.0000   0.0000
  25 C3  :2px   -0.0000  -0.0092   0.0848   0.4087  -0.2728  -0.0003  -0.3704
  26 C3  :2py    0.3823   0.0000   0.0000   0.0000   0.0000  -0.0000   0.0000
  27 C3  :2pz   -0.0000   0.5128   0.0556   0.0820   0.1228  -0.0692   0.0001
  28 C3  :2px   -0.0000  -0.0030   0.0277   0.1741  -0.1162  -0.0007  -0.8652
  29 C3  :2py    0.0592  -0.0000   0.0000   0.0000   0.0000   0.0000   0.0000
  30 C3  :2pz    0.0000   0.1037   0.0112   0.0744   0.1114   0.1029  -0.0001
  31 H4  :1s     0.1151  -0.0234   0.2164  -0.0862   0.0575  -0.0001  -0.1005
  32 H4  :1s     0.0673  -0.0155   0.1430  -0.0616   0.0411  -0.0002  -0.3008
  33 H5  :1s     0.1151   0.0234  -0.2164   0.0862  -0.0575   0.0001   0.1005
  34 H5  :1s     0.0673   0.0155  -0.1430   0.0616  -0.0411   0.0002   0.3008
  35 H6  :1s    -0.1151   0.2164   0.0234   0.0575   0.0862   0.1005  -0.0001
  36 H6  :1s    -0.0673   0.1430   0.0155   0.0411   0.0616   0.3008  -0.0002
  37 H7  :1s    -0.1151  -0.2164  -0.0234  -0.0575  -0.0862  -0.1005   0.0001
  38 H7  :1s    -0.0673  -0.1430  -0.0155  -0.0411  -0.0616  -0.3008   0.0002



 >>>> Total CPU  time used in SIRIUS :      0.06 seconds
 >>>> Total wall time used in SIRIUS :      0.06 seconds

 
     Date and time (Linux)  : Sun Sep  8 20:49:12 2013
     Host name              : lpqlx131.ups-tlse.fr                    


                     .---------------------------------------.
                     | End of Wave Function Section (SIRIUS) |
                     `---------------------------------------'



 Changes of defaults for WALK:
 -----------------------------


 Walk type: Numerical differentiation                 
 Print level in WALK    :         1

Maximum number of iterations reset in numerical differentiation to    50




        *****************************************************************
        ******** Output from **START input processing for ABACUS ********
        *****************************************************************



 The following molecular properties will be calculated in this run:
 ------------------------------------------------------------------

 Default print level:        0

      Geometry optimization
      Vibrational Raman intensities and optical activity
      Natural orbital connection is used
      for perturbation dependent basis sets.
      Linear response properties


 Changes of defaults for *ABALNR:
 --------------------------------

 Number of frequencies     :   3
 Frequencies               :  0.093215  0.088559  0.085645
 Print level                    :   0
 Lin Resp convergence threshold :  5.00D-08
 Max. Lin Resp iterations       :  60

 Center of mass dipole origin  :    0.000000    0.000000    0.000000

 Center of mass gauge origin   :    0.000000    0.000000    0.000000


 Changes of defaults for WALK:
 -----------------------------


 Walk type: Numerical differentiation                 
 Print level in WALK    :         1

Maximum number of iterations reset in numerical differentiation to    50




                 .------------------------------------------------.
                 | Starting in Static Property Section (ABACUS) - |
                 `------------------------------------------------'


 
     Date and time (Linux)  : Sun Sep  8 20:49:12 2013
     Host name              : lpqlx131.ups-tlse.fr                    

 >>> Skip of TROINV is ignored because all GD vectors needed.



     ***********************************************************************
     ****************** Solving Linear Response Equations ******************
     ***********************************************************************


 Integral transformation: Total CPU and WALL times (sec)       0.077       0.079
 >>>  Time used in LNRABA     is   0.30 seconds


   ***************************************************************************
   ************************ FINAL RESULTS from ABACUS ************************
   ***************************************************************************


 
     Date and time (Linux)  : Sun Sep  8 20:49:13 2013
     Host name              : lpqlx131.ups-tlse.fr                    


                             Molecular geometry (au)
                             -----------------------

 C1         0.0000000000            0.0000000000            0.0000000000
 C2         0.0000000000            2.4743846667            0.0000000000
 C3         0.0000000000           -2.4743846667            0.0000000000
 H4         1.7367853003            3.5259125935            0.0000000000
 H5        -1.7367853003            3.5259125935            0.0000000000
 H6         0.0000000000           -3.5259125935            1.7367853003
 H7         0.0000000000           -3.5259125935           -1.7367853003





                        Molecular wave function and energy
                        ----------------------------------

     Spin multiplicity  1     State number       1     Total charge       0

     Total energy       -115.8302823664 au (Hartrees)
                         -3151.90231662 eV
                           -304112.3595 kJ/mol


                             Relativistic corrections
                             ------------------------

     Darwin correction:                          0.1802344473 au
     Mass-velocity correction:                  -0.2243803917 au

     Total relativistic correction:             -0.0441459444 au (0.0381%)
     Non-relativistic + relativistic energy:  -115.8744283108 au




                                  Dipole moment
                                  -------------

                 au               Debye          C m (/(10**-30)
              0.000000           0.000000           0.000000


                             Dipole moment components
                             ------------------------

                 au               Debye          C m (/(10**-30)

      x     -0.00000000        -0.00000000        -0.00000000
      y     -0.00000000        -0.00000000        -0.00000000
      z      0.00000000         0.00000000         0.00000000


   Units:   1 a.u. =   2.54175 Debye 
            1 a.u. =   8.47835 (10**-30) C m (SI)




              ++++++++++++++++++++++++++++++++++++++++++++++++++++++
              ++++++++++++++++++ Optical rotation ++++++++++++++++++
              ++++++++++++++++++++++++++++++++++++++++++++++++++++++


          London    G tensor for frequency     0.093215 au
          -------------------------------------------------
                           Bx          By          Bz

                Ex    -0.0000000   0.0000000   0.4300539
                Ey     0.0000000  -0.0000000  -0.0000000
                Ez     0.4300539   0.0000000   0.0000000

          London    G tensor for frequency     0.088559 au
          -------------------------------------------------
                           Bx          By          Bz

                Ex    -0.0000000   0.0000000   0.4076881
                Ey     0.0000000  -0.0000000  -0.0000000
                Ez     0.4076881   0.0000000   0.0000000

          London    G tensor for frequency     0.085645 au
          -------------------------------------------------
                           Bx          By          Bz

                Ex    -0.0000000   0.0000000   0.3937663
                Ey     0.0000000  -0.0000000  -0.0000000
                Ez     0.3937663   0.0000000   0.0000000

          No-London G tensor for frequency     0.093215 au
          -------------------------------------------------
                           Bx          By          Bz

                Ex    -0.0000000   0.0000000   0.4966056
                Ey    -0.0000000  -0.0000000  -0.0000000
                Ez     0.4966056   0.0000000   0.0000000

          No-London G tensor for frequency     0.088559 au
          -------------------------------------------------
                           Bx          By          Bz

                Ex    -0.0000000   0.0000000   0.4708455
                Ey    -0.0000000  -0.0000000  -0.0000000
                Ez     0.4708455   0.0000000   0.0000000

          No-London G tensor for frequency     0.085645 au
          -------------------------------------------------
                           Bx          By          Bz

                Ex    -0.0000000   0.0000000   0.4548056
                Ey    -0.0000000  -0.0000000  -0.0000000
                Ez     0.4548056   0.0000000   0.0000000

          Optical rotation summary
          ------------------------

          Frequency:     0.093215 au  =   488.800028 nm

          Beta (London)                :    0.000000
          Beta (No-London)             :    0.000000
          Optical rotation (London)    :    0.000000
          Optical rotation (No-London) :    0.000000

          Frequency:     0.088559 au  =   514.500030 nm

          Beta (London)                :    0.000000
          Beta (No-London)             :    0.000000
          Optical rotation (London)    :    0.000000
          Optical rotation (No-London) :    0.000000

          Frequency:     0.085645 au  =   532.000031 nm

          Beta (London)                :    0.000000
          Beta (No-London)             :    0.000000
          Optical rotation (London)    :    0.000000
          Optical rotation (No-London) :    0.000000


   Interatomic separations (in Angstrom):
   --------------------------------------

            C1          C2          C3          H4          H5          H6    
            ------      ------      ------      ------      ------      ------
 C1    :    0.000000
 C2    :    1.309388    0.000000
 C3    :    1.309388    2.618776    0.000000
 H4    :    2.079908    1.074391    3.305557    0.000000
 H5    :    2.079908    1.074391    3.305557    1.838134    0.000000
 H6    :    2.079908    3.305557    1.074391    3.951543    3.951543    0.000000
 H7    :    2.079908    3.305557    1.074391    3.951543    3.951543    1.838134

            H7    
            ------
 H7    :    0.000000


  Max    interatomic separation is    3.9515 Angstrom (    7.4673 Bohr)
  between atoms    6 and    4, "H6    " and "H4    ".

  Min HX interatomic separation is    1.0744 Angstrom (    2.0303 Bohr)

  Min YX interatomic separation is    1.3094 Angstrom (    2.4744 Bohr)


  Bond distances (Angstrom):
  --------------------------

                  atom 1     atom 2       distance
                  ------     ------       --------
  bond distance:  C2         C1           1.309388
  bond distance:  C3         C1           1.309388
  bond distance:  H4         C2           1.074391
  bond distance:  H5         C2           1.074391
  bond distance:  H6         C3           1.074391
  bond distance:  H7         C3           1.074391


  Bond angles (degrees):
  ----------------------

                  atom 1     atom 2     atom 3         angle
                  ------     ------     ------         -----
  bond angle:     C2         C1         C3           180.000
  bond angle:     C1         C2         H4           121.193
  bond angle:     C1         C2         H5           121.193
  bond angle:     H4         C2         H5           117.615
  bond angle:     C1         C3         H6           121.193
  bond angle:     C1         C3         H7           121.193
  bond angle:     H6         C3         H7           117.615



 Largest deviation from orthonormality of OMOs:0.149658E-12
 - found for element   20  20


     ************************************************************************
     ****************** ABACUS - NUMERICAL DIFFERENTIATION ******************
     ************************************************************************

 Energy at reference geometry:  -115.8302823664


  Analytical gradient at reference geometry
  -----------------------------------------


     Zero matrix.
    ==== End of matrix output ====


  Analytical Hessian at reference geometry
  ----------------------------------------


     Zero matrix.
    ==== End of matrix output ====


    *************************************************************************
    ************** ABACUS - Numerical differentiation for VROA **************
    *************************************************************************



  Polarizability tensor at reference geometry
  -------------------------------------------

  frequency:0.0932

               Column   1     Column   2     Column   3
       1      17.55501504    -0.00000000    -0.00000000
       2       0.00000000    65.54892245    -0.00000000
       3      -0.00000000     0.00000000    17.55501504
    ==== End of matrix output ====
  frequency:0.0886

               Column   1     Column   2     Column   3
       1      17.51819146    -0.00000000    -0.00000000
       2       0.00000000    65.04008810    -0.00000000
       3      -0.00000000     0.00000000    17.51819146
    ==== End of matrix output ====
  frequency:0.0856

               Column   1     Column   2     Column   3
       1      17.49620210    -0.00000000    -0.00000000
       2       0.00000000    64.73957506    -0.00000000
       3      -0.00000000     0.00000000    17.49620210
    ==== End of matrix output ====


  Non-London G tensor at reference geometry
  -----------------------------------------

  frequency:0.0932

               Column   1     Column   2     Column   3
       1      -0.00000000     0.00000000     0.49660560
       3       0.49660560     0.00000000     0.00000000
    ==== End of matrix output ====
  frequency:0.0886

               Column   1     Column   2     Column   3
       1      -0.00000000     0.00000000     0.47084550
       3       0.47084550     0.00000000     0.00000000
    ==== End of matrix output ====
  frequency:0.0856

               Column   1     Column   2     Column   3
       1      -0.00000000     0.00000000     0.45480563
       3       0.45480563     0.00000000     0.00000000
    ==== End of matrix output ====


  London G tensor at reference geometry
  -------------------------------------

  frequency:0.0932

               Column   1     Column   2     Column   3
       1      -0.00000000     0.00000000     0.43005387
       3       0.43005387     0.00000000     0.00000000
    ==== End of matrix output ====
  frequency:0.0886

               Column   1     Column   2     Column   3
       1      -0.00000000     0.00000000     0.40768812
       3       0.40768812     0.00000000     0.00000000
    ==== End of matrix output ====
  frequency:0.0856

               Column   1     Column   2     Column   3
       1      -0.00000000     0.00000000     0.39376635
       3       0.39376635     0.00000000     0.00000000
    ==== End of matrix output ====


  A tensor at reference geometry
  ------------------------------

  frequency:0.0932

               Column   1     Column   2     Column   3     Column   4     Column   5
       1      -0.00000000    22.75117780    -0.00000000    22.75117780     0.00000000
       2      11.69069547    -0.00000000    -0.00000000    -0.00000000    -0.00000000

               Column   6     Column   7     Column   8     Column   9
       2      -0.00000000    -0.00000000    -0.00000000   -11.69069547
       3     -22.75117780     0.00000000   -22.75117780    -0.00000000
    ==== End of matrix output ====
  frequency:0.0886

               Column   1     Column   2     Column   3     Column   4     Column   5
       1      -0.00000000    22.69301965    -0.00000000    22.69301965     0.00000000
       2      11.65586922    -0.00000000    -0.00000000    -0.00000000    -0.00000000

               Column   6     Column   7     Column   8     Column   9
       2      -0.00000000    -0.00000000    -0.00000000   -11.65586922
       3     -22.69301965     0.00000000   -22.69301965    -0.00000000
    ==== End of matrix output ====
  frequency:0.0856

               Column   1     Column   2     Column   3     Column   4     Column   5
       1      -0.00000000    22.65829393    -0.00000000    22.65829393     0.00000000
       2      11.63510602    -0.00000000    -0.00000000    -0.00000000    -0.00000000

               Column   6     Column   7     Column   8     Column   9
       2      -0.00000000    -0.00000000    -0.00000000   -11.63510602
       3     -22.65829393     0.00000000   -22.65829393    -0.00000000
    ==== End of matrix output ====


  Rayleigh properties for parent molecule (in A**6)
  -------------------------------------------------

  frequency: 0.093215 a.u. = 488.80 nm
  ----------------------------------

 ** Intensities and Depol. Ratio for circular polarized incident light **

     Alpha**2      Beta(a)**2    Pol.Int.      Depol.Int.     Dep.Ratio
       24.7212       50.5800     1466.5130      303.4801        0.2069

 ** Optical active Invariants (*E6) **

        a*Gm(Lon)     a*Gm(noL)     Beta(G)**2 (Lon/NoLon)   Beta(A)**2
       -0.0000       -0.0000       -0.0000       -0.0000       -0.0000

 ** Difference parameters L-R (1st line) and chirality number (2nd line,*E3) **

      DELTApar(Lon) DELTAperp(Lon) DELTA0(Lon)   DELTA180(Lon)
       -0.000000     -0.000000     -0.000000     -0.000000
       -0.000000     -0.000000     -0.000000     -0.000000

  frequency: 0.088559 a.u. = 514.50 nm
  ----------------------------------

 ** Intensities and Depol. Ratio for circular polarized incident light **

     Alpha**2      Beta(a)**2    Pol.Int.      Depol.Int.     Dep.Ratio
       24.4359       49.5900     1446.7455      297.5402        0.2057

 ** Optical active Invariants (*E6) **

        a*Gm(Lon)     a*Gm(noL)     Beta(G)**2 (Lon/NoLon)   Beta(A)**2
       -0.0000       -0.0000       -0.0000       -0.0000       -0.0000

 ** Difference parameters L-R (1st line) and chirality number (2nd line,*E3) **

      DELTApar(Lon) DELTAperp(Lon) DELTA0(Lon)   DELTA180(Lon)
       -0.000000     -0.000000     -0.000000     -0.000000
       -0.000000     -0.000000     -0.000000     -0.000000

  frequency: 0.085645 a.u. = 532.00 nm
  ----------------------------------

 ** Intensities and Depol. Ratio for circular polarized incident light **

     Alpha**2      Beta(a)**2    Pol.Int.      Depol.Int.     Dep.Ratio
       24.2680       49.0104     1435.1310      294.0626        0.2049

 ** Optical active Invariants (*E6) **

        a*Gm(Lon)     a*Gm(noL)     Beta(G)**2 (Lon/NoLon)   Beta(A)**2
       -0.0000       -0.0000       -0.0000       -0.0000       -0.0000

 ** Difference parameters L-R (1st line) and chirality number (2nd line,*E3) **

      DELTApar(Lon) DELTAperp(Lon) DELTA0(Lon)   DELTA180(Lon)
       -0.000000     -0.000000     -0.000000     -0.000000
       -0.000000     -0.000000     -0.000000     -0.000000



 CPU time statistics for ABACUS
 ------------------------------




 >>>> Total CPU  time used in ABACUS:   0.78 seconds
 >>>> Total wall time used in ABACUS:   0.78 seconds


                   .-------------------------------------------.
                   | End of Static Property Section (ABACUS) - |
                   `-------------------------------------------'


@  Geometry walk step no.   0:  Molecular energy =   -115.830282   Molecular gradient =  0.000000


     @@>>>>>>>>>> Geometry walk iteration number:    1 <<<<<<<<<<




 **************************************************************************************
 ****************** Output of molecule and basis set info suppressed ******************
 **************************************************************************************



                     .---------------------------------------.
                     | Starting in Integral Section (HERMIT) |
                     `---------------------------------------'


 Threshold for neglecting two-electron integrals:  1.00D-12
 Number of two-electron integrals written:      183417 ( 66.7% )
 Megabytes written:                              2.102

 >>>  Time used in TWOINT     is   0.14 seconds
 >>>> Total CPU  time used in HERMIT:   0.16 seconds
 >>>> Total wall time used in HERMIT:   0.16 seconds


                        .----------------------------------.
                        | End of Integral Section (HERMIT) |
                        `----------------------------------'



                   .--------------------------------------------.
                   | Starting in Wave Function Section (SIRIUS) |
                   `--------------------------------------------'


 **********************************************************************
 *SIRIUS* a direct, restricted step, second order MCSCF program       *
 **********************************************************************

 (Wave function specification suppressed here, see output above for initial geometry.)


 >>>>> DIIS optimization of Hartree-Fock <<<<<

 C1-DIIS algorithm; max error vectors =   10

 Iter      Total energy        Error norm    Delta(E)  DIIS dim.
 -----------------------------------------------------------------------------
     (Precalculated two-electron integrals are transformed to P-supermatrix elements.
      Threshold for discarding integrals :  1.00D-12 )
@  1    -115.830273692        1.60614D-02    8.67D-06    1
      Virial theorem: -V/T =      2.000454
@      MULPOP C1      0.12; C2     -0.48; C3     -0.48; H4      0.21; H5      0.21; H6      0.21; H7      0.21; 
 -----------------------------------------------------------------------------
@  2    -115.830282071        1.42222D-03   -8.38D-06    2
      Virial theorem: -V/T =      2.000454
@      MULPOP C1      0.12; C2     -0.48; C3     -0.48; H4      0.21; H5      0.21; H6      0.21; H7      0.21; 
 -----------------------------------------------------------------------------
@  3    -115.830282288        2.34102D-04   -2.17D-07    3
      Virial theorem: -V/T =      2.000454
@      MULPOP C1      0.12; C2     -0.48; C3     -0.48; H4      0.21; H5      0.21; H6      0.21; H7      0.21; 
 -----------------------------------------------------------------------------
@  4    -115.830282296        3.52228D-05   -8.07D-09    4
      Virial theorem: -V/T =      2.000454
@      MULPOP C1      0.12; C2     -0.48; C3     -0.48; H4      0.21; H5      0.21; H6      0.21; H7      0.21; 
 -----------------------------------------------------------------------------
@  5    -115.830282296        5.01759D-06   -2.22D-10    5
      Virial theorem: -V/T =      2.000454
@      MULPOP C1      0.12; C2     -0.48; C3     -0.48; H4      0.21; H5      0.21; H6      0.21; H7      0.21; 
 -----------------------------------------------------------------------------
@  6    -115.830282296        2.05306D-06   -4.35D-12    6
      Virial theorem: -V/T =      2.000454
@      MULPOP C1      0.12; C2     -0.48; C3     -0.48; H4      0.21; H5      0.21; H6      0.21; H7      0.21; 
 -----------------------------------------------------------------------------
@  7    -115.830282296        7.04075D-07   -3.98D-13    7
      Virial theorem: -V/T =      2.000454
@      MULPOP C1      0.12; C2     -0.48; C3     -0.48; H4      0.21; H5      0.21; H6      0.21; H7      0.21; 
 -----------------------------------------------------------------------------
@  8    -115.830282296        9.51926D-08   -5.68D-14    8
      Virial theorem: -V/T =      2.000454
@      MULPOP C1      0.12; C2     -0.48; C3     -0.48; H4      0.21; H5      0.21; H6      0.21; H7      0.21; 
 -----------------------------------------------------------------------------
@  9    -115.830282296        2.13756D-08   -2.27D-13    9
      Virial theorem: -V/T =      2.000454
@      MULPOP C1      0.12; C2     -0.48; C3     -0.48; H4      0.21; H5      0.21; H6      0.21; H7      0.21; 
 -----------------------------------------------------------------------------
@ 10    -115.830282296        3.53398D-09    8.53D-14   10

@ *** DIIS converged in  10 iterations !
@     Converged SCF energy, gradient:   -115.830282295854    3.53D-09
    - total time used in SIRFCK :              0.00 seconds


 *** SCF orbital energy analysis ***

 Only the five lowest virtual orbital energies printed in each symmetry.

 Number of electrons :   22
 Orbital occupations :   11

 Sym       Hartree-Fock orbital energies

  1    -11.28432256   -11.24835518   -11.24828136    -1.08209576    -0.96674164
        -0.71928634    -0.63171394    -0.61414422    -0.61414409    -0.37754648
        -0.37754648     0.15966493     0.15966504     0.26187335     0.29459336
         0.31111782

    E(LUMO) :     0.15966493 au (symmetry 1)
  - E(HOMO) :    -0.37754648 au (symmetry 1)
  ------------------------------------------
    gap     :     0.53721140 au

 >>> Writing SIRIFC interface file <<<


 Check ratio for geometry walk with converged SCF :



 >>> step control for geometry walk (ABACUS interface)


 (SIRSTP) Close to convergence, ratio set to one.
 Energy difference; actual and predicted:    7.05319D-08    0.00000D+00


 *** GEOMETRY WALK STEP ACCEPTED.


 >>>> CPU and wall time for SCF :       0.045       0.045


                       .-----------------------------------.
                       | >>> Final results from SIRIUS <<< |
                       `-----------------------------------'


@    Spin multiplicity:           1
@    Spatial symmetry:            1
@    Total charge of molecule:    0

@    Final HF energy:            -115.830282295854                 
@    Nuclear repulsion:            59.253262886985
@    Electronic energy:          -175.083545182839

@    Final gradient norm:           0.000000003534

 
     Date and time (Linux)  : Sun Sep  8 20:49:13 2013
     Host name              : lpqlx131.ups-tlse.fr                    



 >>>> Total CPU  time used in SIRIUS :      0.05 seconds
 >>>> Total wall time used in SIRIUS :      0.05 seconds

 
     Date and time (Linux)  : Sun Sep  8 20:49:13 2013
     Host name              : lpqlx131.ups-tlse.fr                    


                     .---------------------------------------.
                     | End of Wave Function Section (SIRIUS) |
                     `---------------------------------------'



        *****************************************************************
        ******** Output from **EACH  input processing for ABACUS ********
        *****************************************************************



 The following molecular properties will be calculated in this run:
 ------------------------------------------------------------------

 Default print level:       -2

      Geometry optimization
      Vibrational Raman intensities and optical activity
      Natural orbital connection is used
      for perturbation dependent basis sets.
      Linear response properties


 Changes of defaults for *ABALNR:
 --------------------------------

 Number of frequencies     :   3
 Frequencies               :  0.093215  0.088559  0.085645
 Print level                    :  -2
 Lin Resp convergence threshold :  5.00D-08
 Max. Lin Resp iterations       :  60

 Center of mass dipole origin  :    0.000300    0.000000    0.000000

 Center of mass gauge origin   :    0.000300    0.000000    0.000000


                 .------------------------------------------------.
                 | Starting in Static Property Section (ABACUS) - |
                 `------------------------------------------------'


 
     Date and time (Linux)  : Sun Sep  8 20:49:13 2013
     Host name              : lpqlx131.ups-tlse.fr                    

 Old LUGDI file opened in ORTREL.

 Integral transformation: Total CPU and WALL times (sec)       0.098       0.100
 >>>  Time used in LNRABA     is   0.38 seconds


   ***************************************************************************
   ************************ FINAL RESULTS from ABACUS ************************
   ***************************************************************************


 
     Date and time (Linux)  : Sun Sep  8 20:49:14 2013
     Host name              : lpqlx131.ups-tlse.fr                    


              ++++++++++++++++++++++++++++++++++++++++++++++++++++++
              ++++++++++++++++++ Optical rotation ++++++++++++++++++
              ++++++++++++++++++++++++++++++++++++++++++++++++++++++


          Optical rotation summary
          ------------------------

          Frequency:     0.093215 au  =   488.800028 nm

          Beta (London)                :    0.000000
          Beta (No-London)             :    0.000000
          Optical rotation (London)    :    0.000000
          Optical rotation (No-London) :    0.000000

          Frequency:     0.088559 au  =   514.500030 nm

          Beta (London)                :    0.000000
          Beta (No-London)             :    0.000000
          Optical rotation (London)    :    0.000000
          Optical rotation (No-London) :    0.000000

          Frequency:     0.085645 au  =   532.000031 nm

          Beta (London)                :    0.000000
          Beta (No-London)             :    0.000000
          Optical rotation (London)    :    0.000000
          Optical rotation (No-London) :    0.000000

 Largest deviation from orthonormality of OMOs:0.857092E-13
 - found for element   20  20


     ************************************************************************
     ****************** ABACUS - NUMERICAL DIFFERENTIATION ******************
     ************************************************************************

 Coordinate displaced in this calculation:    C1   x
 Displacement:                               +0.0010000000


                       +------------------------------------+
                       ! Analytical and numerical gradients !
                       +------------------------------------+


               analytical          numerical          difference
 ---------------------------------------------------------------------------
 C1   x    0.000000000000000   0.000070531896768  -0.000070531896768 forward 


                       +-----------------------------------+
                       ! Analytical and numerical Hessians !
                       +-----------------------------------+



  Analytical Hessian
  ------------------


     Zero matrix.
    ==== End of matrix output ====


  Numerical Hessian
  -----------------


     Zero matrix.
    ==== End of matrix output ====


  Difference between analytical and numerical Hessians
  ----------------------------------------------------


     Zero matrix.
    ==== End of matrix output ====


    *************************************************************************
    ************** ABACUS - Numerical differentiation for VROA **************
    *************************************************************************



 CPU time statistics for ABACUS
 ------------------------------

 REST       00:00:03     261 %



 >>>> Total CPU  time used in ABACUS:   0.96 seconds
 >>>> Total wall time used in ABACUS:   0.97 seconds


                   .-------------------------------------------.
                   | End of Static Property Section (ABACUS) - |
                   `-------------------------------------------'


@  Geometry walk step no.   1:  Molecular energy =   -115.830282   Molecular gradient =  0.000000


     @@>>>>>>>>>> Geometry walk iteration number:    2 <<<<<<<<<<




 **************************************************************************************
 ****************** Output of molecule and basis set info suppressed ******************
 **************************************************************************************



                     .---------------------------------------.
                     | Starting in Integral Section (HERMIT) |
                     `---------------------------------------'


 Threshold for neglecting two-electron integrals:  1.00D-12
 Number of two-electron integrals written:      183417 ( 66.7% )
 Megabytes written:                              2.102

 >>>  Time used in TWOINT     is   0.14 seconds
 >>>> Total CPU  time used in HERMIT:   0.16 seconds
 >>>> Total wall time used in HERMIT:   0.16 seconds


                        .----------------------------------.
                        | End of Integral Section (HERMIT) |
                        `----------------------------------'



                   .--------------------------------------------.
                   | Starting in Wave Function Section (SIRIUS) |
                   `--------------------------------------------'


 **********************************************************************
 *SIRIUS* a direct, restricted step, second order MCSCF program       *
 **********************************************************************

 (Wave function specification suppressed here, see output above for initial geometry.)


 >>>>> DIIS optimization of Hartree-Fock <<<<<

 C1-DIIS algorithm; max error vectors =   10

 Iter      Total energy        Error norm    Delta(E)  DIIS dim.
 -----------------------------------------------------------------------------
     (Precalculated two-electron integrals are transformed to P-supermatrix elements.
      Threshold for discarding integrals :  1.00D-12 )
@  1    -115.830247879        3.21228D-02    3.44D-05    1
      Virial theorem: -V/T =      2.000453
@      MULPOP C1      0.12; C2     -0.48; C3     -0.48; H4      0.22; H5      0.21; H6      0.21; H7      0.21; 
 -----------------------------------------------------------------------------
@  2    -115.830281397        2.84444D-03   -3.35D-05    2
      Virial theorem: -V/T =      2.000454
@      MULPOP C1      0.12; C2     -0.48; C3     -0.48; H4      0.21; H5      0.21; H6      0.21; H7      0.21; 
 -----------------------------------------------------------------------------
@  3    -115.830282263        4.68239D-04   -8.66D-07    3
      Virial theorem: -V/T =      2.000454
@      MULPOP C1      0.12; C2     -0.48; C3     -0.48; H4      0.21; H5      0.21; H6      0.21; H7      0.21; 
 -----------------------------------------------------------------------------
@  4    -115.830282295        7.06078D-05   -3.23D-08    4
      Virial theorem: -V/T =      2.000454
@      MULPOP C1      0.12; C2     -0.48; C3     -0.48; H4      0.21; H5      0.21; H6      0.21; H7      0.21; 
 -----------------------------------------------------------------------------
@  5    -115.830282296        1.14610D-05   -8.88D-10    5
      Virial theorem: -V/T =      2.000454
@      MULPOP C1      0.12; C2     -0.48; C3     -0.48; H4      0.21; H5      0.21; H6      0.21; H7      0.21; 
 -----------------------------------------------------------------------------
@  6    -115.830282296        5.59964D-06   -1.83D-11    6
      Virial theorem: -V/T =      2.000454
@      MULPOP C1      0.12; C2     -0.48; C3     -0.48; H4      0.21; H5      0.21; H6      0.21; H7      0.21; 
 -----------------------------------------------------------------------------
@  7    -115.830282296        1.42497D-06   -3.87D-12    7
      Virial theorem: -V/T =      2.000454
@      MULPOP C1      0.12; C2     -0.48; C3     -0.48; H4      0.21; H5      0.21; H6      0.21; H7      0.21; 
 -----------------------------------------------------------------------------
@  8    -115.830282296        2.64806D-07   -3.69D-13    8
      Virial theorem: -V/T =      2.000454
@      MULPOP C1      0.12; C2     -0.48; C3     -0.48; H4      0.21; H5      0.21; H6      0.21; H7      0.21; 
 -----------------------------------------------------------------------------
@  9    -115.830282296        5.38896D-08   -1.14D-13    9
      Virial theorem: -V/T =      2.000454
@      MULPOP C1      0.12; C2     -0.48; C3     -0.48; H4      0.21; H5      0.21; H6      0.21; H7      0.21; 
 -----------------------------------------------------------------------------
@ 10    -115.830282296        7.19330D-09   -2.84D-14   10

@ *** DIIS converged in  10 iterations !
@     Converged SCF energy, gradient:   -115.830282295854    7.19D-09
    - total time used in SIRFCK :              0.00 seconds


 *** SCF orbital energy analysis ***

 Only the five lowest virtual orbital energies printed in each symmetry.

 Number of electrons :   22
 Orbital occupations :   11

 Sym       Hartree-Fock orbital energies

  1    -11.28432256   -11.24835518   -11.24828136    -1.08209576    -0.96674164
        -0.71928634    -0.63171394    -0.61414422    -0.61414409    -0.37754648
        -0.37754648     0.15966493     0.15966504     0.26187335     0.29459336
         0.31111782

    E(LUMO) :     0.15966493 au (symmetry 1)
  - E(HOMO) :    -0.37754648 au (symmetry 1)
  ------------------------------------------
    gap     :     0.53721140 au

 >>> Writing SIRIFC interface file <<<


 Check ratio for geometry walk with converged SCF :



 >>> step control for geometry walk (ABACUS interface)


 (SIRSTP) Close to convergence, ratio set to one.
 Energy difference; actual and predicted:    0.00000D+00    0.00000D+00


 *** GEOMETRY WALK STEP ACCEPTED.


 >>>> CPU and wall time for SCF :       0.046       0.046


                       .-----------------------------------.
                       | >>> Final results from SIRIUS <<< |
                       `-----------------------------------'


@    Spin multiplicity:           1
@    Spatial symmetry:            1
@    Total charge of molecule:    0

@    Final HF energy:            -115.830282295854                 
@    Nuclear repulsion:            59.253262886985
@    Electronic energy:          -175.083545182839

@    Final gradient norm:           0.000000007193

 
     Date and time (Linux)  : Sun Sep  8 20:49:14 2013
     Host name              : lpqlx131.ups-tlse.fr                    



 >>>> Total CPU  time used in SIRIUS :      0.05 seconds
 >>>> Total wall time used in SIRIUS :      0.05 seconds

 
     Date and time (Linux)  : Sun Sep  8 20:49:14 2013
     Host name              : lpqlx131.ups-tlse.fr                    


                     .---------------------------------------.
                     | End of Wave Function Section (SIRIUS) |
                     `---------------------------------------'



        *****************************************************************
        ******** Output from **EACH  input processing for ABACUS ********
        *****************************************************************



 The following molecular properties will be calculated in this run:
 ------------------------------------------------------------------

 Default print level:       -2

      Geometry optimization
      Vibrational Raman intensities and optical activity
      Natural orbital connection is used
      for perturbation dependent basis sets.
      Linear response properties


 Changes of defaults for *ABALNR:
 --------------------------------

 Number of frequencies     :   3
 Frequencies               :  0.093215  0.088559  0.085645
 Print level                    :  -2
 Lin Resp convergence threshold :  5.00D-08
 Max. Lin Resp iterations       :  60

 Center of mass dipole origin  :   -0.000300    0.000000    0.000000

 Center of mass gauge origin   :   -0.000300    0.000000    0.000000


                 .------------------------------------------------.
                 | Starting in Static Property Section (ABACUS) - |
                 `------------------------------------------------'


 
     Date and time (Linux)  : Sun Sep  8 20:49:14 2013
     Host name              : lpqlx131.ups-tlse.fr                    

 Old LUGDI file opened in ORTREL.

 Integral transformation: Total CPU and WALL times (sec)       0.098       0.098
 >>>  Time used in LNRABA     is   0.38 seconds


   ***************************************************************************
   ************************ FINAL RESULTS from ABACUS ************************
   ***************************************************************************


 
     Date and time (Linux)  : Sun Sep  8 20:49:15 2013
     Host name              : lpqlx131.ups-tlse.fr                    


              ++++++++++++++++++++++++++++++++++++++++++++++++++++++
              ++++++++++++++++++ Optical rotation ++++++++++++++++++
              ++++++++++++++++++++++++++++++++++++++++++++++++++++++


          Optical rotation summary
          ------------------------

          Frequency:     0.093215 au  =   488.800028 nm

          Beta (London)                :   -0.000000
          Beta (No-London)             :   -0.000000
          Optical rotation (London)    :   -0.000000
          Optical rotation (No-London) :   -0.000000

          Frequency:     0.088559 au  =   514.500030 nm

          Beta (London)                :   -0.000000
          Beta (No-London)             :   -0.000000
          Optical rotation (London)    :   -0.000000
          Optical rotation (No-London) :   -0.000000

          Frequency:     0.085645 au  =   532.000031 nm

          Beta (London)                :   -0.000000
          Beta (No-London)             :   -0.000000
          Optical rotation (London)    :   -0.000000
          Optical rotation (No-London) :   -0.000000

 Largest deviation from orthonormality of OMOs:0.770495E-13
 - found for element   37  37


     ************************************************************************
     ****************** ABACUS - NUMERICAL DIFFERENTIATION ******************
     ************************************************************************

 Coordinate displaced in this calculation:    C1   x
 Displacement:                               -0.0010000000


                       +------------------------------------+
                       ! Analytical and numerical gradients !
                       +------------------------------------+


               analytical          numerical          difference
 ---------------------------------------------------------------------------
 C1   x    0.000000000000000   0.000000000000000   0.000000000000000 central 

 Largest difference: 0.0D+00




                       +-----------------------------------+
                       ! Analytical and numerical Hessians !
                       +-----------------------------------+



  Analytical Hessian
  ------------------


     Zero matrix.
    ==== End of matrix output ====


  Numerical Hessian
  -----------------


     Zero matrix.
    ==== End of matrix output ====


  Difference between analytical and numerical Hessians
  ----------------------------------------------------


     Zero matrix.
    ==== End of matrix output ====

  Largest difference: 0.0D+00




    *************************************************************************
    ************** ABACUS - Numerical differentiation for VROA **************
    *************************************************************************



 CPU time statistics for ABACUS
 ------------------------------

 REST       00:00:02     199 %



 >>>> Total CPU  time used in ABACUS:   0.97 seconds
 >>>> Total wall time used in ABACUS:   0.98 seconds


                   .-------------------------------------------.
                   | End of Static Property Section (ABACUS) - |
                   `-------------------------------------------'


@  Geometry walk step no.   2:  Molecular energy =   -115.830282   Molecular gradient =  0.000000


     @@>>>>>>>>>> Geometry walk iteration number:    3 <<<<<<<<<<




 **************************************************************************************
 ****************** Output of molecule and basis set info suppressed ******************
 **************************************************************************************



                     .---------------------------------------.
                     | Starting in Integral Section (HERMIT) |
                     `---------------------------------------'


 Threshold for neglecting two-electron integrals:  1.00D-12
 Number of two-electron integrals written:      146029 ( 53.1% )
 Megabytes written:                              1.676

 >>>  Time used in TWOINT     is   0.13 seconds
 >>>> Total CPU  time used in HERMIT:   0.15 seconds
 >>>> Total wall time used in HERMIT:   0.16 seconds


                        .----------------------------------.
                        | End of Integral Section (HERMIT) |
                        `----------------------------------'



                   .--------------------------------------------.
                   | Starting in Wave Function Section (SIRIUS) |
                   `--------------------------------------------'


 **********************************************************************
 *SIRIUS* a direct, restricted step, second order MCSCF program       *
 **********************************************************************

 (Wave function specification suppressed here, see output above for initial geometry.)


 >>>>> DIIS optimization of Hartree-Fock <<<<<

 C1-DIIS algorithm; max error vectors =   10

 Iter      Total energy        Error norm    Delta(E)  DIIS dim.
 -----------------------------------------------------------------------------
     (Precalculated two-electron integrals are transformed to P-supermatrix elements.
      Threshold for discarding integrals :  1.00D-12 )
@  1    -115.830242621        4.01833D-02    3.97D-05    1
      Virial theorem: -V/T =      2.000453
@      MULPOP C1      0.12; C2     -0.48; C3     -0.49; H4      0.21; H5      0.22; H6      0.21; H7      0.21; 
 -----------------------------------------------------------------------------
@  2    -115.830280906        2.82296D-03   -3.83D-05    2
      Virial theorem: -V/T =      2.000454
@      MULPOP C1      0.12; C2     -0.48; C3     -0.48; H4      0.21; H5      0.21; H6      0.21; H7      0.21; 
 -----------------------------------------------------------------------------
@  3    -115.830281562        8.88541D-04   -6.56D-07    3
      Virial theorem: -V/T =      2.000454
@      MULPOP C1      0.12; C2     -0.48; C3     -0.48; H4      0.21; H5      0.21; H6      0.21; H7      0.21; 
 -----------------------------------------------------------------------------
@  4    -115.830281615        2.90449D-04   -5.29D-08    4
      Virial theorem: -V/T =      2.000454
@      MULPOP C1      0.12; C2     -0.48; C3     -0.48; H4      0.21; H5      0.21; H6      0.21; H7      0.21; 
 -----------------------------------------------------------------------------
@  5    -115.830281623        4.27413D-05   -7.98D-09    5
      Virial theorem: -V/T =      2.000454
@      MULPOP C1      0.12; C2     -0.48; C3     -0.48; H4      0.21; H5      0.21; H6      0.21; H7      0.21; 
 -----------------------------------------------------------------------------
@  6    -115.830281623        9.88034D-06   -3.15D-10    6
      Virial theorem: -V/T =      2.000454
@      MULPOP C1      0.12; C2     -0.48; C3     -0.48; H4      0.21; H5      0.21; H6      0.21; H7      0.21; 
 -----------------------------------------------------------------------------
[...]
   9   1018.59      0.476905      0.99266723
  10    993.87      0.490739      0.99173803
  11    946.64      0.519193      0.98962307
  12    940.40      0.523167      0.98930583
  13    741.05      0.685607      0.97201380
  14    385.10      1.396090      0.84407676
  15    381.08      1.411735      0.84101771

   **** Difference Parameter R-L (A**4amu**-1) (London orbitals) ****

  Mode   Frequency     DELTApar      DELTAperp      DELTA0       DELTA180

    1     3381.71     -0.152376     -0.144274     -0.128370     -0.448727
    2     3381.69      0.152021      0.143936      0.128085      0.447658
    3     2509.95      0.056056      0.052693      0.047535      0.163237
    4     2486.31     -0.058759     -0.055199     -0.049916     -0.170879
    5     2141.12      0.003085      0.002876      0.002635      0.008869
    6     1491.76     -0.000069      0.000028     -0.000104      0.000218
    7     1421.52      0.000309     -0.000032      0.000520     -0.000650
    8     1157.29     -0.000088      0.001001     -0.000198      0.004202
    9     1018.59      0.018298      0.016104      0.009074      0.055343
   10      993.87     -0.009280     -0.014196     -0.003492     -0.053294
   11      946.64     -0.000255      0.001650      0.006435      0.000166
   12      940.40     -0.016218     -0.010795     -0.017313     -0.025868
   13      741.05      0.008776      0.008155      0.005903      0.026716
   14      385.10     -0.016761     -0.025778     -0.006195     -0.096918
   15      381.08      0.015396      0.023875      0.005581      0.089918

   *** Circular Intensity difference CID=(R-L)/(2*Int) (*E3) (London) ***

  Mode   Frequency      CID(par)      CID(perp)     CID(0)       CID(180)

    1     3381.71     -1.099886     -0.338086     -0.150408     -0.525764
    2     3381.69      0.966705      0.784535      0.349069      1.220002
    3     2509.95      0.755486      0.608712      0.274563      0.942861
    4     2486.31     -1.102597     -0.260934     -0.117980     -0.403888
    5     2141.12      1.299428      1.038363      0.475691      1.601036
    6     1491.76     -0.020287      0.002552     -0.004716      0.009820
    7     1421.52      0.286762     -0.025776      0.206947     -0.258498
    8     1157.29     -0.000996      0.005539     -0.000547      0.011625
    9     1018.59      1.011660      0.720262      0.202914      1.237611
   10      993.87     -1.293504     -1.696013     -0.208569     -3.183457
   11      946.64     -0.009537      0.033745      0.065791      0.001700
   12      940.40     -1.433616     -0.817925     -0.655881     -0.979970
   13      741.05      0.629414      0.500082      0.181001      0.819163
   14      385.10     -1.735466     -2.287841     -0.274897     -4.300786
   15      381.08      1.772860      2.352093      0.274924      4.429262

   **** Difference Parameter R-L (A**4amu**-1) (NoLondon) ****

  Mode   Frequency     DELTApar      DELTAperp      DELTA0       DELTA180

    1     3381.71     -0.131895     -0.120381     -0.114718     -0.366805
    2     3381.69      0.131589      0.120098      0.114463      0.365929
    3     2509.95      0.048708      0.044121      0.042636      0.133846
    4     2486.31     -0.051067     -0.046223     -0.044779     -0.140111
    5     2141.12      0.002689      0.002414      0.002371      0.007285
    6     1491.76     -0.000086      0.000008     -0.000120      0.000150
    7     1421.52      0.000343      0.000008      0.000543     -0.000513
    8     1157.29     -0.000287      0.000744     -0.000433      0.003407
    9     1018.59      0.015740      0.013372      0.008377      0.045111
   10      993.87     -0.007189     -0.011757     -0.002098     -0.044929
   11      946.64     -0.000518      0.001062      0.005135     -0.000886
   12      940.40     -0.014431     -0.008710     -0.016122     -0.018719
   13      741.05      0.007743      0.007006      0.005437      0.022587
   14      385.10     -0.014446     -0.023077     -0.004651     -0.087658
   15      381.08      0.013251      0.021371      0.004145      0.081338

   *** Circular Intensity difference CID=(R-L)/(2*Int) (*E3)  (NoLon) ***

  Mode   Frequency      CID(par)    CID(perp)     CID(0)       CID(180)

    1     3381.71     -0.952054     -0.282095     -0.134413     -0.429778
    2     3381.69      0.836776      0.654606      0.311947      0.997266
    3     2509.95      0.656458      0.509684      0.246269      0.773100
    4     2486.31     -0.958258     -0.218503     -0.105840     -0.331165
    5     2141.12      1.132691      0.871626      0.428052      1.315200
    6     1491.76     -0.025230      0.000695     -0.005398      0.006788
    7     1421.52      0.318554      0.006016      0.216030     -0.203997
    8     1157.29     -0.003242      0.004115     -0.001197      0.009427
    9     1018.59      0.870228      0.598057      0.187327      1.008788
   10      993.87     -1.002044     -1.404554     -0.125295     -2.683812
   11      946.64     -0.019369      0.021720      0.052500     -0.009059
   12      940.40     -1.275629     -0.659938     -0.610742     -0.709135
   13      741.05      0.555364      0.429626      0.166714      0.692539
   14      385.10     -1.495771     -2.048146     -0.206413     -3.889880
   15      381.08      1.525884      2.105411      0.204170      4.006653

     Raman related properties for freq.  0.085645 au  =   532.00 nm
     ---------------------------------------------------------------

 Mode    Freq.     Alpha**2   Beta(a)**2   Pol.Int.   Depol.Int.  Dep. Ratio 

    1   3381.71    2.922576   11.415876  177.179446   34.247629    0.193293
    2   3381.69    0.000000   12.992094   51.968376   38.976282    0.750000
    3   2509.95    0.000000    6.134001   24.536004   18.402003    0.750000
    4   2486.31    1.649465    4.396240   91.810894   13.188720    0.143651
    5   2141.12    0.000000    0.196179    0.784718    0.588538    0.750000
    6   1491.76    0.076782    0.294190    4.631956    0.882571    0.190540
    7   1421.52    0.000000    0.089158    0.356630    0.267473    0.750000
    8   1157.29    0.842894    7.211751   66.777226   21.635253    0.323991
    9   1018.59    0.013683    1.481209    6.540581    4.443627    0.679393
   10    993.87    0.000000    0.584286    2.337144    1.752858    0.750000
   11    946.64    0.192616    2.190054   17.427951    6.570161    0.376990
   12    940.40    0.000000    0.923187    3.692746    2.769560    0.750000
   13    741.05    0.000447    1.150111    4.620543    3.450332    0.746737
   14    385.10    0.000000    0.795900    3.183601    2.387701    0.750000
   15    381.08    0.000203    0.715772    2.872239    2.147317    0.747611

 Mode    Freq.   ConverFac(*E13)  BoltzFac

    1   3381.71    0.081454    0.99999992
    2   3381.69    0.081455    0.99999992
    3   2509.95    0.129437    0.99999451
    4   2486.31    0.131238    0.99999384
    5   2141.12    0.162277    0.99996744
    6   1491.76    0.261234    0.99925247
    7   1421.52    0.277494    0.99895087
    8   1157.29    0.356637    0.99624521
    9   1018.59    0.414833    0.99266723
   10    993.87    0.426929    0.99173803
   11    946.64    0.451807    0.98962307
   12    940.40    0.455282    0.98930583
   13    741.05    0.597328    0.97201380
   14    385.10    1.218743    0.84407676
   15    381.08    1.232428    0.84101771

  Raman Optical Activity properties for freq.   0.085645 au  =   532.00 nm
  ------------------------------------------------------------------------

   **** Raman invariants and Intensity Parameters (A**4amu**-1) ****

 Mode  Freq.     Alpha**2   Beta(a)**2   Pol.Int. DepolInt. 180/0Int.  DepRatio

   1   3381.71    2.922576   11.415876  211.4271   68.4953  422.8541    0.3240
   2   3381.69    0.000000   12.992094   90.9447   77.9526  181.8893    0.8571
   3   2509.95    0.000000    6.134001   42.9380   36.8040   85.8760    0.8571
   4   2486.31    1.649465    4.396240  104.9996   26.3774  209.9992    0.2512
   5   2141.12    0.000000    0.196179    1.3733    1.1771    2.7465    0.8571
   6   1491.76    0.076782    0.294190    5.5145    1.7651   11.0291    0.3201
   7   1421.52    0.000000    0.089158    0.6241    0.5349    1.2482    0.8571
   8   1157.29    0.842894    7.211751   88.4125   43.2705  176.8250    0.4894
   9   1018.59    0.013683    1.481209   10.9842    8.8873   21.9684    0.8091
  10    993.87    0.000000    0.584286    4.0900    3.5057    8.1800    0.8571
  11    946.64    0.192616    2.190054   23.9981   13.1403   47.9962    0.5476
  12    940.40    0.000000    0.923187    6.4623    5.5391   12.9246    0.8571
  13    741.05    0.000447    1.150111    8.0709    6.9007   16.1418    0.8550
  14    385.10    0.000000    0.795900    5.5713    4.7754   11.1426    0.8571
  15    381.08    0.000203    0.715772    5.0196    4.2946   10.0391    0.8556

   **** ROA invariants (*E6, in A**4amu**-1) ****

 Mode   Freq.     a*Gm(Lon)  a*Gm(noL)   Beta(Gm)**2 (L/noL)    Beta(A)**2

   1  3381.71      0.0132      0.0111    -5268.03    -4451.30     2395.21
   2  3381.69      0.0000      0.0000     5255.65     4440.83    -2389.99
   3  2509.95      0.0000      0.0000     1928.54     1635.49     -908.89
   4  2486.31     -0.0679     -0.0567    -2020.35    -1713.57      956.15
   5  2141.12      0.0000      0.0000      105.55       89.76      -51.74
   6  1491.76      0.0314      0.0263       -0.25       -0.91        7.28
   7  1421.52      0.0000      0.0000        2.75        4.10      -28.03
   8  1157.29      0.8269      0.6913       19.30       11.48       67.82
   9  1018.59     -8.1368     -6.8022      632.07      531.41     -264.16
  10   993.87     -0.0000     -0.0000     -447.11     -364.75     -241.86
  11   946.64      9.0762      7.5876       -3.77      -14.11       17.37
  12   940.40      0.0000      0.0000     -444.96     -374.63      580.33
  13   741.05     -1.7948     -1.5004      305.19      264.44     -124.45
  14   385.10      0.0000      0.0000     -815.82     -723.91     -448.83
  15   381.08      0.0524      0.0438      753.90      668.73      425.65

   **** Conversion Factor to Cross Section (*E13) and Boltzmann Factor

 Mode  Freq.     ConverFac(*E13)   BoltzFac

   1   3381.71      0.081454      0.99999992
   2   3381.69      0.081455      0.99999992
   3   2509.95      0.129437      0.99999451
   4   2486.31      0.131238      0.99999384
   5   2141.12      0.162277      0.99996744
   6   1491.76      0.261234      0.99925247
   7   1421.52      0.277494      0.99895087
   8   1157.29      0.356637      0.99624521
   9   1018.59      0.414833      0.99266723
  10    993.87      0.426929      0.99173803
  11    946.64      0.451807      0.98962307
  12    940.40      0.455282      0.98930583
  13    741.05      0.597328      0.97201380
  14    385.10      1.218743      0.84407676
  15    381.08      1.232428      0.84101771

   **** Difference Parameter R-L (A**4amu**-1) (London orbitals) ****

  Mode   Frequency     DELTApar      DELTAperp      DELTA0       DELTA180

    1     3381.71     -0.145594     -0.137922     -0.122602     -0.429084
    2     3381.69      0.145255      0.137598      0.122330      0.428062
    3     2509.95      0.053556      0.050363      0.045399      0.156055
    4     2486.31     -0.056138     -0.052757     -0.047673     -0.163357
    5     2141.12      0.002947      0.002748      0.002517      0.008477
    6     1491.76     -0.000064      0.000028     -0.000098      0.000209
    7     1421.52      0.000290     -0.000035      0.000492     -0.000633
    8     1157.29     -0.000079      0.000960     -0.000181      0.004023
    9     1018.59      0.017283      0.015177      0.008481      0.052226
   10      993.87     -0.008796     -0.013487     -0.003284     -0.050662
   11      946.64     -0.000229      0.001598      0.006197      0.000194
   12      940.40     -0.015322     -0.010138     -0.016405     -0.024146
   13      741.05      0.008320      0.007724      0.005582      0.025316
   14      385.10     -0.015989     -0.024638     -0.005872     -0.092681
   15      381.08      0.014688      0.022821      0.005290      0.085995

   *** Circular Intensity difference CID=(R-L)/(2*Int) (*E3) (London) ***

  Mode   Frequency      CID(par)      CID(perp)     CID(0)       CID(180)

    1     3381.71     -1.062807     -0.326168     -0.144970     -0.507367
    2     3381.69      0.931692      0.756494      0.336277      1.176711
    3     2509.95      0.727583      0.586467      0.264327      0.908607
    4     2486.31     -1.064122     -0.251227     -0.113507     -0.388946
    5     2141.12      1.251846      1.000662      0.458143      1.543182
    6     1491.76     -0.018196      0.002525     -0.004439      0.009488
    7     1421.52      0.271312     -0.028054      0.197264     -0.253373
    8     1157.29     -0.000918      0.005432     -0.000512      0.011375
    9     1018.59      0.972342      0.690841      0.193030      1.188652
   10      993.87     -1.254500     -1.648730     -0.200737     -3.096723
   11      946.64     -0.008731      0.033287      0.064553      0.002020
   12      940.40     -1.383038     -0.784360     -0.634624     -0.934096
   13      741.05      0.602856      0.478541      0.172906      0.784176
   14      385.10     -1.674093     -2.211169     -0.263482     -4.158857
   15      381.08      1.710084      2.273227      0.263455      4.282998

   **** Difference Parameter R-L (A**4amu**-1) (NoLondon) ****

  Mode   Frequency     DELTApar      DELTAperp      DELTA0       DELTA180

    1     3381.71     -0.125993     -0.115054     -0.109536     -0.350678
    2     3381.69      0.125700      0.114783      0.109293      0.349840
    3     2509.95      0.046523      0.042158      0.040710      0.127922
    4     2486.31     -0.048775     -0.044166     -0.042756     -0.133906
    5     2141.12      0.002568      0.002306      0.002264      0.006961
    6     1491.76     -0.000080      0.000008     -0.000112      0.000146
    7     1421.52      0.000322      0.000003      0.000514     -0.000504
    8     1157.29     -0.000267      0.000717     -0.000404      0.003272
    9     1018.59      0.014867      0.012598      0.007831      0.042562
   10      993.87     -0.006819     -0.011181     -0.001966     -0.042756
   11      946.64     -0.000477      0.001040      0.004959     -0.000798
   12      940.40     -0.013634     -0.008168     -0.015279     -0.017394
   13      741.05      0.007342      0.006636      0.005142      0.021404
   14      385.10     -0.013783     -0.022065     -0.004401     -0.083858
   15      381.08      0.012644      0.020435      0.003921      0.077819

   *** Circular Intensity difference CID=(R-L)/(2*Int) (*E3)  (NoLon) ***

  Mode   Frequency      CID(par)    CID(perp)     CID(0)       CID(180)

    1     3381.71     -0.919720     -0.272088     -0.129520     -0.414656
    2     3381.69      0.806259      0.631062      0.300439      0.961684
    3     2509.95      0.632035      0.490918      0.237028      0.744809
    4     2486.31     -0.924556     -0.210313     -0.101801     -0.318824
    5     2141.12      1.090882      0.839699      0.412154      1.267244
    6     1491.76     -0.022678      0.000767     -0.005085      0.006618
    7     1421.52      0.301425      0.002059      0.205868     -0.201750
    8     1157.29     -0.003087      0.004055     -0.001142      0.009252
    9     1018.59      0.836428      0.573481      0.178244      0.968718
   10      993.87     -0.972584     -1.366814     -0.120189     -2.613439
   11      946.64     -0.018169      0.021675      0.051665     -0.008315
   12      940.40     -1.230677     -0.632000     -0.591093     -0.672907
   13      741.05      0.531988      0.411132      0.159274      0.662990
   14      385.10     -1.443133     -1.980209     -0.197493     -3.762924
   15      381.08      1.472110      2.035533      0.195279      3.875788

   **** For definitions, see the DALTON manual and references therein. ****



                              Total Molecular Energy
                              ----------------------

             electronic     vibrational           total    energy 

            -115.830282        0.053259     -115.777023    Hartrees
           -25421808.29        11689.04    -25410119.25    cm-1
             -304112.36          139.83      -303972.53    kJ/mol
              -72684.60           33.42       -72651.18    kcal/mol


                          Molecular Partition Functions
                          -----------------------------

 Qtran is evaluated per mol at 1 atm. pressure.
 Qrot does not include symmetry numbers.
 Qvib does not include zero point energies
 (i.e., energy scale has vibrational ground state as zero).


 Temp.(K)  Translational     Rotational    Vibrational      Total

    50.00     1.2341D+05         758.98         1.0000   9.366692D+07
   100.00     6.9810D+05        2144.09         1.0082   1.509001D+09
   200.00     3.9490D+06        6060.70         1.1505   2.753582D+10
   273.15     8.6084D+06        9671.83         1.3950   1.161434D+11
   298.15     1.0715D+07       11029.17         1.5121   1.786984D+11
   300.00     1.0882D+07       11131.95         1.5215   1.843194D+11
   400.00     2.2339D+07       17137.02         2.2320   8.544803D+11
   500.00     3.9025D+07       23948.24         3.5079   3.278418D+12
   600.00     6.1560D+07       31479.50         5.7507   1.114399D+13
   700.00     9.0503D+07       39667.55         9.6533   3.465568D+13
   800.00     1.2637D+08       48463.39        16.3922   1.003905D+14
   900.00     1.6964D+08       57827.60        27.9347   2.740332D+14
  1000.00     2.2076D+08       67727.57        47.5262   7.105857D+14
  1500.00     6.0834D+08      124418.41       605.8778   4.585803D+16
  2000.00     1.2488D+09      191550.77      5976.5451   1.429640D+18


                                +------------------+
                                ! Polarizabilities !
                                +------------------+


 Vibrational polarizabilities calculated acc. to Rinaldi et al.,
 Chem.Phys.Lett. 128 (1986) 177-181.


                        Vibrational Polarizabilities (au)
                        ---------------------------------

                         Ex          Ey          Ez

            Ex       4.895882    0.000000    0.000000
            Ey       0.000000    0.750396   -0.000000
            Ez       0.000000   -0.000000    4.895883



                   Vibrational Polarizabilities (angstroms**3)
                   -------------------------------------------

                         Ex          Ey          Ez

            Ex       0.725495    0.000000    0.000000
            Ey       0.000000    0.111197   -0.000000
            Ez       0.000000   -0.000000    0.725495



                   Vibrational Polarizabilities (angstroms**3)
                   -------------------------------------------

               (Along principal axes of moments of inertia)

                         EA          EB          EC

            EA       0.112221    0.000000    0.025054
            EB       0.000000    0.725495    0.000000
            EC       0.025054    0.000000    0.724471



 Vibrational mean polarization :    1.3151 cm**3 mol**-1
 >>>  Time used in VIBCTL     is   0.40 seconds


 CPU time statistics for ABACUS
 ------------------------------

 REST       00:00:04     134 %

 TOTAL      00:00:03     100 %


 >>>> Total CPU  time used in ABACUS:   2.65 seconds
 >>>> Total wall time used in ABACUS:   2.68 seconds


                   .-------------------------------------------.
                   | End of Static Property Section (ABACUS) - |
                   `-------------------------------------------'

 >>>> Total CPU  time used in DALTON:  52.04 seconds
 >>>> Total wall time used in DALTON:  53.21 seconds

 
     Date and time (Linux)  : Sun Sep  8 20:50:05 2013
     Host name              : lpqlx131.ups-tlse.fr                    
