

     ************************************************************************
     *************** Dalton - An Electronic Structure Program ***************
     ************************************************************************

    This is output from DALTON (Release Dalton2013 patch 0)
   ----------------------------------------------------------------------------
    NOTE:
     
    Dalton is an experimental code for the evaluation of molecular
    properties using (MC)SCF, DFT, CI, and CC wave functions.
    The authors accept no responsibility for the performance of
    the code or for the correctness of the results.
     
    The code (in whole or part) is provided under a licence and
    is not to be reproduced for further distribution without
    the written permission of the authors or their representatives.
     
    See the home page "http://daltonprogram.org" for further information.
     
    If results obtained with this code are published,
    the appropriate citations would be both of:
     
       K. Aidas, C. Angeli, K. L. Bak, V. Bakken, R. Bast,
       L. Boman, O. Christiansen, R. Cimiraglia, S. Coriani,
       P. Dahle, E. K. Dalskov, U. Ekstroem, T. Enevoldsen,
       J. J. Eriksen, P. Ettenhuber, B. Fernandez, L. Ferrighi,
       H. Fliegl, L. Frediani, K. Hald, A. Halkier, C. Haettig,
       H. Heiberg, T. Helgaker, A. C. Hennum, H. Hettema,
       E. Hjertenaes, S. Hoest, I.-M. Hoeyvik, M. F. Iozzi,
       B. Jansik, H. J. Aa. Jensen, D. Jonsson, P. Joergensen,
       J. Kauczor, S. Kirpekar, T. Kjaergaard, W. Klopper,
       S. Knecht, R. Kobayashi, H. Koch, J. Kongsted, A. Krapp,
       K. Kristensen, A. Ligabue, O. B. Lutnaes, J. I. Melo,
       K. V. Mikkelsen, R. H. Myhre, C. Neiss, C. B. Nielsen,
       P. Norman, J. Olsen, J. M. H. Olsen, A. Osted,
       M. J. Packer, F. Pawlowski, T. B. Pedersen, P. F. Provasi,
       S. Reine, Z. Rinkevicius, T. A. Ruden, K. Ruud, V. Rybkin,
       P. Salek, C. C. M. Samson, A. Sanchez de Meras, T. Saue,
       S. P. A. Sauer, B. Schimmelpfennig, K. Sneskov,
       A. H. Steindal, K. O. Sylvester-Hvid, P. R. Taylor,
       A. M. Teale, E. I. Tellgren, D. P. Tew, A. J. Thorvaldsen,
       L. Thoegersen, O. Vahtras, M. A. Watson, D. J. D. Wilson,
       M. Ziolkowski and H. Agren.
       The Dalton quantum chemistry program system.
       WIREs Comput. Mol. Sci. 2013. doi: 10.1002/wcms.1172
    
    and
    
       Dalton, a Molecular Electronic Structure Program,
       Release DALTON2013.0 (2013), see http://daltonprogram.org
   ----------------------------------------------------------------------------

    Authors in alphabetical order (major contribution(s) in parenthesis):

  Kestutis Aidas,           Vilnius University,           Lithuania   (QM/MM)
  Celestino Angeli,         University of Ferrara,        Italy       (NEVPT2)
  Keld L. Bak,              UNI-C,                        Denmark     (AOSOPPA, non-adiabatic coupling, magnetic properties)
  Vebjoern Bakken,          University of Oslo,           Norway      (DALTON; geometry optimizer, symmetry detection)
  Radovan Bast,             KTH Stockholm                 Sweden      (DALTON installation and execution frameworks)
  Linus Boman,              NTNU,                         Norway      (Cholesky decomposition and subsystems)
  Ove Christiansen,         Aarhus University,            Denmark     (CC module)
  Renzo Cimiraglia,         University of Ferrara,        Italy       (NEVPT2)
  Sonia Coriani,            University of Trieste,        Italy       (CC module, MCD in RESPONS)
  Paal Dahle,               University of Oslo,           Norway      (Parallelization)
  Erik K. Dalskov,          UNI-C,                        Denmark     (SOPPA)
  Thomas Enevoldsen,        Univ. of Southern Denmark,    Denmark     (SOPPA)
  Janus J. Eriksen,         Aarhus University,            Denmark     (PE-MP2/SOPPA, TDA)
  Berta Fernandez,          U. of Santiago de Compostela, Spain       (doublet spin, ESR in RESPONS)
  Lara Ferrighi,            Aarhus University,            Denmark     (PCM Cubic response)
  Heike Fliegl,             University of Oslo,           Norway      (CCSD(R12))
  Luca Frediani,            UiT The Arctic U. of Norway,  Norway      (PCM)
  Bin Gao,                  UiT The Arctic U. of Norway,  Norway      (Gen1Int library)
  Christof Haettig,         Ruhr-University Bochum,       Germany     (CC module)
  Kasper Hald,              Aarhus University,            Denmark     (CC module)
  Asger Halkier,            Aarhus University,            Denmark     (CC module)
  Hanne Heiberg,            University of Oslo,           Norway      (geometry analysis, selected one-electron integrals)
  Trygve Helgaker,          University of Oslo,           Norway      (DALTON; ABACUS, ERI, DFT modules, London, and much more)
  Alf Christian Hennum,     University of Oslo,           Norway      (Parity violation)
  Hinne Hettema,            University of Auckland,       New Zealand (quadratic response in RESPONS; SIRIUS supersymmetry)
  Eirik Hjertenaes,         NTNU,                         Norway      (Cholesky decomposition)
  Maria Francesca Iozzi,    University of Oslo,           Norway      (RPA)
  Brano Jansik              Technical Univ. of Ostrava    Czech Rep.  (DFT cubic response)
  Hans Joergen Aa. Jensen,  Univ. of Southern Denmark,    Denmark     (DALTON; SIRIUS, RESPONS, ABACUS modules, London, and much more)
  Dan Jonsson,              UiT The Arctic U. of Norway,  Norway      (cubic response in RESPONS module)
  Poul Joergensen,          Aarhus University,            Denmark     (RESPONS, ABACUS, and CC modules)
  Joanna Kauczor,           Linkoeping University,        Sweden      (Complex polarization propagator (CPP) module)
  Sheela Kirpekar,          Univ. of Southern Denmark,    Denmark     (Mass-velocity & Darwin integrals)
  Wim Klopper,              KIT Karlsruhe,                Germany     (R12 code in CC, SIRIUS, and ABACUS modules)
  Stefan Knecht,            ETH Zurich,                   Switzerland (Parallel CI and MCSCF)
  Rika Kobayashi,           Australian National Univ.,    Australia   (DIIS in CC, London in MCSCF)
  Henrik Koch,              NTNU,                         Norway      (CC module, Cholesky decomposition)
  Jacob Kongsted,           Univ. of Southern Denmark,    Denmark     (Polarizable embedding, QM/MM)
  Andrea Ligabue,           University of Modena,         Italy       (CTOCD, AOSOPPA)
  Ola B. Lutnaes,           University of Oslo,           Norway      (DFT Hessian)
  Juan I. Melo,             University of Buenos Aires,   Argentina   (LRESC, Relativistic Effects on NMR Shieldings)
  Kurt V. Mikkelsen,        University of Copenhagen,     Denmark     (MC-SCRF and QM/MM)
  Rolf H. Myhre,            NTNU,                         Norway      (Cholesky, subsystems and ECC2)
  Christian Neiss,          Univ. Erlangen-Nuernberg,     Germany     (CCSD(R12))
  Christian B. Nielsen,     University of Copenhagen,     Denmark     (QM/MM)
  Patrick Norman,           Linkoeping University,        Sweden      (Cubic response and complex response in RESPONS)
  Jeppe Olsen,              Aarhus University,            Denmark     (SIRIUS CI/density modules)
  Jogvan Magnus H. Olsen,   Univ. of Southern Denmark,    Denmark     (Polarizable embedding, PE library, QM/MM)
  Anders Osted,             Copenhagen University,        Denmark     (QM/MM)
  Martin J. Packer,         University of Sheffield,      UK          (SOPPA)
  Filip Pawlowski,          Kazimierz Wielki University   Poland      (CC3)
  Thomas B. Pedersen,       University of Oslo,           Norway      (Cholesky decomposition)
  Patricio F. Provasi,      University of Northeastern,   Argentina   (Analysis of coupling constants in localized orbitals)
  Zilvinas Rinkevicius,     KTH Stockholm,                Sweden      (open-shell DFT, ESR)
  Elias Rudberg,            KTH Stockholm,                Sweden      (DFT grid and basis info)
  Torgeir A. Ruden,         University of Oslo,           Norway      (Numerical derivatives in ABACUS)
  Kenneth Ruud,             UiT The Arctic U. of Norway,  Norway      (DALTON; ABACUS magnetic properties and  much more)
  Pawel Salek,              KTH Stockholm,                Sweden      (DALTON; DFT code)
  Claire C. M. Samson       University of Karlsruhe       Germany     (Boys localization, r12 integrals in ERI)
  Alfredo Sanchez de Meras, University of Valencia,       Spain       (CC module, Cholesky decomposition)
  Trond Saue,               Paul Sabatier University,     France      (direct Fock matrix construction)
  Stephan P. A. Sauer,      University of Copenhagen,     Denmark     (SOPPA(CCSD), SOPPA prop., AOSOPPA, vibrational g-factors)
  Bernd Schimmelpfennig,    Forschungszentrum Karlsruhe,  Germany     (AMFI module)
  Kristian Sneskov,         Aarhus University,            Denmark     (QM/MM, PE-CC)
  Arnfinn H. Steindal,      UiT The Arctic U. of Norway,  Norway      (parallel QM/MM)
  K. O. Sylvester-Hvid,     University of Copenhagen,     Denmark     (MC-SCRF)
  Peter R. Taylor,          VLSCI/Univ. of Melbourne,     Australia   (Symmetry handling ABACUS, integral transformation)
  Andrew M. Teale,          University of Nottingham,     England     (DFT-AC, DFT-D)
  David P. Tew,             University of Bristol,        England     (CCSD(R12))
  Olav Vahtras,             KTH Stockholm,                Sweden      (triplet response, spin-orbit, ESR, TDDFT, open-shell DFT)
  David J. Wilson,          La Trobe University,          Australia   (DFT Hessian and DFT magnetizabilities)
  Hans Agren,               KTH Stockholm,                Sweden      (SIRIUS module, RESPONS, MC-SCRF solvation model)
 --------------------------------------------------------------------------------

     Date and time (Linux)  : Sun Sep  8 20:59:00 2013
     Host name              : lpqlx131.ups-tlse.fr                    

 * Work memory size             :    64000000 =  488.28 megabytes.

 * Directories for basis set searches:
   1) /home/bast/DALTON-2013.0-Source/build/test_r12_prop_n2
   2) /home/bast/DALTON-2013.0-Source/build/basis


Compilation information
-----------------------

 Who compiled             | bast
 Host                     | lpqlx131.ups-tlse.fr
 System                   | Linux-3.8.5-201.fc18.x86_64
 CMake generator          | Unix Makefiles
 Processor                | x86_64
 64-bit integers          | OFF
 MPI                      | OFF
 Fortran compiler         | /usr/bin/gfortran
 Fortran compiler version | GNU Fortran (GCC) 4.7.2 20121109 (Red Hat 4.7.2-8)
 C compiler               | /usr/bin/gcc
 C compiler version       | gcc (GCC) 4.7.2 20121109 (Red Hat 4.7.2-8)
 C++ compiler             | /usr/bin/g++
 C++ compiler version     | g++ (GCC) 4.7.2 20121109 (Red Hat 4.7.2-8)
 Static linking           | OFF
 Last Git revision        | f34203295a86316e27f9e7b44f9b6769c4a046c0
 Configuration time       | 2013-09-08 20:31:27.952056


   Content of the .dal input file
 ----------------------------------

**DALTON                                          
.RUN WAVE FUNCTION                                
**INTEGRAL                                        
.THETA                                            
.SECMOM                                           
**WAVE FUNCTION                                   
.CC                                               
*SCF INP                                          
.THRESH                                           
 1.0D-10                                          
*CC INP                                           
.MP2                                              
.PRINT                                            
 3                                                
.THRENR                                           
1.0D-10                                           
.FROIMP                                           
1 0 0 0 1 0 0 0                                   
0 0 0 0 0 0 0 0                                   
.THRLEQ                                           
1.0D-07                                           
*CCFOP                                            
.QUADRU                                           
.SECMOM                                           
*R12                                              
.NO 2                                             
.R12XXL                                           
.R12PRP                                           
.NO RXR                                           
*ORBITALS                                         
.MOSTART                                          
 H1DIAG                                           
**END OF DALTON INPUT                             


   Content of the .mol file
 ----------------------------

BASIS                                                                          
Ahlrichs-VTZ Ahlrichs-VTZ                                                      
MP2-R12 first order property calculation on N2                                 
small basis                                                                    
    2    3  X  Y  Z   1.00D-15                                                 
 1      7.    1                                                                
N     0.0000000000000000  0.0000000000000000 1.03715750000000000       *       
 2      7.    1                                                                
N     0.0000000000000000  0.0000000000000000 1.03715750000000000       *       


       *******************************************************************
       *********** Output from DALTON general input processing ***********
       *******************************************************************

 --------------------------------------------------------------------------------
   Overall default print level:    0
   Print level for DALTON.STAT:    1

    HERMIT 1- and 2-electron integral sections will be executed
    "Old" integral transformation used (limited to max 255 basis functions)
    Wave function sections will be executed (SIRIUS module)
 --------------------------------------------------------------------------------


   ****************************************************************************
   *************** Output of molecule and basis set information ***************
   ****************************************************************************


 INFO: basis set line contains more than one basis set:
     Ahlrichs-VTZ Ahlrichs-VTZ
 INFO: ".R12AUX" activated automatically.

    The two title cards from your ".mol" input:
    ------------------------------------------------------------------------
 1: MP2-R12 first order property calculation on N2                          
 2: small basis                                                             
    ------------------------------------------------------------------------

  Atomic type no.    1
  --------------------
  Nuclear charge:   7.00000
  Number of symmetry independent centers:    1
  Number of basis sets to read;    1
  Basis set file used for this atomic type with Z =   7 :
     "/home/bast/DALTON-2013.0-Source/build/basis/Ahlrichs-VTZ"

  Atomic type no.    2
  --------------------
  Nuclear charge:   7.00000
  Number of symmetry independent centers:    1
  This is an auxiliary basis for R12, MBSI:    2
  Basis set file used for this atomic type with Z =   7 :
     "/home/bast/DALTON-2013.0-Source/build/basis/Ahlrichs-VTZ"


                         SYMGRP: Point group information
                         -------------------------------

Point group: D2h

   * The point group was generated by:

      Reflection in the yz-plane
      Reflection in the xz-plane
      Reflection in the xy-plane

   * Group multiplication table

        |  E   C2z  C2y  C2x   i   Oxy  Oxz  Oyz
   -----+----------------------------------------
     E  |  E   C2z  C2y  C2x   i   Oxy  Oxz  Oyz
    C2z | C2z   E   C2x  C2y  Oxy   i   Oyz  Oxz
    C2y | C2y  C2x   E   C2z  Oxz  Oyz   i   Oxy
    C2x | C2x  C2y  C2z   E   Oyz  Oxz  Oxy   i 
     i  |  i   Oxy  Oxz  Oyz   E   C2z  C2y  C2x
    Oxy | Oxy   i   Oyz  Oxz  C2z   E   C2x  C2y
    Oxz | Oxz  Oyz   i   Oxy  C2y  C2x   E   C2z
    Oyz | Oyz  Oxz  Oxy   i   C2x  C2y  C2z   E 

   * Character table

        |  E   C2z  C2y  C2x   i   Oxy  Oxz  Oyz
   -----+----------------------------------------
    Ag  |   1    1    1    1    1    1    1    1
    B3u |   1   -1   -1    1   -1    1    1   -1
    B2u |   1   -1    1   -1   -1    1   -1    1
    B1g |   1    1   -1   -1    1    1   -1   -1
    B1u |   1    1   -1   -1   -1   -1    1    1
    B2g |   1   -1    1   -1    1   -1    1   -1
    B3g |   1   -1   -1    1    1   -1   -1    1
    Au  |   1    1    1    1   -1   -1   -1   -1

   * Direct product table

        | Ag   B3u  B2u  B1g  B1u  B2g  B3g  Au 
   -----+----------------------------------------
    Ag  | Ag   B3u  B2u  B1g  B1u  B2g  B3g  Au 
    B3u | B3u  Ag   B1g  B2u  B2g  B1u  Au   B3g
    B2u | B2u  B1g  Ag   B3u  B3g  Au   B1u  B2g
    B1g | B1g  B2u  B3u  Ag   Au   B3g  B2g  B1u
    B1u | B1u  B2g  B3g  Au   Ag   B3u  B2u  B1g
    B2g | B2g  B1u  Au   B3g  B3u  Ag   B1g  B2u
    B3g | B3g  Au   B1u  B2g  B2u  B1g  Ag   B3u
    Au  | Au   B3g  B2g  B1u  B1g  B2u  B3u  Ag 


                                 Isotopic Masses
                                 ---------------

                           N   _1     14.003074
                           N   _2     14.003074
                           N   _1      0.000000
                           N   _2      0.000000

                       Total mass:    28.006148 amu
                       Natural abundance:   0.000 %

 Center-of-mass coordinates (a.u.):    0.000000    0.000000    0.000000


  Atoms and basis sets
  --------------------

  Number of atom types :    2
  Total number of atoms:    4

  Basis set 1 refers to the basis "Ahlrichs-VTZ" from the basis set library.

  Basis set 2 refers to the basis "Ahlrichs-VTZ" from the basis set library.

  label  basis   atoms  charge   prim  cont     basis
  ------------------------------------------------------------------------------
  N        1       2    7.0000    28    15      [10s6p|6s3p]                                       
  N        2       2    0.0000    28    15      [10s6p|6s3p]                                       
  ------------------------------------------------------------------------------
  total:           4   14.0000   112    60
  ------------------------------------------------------------------------------

  Threshold for neglecting AO integrals:  1.00D-15


  Cartesian Coordinates (a.u.)
  ----------------------------

  Total number of coordinates:   12
  N   / 1 :     1  x   0.0000000000    2  y   0.0000000000    3  z   1.0371575000
  N   / 2 :     4  x   0.0000000000    5  y   0.0000000000    6  z  -1.0371575000
  N   / 1 :     7  x   0.0000000000    8  y   0.0000000000    9  z   1.0371575000
  N   / 2 :    10  x   0.0000000000   11  y   0.0000000000   12  z  -1.0371575000


  Symmetry Coordinates
  --------------------

  Number of coordinates in each symmetry:     2    2    2    0    2    2    2    0

  Symmetry  Ag  ( 1)

    1   N     z    [  3  -    6 ]/2
    2   N     z    [  9  -   12 ]/2

  Symmetry  B3u ( 2)

    3   N     x    [  1  +    4 ]/2
    4   N     x    [  7  +   10 ]/2

  Symmetry  B2u ( 3)

    5   N     y    [  2  +    5 ]/2
    6   N     y    [  8  +   11 ]/2

  Symmetry  B1u ( 5)

    7   N     z    [  3  +    6 ]/2
    8   N     z    [  9  +   12 ]/2

  Symmetry  B2g ( 6)

    9   N     x    [  1  -    4 ]/2
   10   N     x    [  7  -   10 ]/2

  Symmetry  B3g ( 7)

   11   N     y    [  2  -    5 ]/2
   12   N     y    [  8  -   11 ]/2


   Interatomic separations (in Angstrom):
   --------------------------------------

            N   _1      N   _2      N   _1      N   _2
            ------      ------      ------      ------
 N   _1:    0.000000
 N   _2:    1.097680    0.000000
 N   _1:    0.000000    1.097680    0.000000
 N   _2:    1.097680    0.000000    1.097680    0.000000


  Max    interatomic separation is    1.0977 Angstrom (    2.0743 Bohr)
  between atoms    2 and    1, "N   _2" and "N   _1".

  Min YX interatomic separation is    0.0000 Angstrom (    0.0000 Bohr)

WARNING: Number of short HX and YX bond lengths:    0    2
WARNING: If not intentional, maybe your coordinates were in Angstrom,
WARNING: but "Angstrom" was not specified in .mol file


  Bond distances (Angstrom):
  --------------------------

                  atom 1     atom 2       distance
                  ------     ------       --------
  bond distance:  N   _2     N   _1       1.097680


  Bond angles (degrees):
  ----------------------

                  atom 1     atom 2     atom 3         angle
                  ------     ------     ------         -----
     No angles found




 Principal moments of inertia (u*A**2) and principal axes
 --------------------------------------------------------

   IA       0.000000          0.000000    0.000000    1.000000
   IB       8.436165          0.000000    1.000000    0.000000
   IC       8.436165          1.000000    0.000000    0.000000


 Rotational constants
 --------------------

 The molecule is linear.

               B =        59906.25 MHz     (    1.998257 cm-1)


@  Nuclear repulsion energy :   23.622256021867 Hartree


  Symmetry Orbitals
  -----------------

  Number of orbitals in each symmetry:          18    6    6    0   18    6    6    0

  Number of main orbitals in each symmetry:           9    3    3    0    9    3    3    0
  Number of auxiliary functions in each symmetry:     9    3    3    0    9    3    3    0


  Symmetry  Ag ( 1)

    1     N    M   1s         1 +    2
    2     N    M   1s         3 +    4
    3     N    M   1s         5 +    6
    4     N    M   1s         7 +    8
    5     N    M   1s         9 +   10
    6     N    M   1s        11 +   12
    7     N    M   2pz       17 -   18
    8     N    M   2pz       23 -   24
    9     N    M   2pz       29 -   30
   10     N    A   1s        31 +   32
   11     N    A   1s        33 +   34
   12     N    A   1s        35 +   36
   13     N    A   1s        37 +   38
   14     N    A   1s        39 +   40
   15     N    A   1s        41 +   42
   16     N    A   2pz       47 -   48
   17     N    A   2pz       53 -   54
   18     N    A   2pz       59 -   60


  Symmetry  B3u( 2)

   19     N    M   2px       13 +   14
   20     N    M   2px       19 +   20
   21     N    M   2px       25 +   26
   22     N    A   2px       43 +   44
   23     N    A   2px       49 +   50
   24     N    A   2px       55 +   56


  Symmetry  B2u( 3)

   25     N    M   2py       15 +   16
   26     N    M   2py       21 +   22
   27     N    M   2py       27 +   28
   28     N    A   2py       45 +   46
   29     N    A   2py       51 +   52
   30     N    A   2py       57 +   58


  No orbitals in symmetry  B1g( 4)


  Symmetry  B1u( 5)

   31     N    M   1s         1 -    2
   32     N    M   1s         3 -    4
   33     N    M   1s         5 -    6
   34     N    M   1s         7 -    8
   35     N    M   1s         9 -   10
   36     N    M   1s        11 -   12
   37     N    M   2pz       17 +   18
   38     N    M   2pz       23 +   24
   39     N    M   2pz       29 +   30
   40     N    A   1s        31 -   32
   41     N    A   1s        33 -   34
   42     N    A   1s        35 -   36
   43     N    A   1s        37 -   38
   44     N    A   1s        39 -   40
   45     N    A   1s        41 -   42
   46     N    A   2pz       47 +   48
   47     N    A   2pz       53 +   54
   48     N    A   2pz       59 +   60


  Symmetry  B2g( 6)

   49     N    M   2px       13 -   14
   50     N    M   2px       19 -   20
   51     N    M   2px       25 -   26
   52     N    A   2px       43 -   44
   53     N    A   2px       49 -   50
   54     N    A   2px       55 -   56


  Symmetry  B3g( 7)

   55     N    M   2py       15 -   16
   56     N    M   2py       21 -   22
   57     N    M   2py       27 -   28
   58     N    A   2py       45 -   46
   59     N    A   2py       51 -   52
   60     N    A   2py       57 -   58


  No orbitals in symmetry  Au ( 8)

  Number of floating/multiple basis set orbitals :    2

  Symmetries of electric field:  B3u(2)  B2u(3)  B1u(5)

  Symmetries of magnetic field:  B3g(7)  B2g(6)  B1g(4)


                     .---------------------------------------.
                     | Starting in Integral Section (HERMIT) |
                     `---------------------------------------'



    *************************************************************************
    ****************** Output from HERMIT input processing ******************
    *************************************************************************


 Default print level:        1

 * Nuclear model: Point charge

 Calculation of one- and two-electron Hamiltonian integrals.

 The following one-electron property integrals are calculated as requested:
          - overlap integrals
          - traceless quadrupole moment integrals
          - second moment integrals
          - Cartesian multipole moment integrals of orders 2 and lower

 Center of mass  (bohr):      0.000000000000      0.000000000000      0.000000000000
 Operator center (bohr):      0.000000000000      0.000000000000      0.000000000000
 Gauge origin    (bohr):      0.000000000000      0.000000000000      0.000000000000
 Dipole origin   (bohr):      0.000000000000      0.000000000000      0.000000000000


     ************************************************************************
     ************************** Output from HERINT **************************
     ************************************************************************


 Threshold for neglecting two-electron integrals:  1.00D-15
 Number of two-electron integrals written:       19857 (  1.2% )
 Megabytes written:                              0.234

 >>>> Total CPU  time used in HERMIT:   0.06 seconds
 >>>> Total wall time used in HERMIT:   0.06 seconds


                        .----------------------------------.
                        | End of Integral Section (HERMIT) |
                        `----------------------------------'



                   .--------------------------------------------.
                   | Starting in Wave Function Section (SIRIUS) |
                   `--------------------------------------------'


 >>>> Detected R12 input:
 Direct Fock matrix formation switched on!
 Scale factors for CC excitations manifolds:
 for bra states (projection manifold):   1.0000000000000000     
 for ket states (operator manifold)  :   1.0000000000000000     

 **********************************************************************
 *SIRIUS* a direct, restricted step, second order MCSCF program       *
 **********************************************************************

 
     Date and time (Linux)  : Sun Sep  8 20:59:00 2013
     Host name              : lpqlx131.ups-tlse.fr                    

 Title lines from ".mol" input file:
     MP2-R12 first order property calculation on N2                          
     small basis                                                             

 Print level on unit LUPRI =   2 is   0
 Print level on unit LUW4  =   2 is   5

@    (Integral direct) CC calculation.

@    This is a combination run starting with
@              a restricted, closed shell Hartree-Fock calculation

 Fock matrices are calculated directly without use of integrals on disk.

 Initial molecular orbitals are obtained according to
 ".MOSTART H1DIAG" input option

     Wave function specification
     ============================

     For the specification of the Coupled Cluster: see later.

@    For the wave function of type :      >>> CC <<<
@    Number of closed shell electrons          14
@    Number of electrons in active shells       0
@    Total charge of the molecule               0

@    Spin multiplicity and 2 M_S                1         0
     Total number of symmetries                 8
@    Reference state symmetry                   1

     Orbital specifications
     ======================
     Abelian symmetry species          All |    1    2    3    4    5    6    7    8
                                       --- |  ---  ---  ---  ---  ---  ---  ---  ---
     Total number of orbitals           30 |    9    3    3    0    9    3    3    0
     Number of basis functions          60 |   18    6    6    0   18    6    6    0

      ** Automatic occupation of RHF orbitals **

      -- Initial occupation of symmetries is determined from diagonal of H1 matrix.           
      -- Initial occupation of symmetries is :
@    Occupied SCF orbitals               7 |    2    1    1    0    2    1    0    0

     Maximum number of Fock   iterations      0
     Maximum number of DIIS   iterations     60
     Maximum number of QC-SCF iterations     60
     Threshold for SCF convergence     1.00D-10


 Changes of defaults for CC:
 ---------------------------


 -Implicit frozen core calculation
 -Traceless quadrupole moment calculated
 -Electronic second moment of charge calculated
  


 >>>>> DIIS optimization of Hartree-Fock <<<<<

 C1-DIIS algorithm; max error vectors =   10

 Automatic occupation of symmetries with  14 electrons.

 Iter     Total energy    Error norm  Delta(E)    SCF occupation
 -----------------------------------------------------------------------------
   1  Screening settings (-IFTHRS, DIFDEN)   -6    T

***  INFO  GETGAB: GABAOXXX not found on AOPROPER. Regenerating.
@  1  -96.7451432033       1.59D+01  -9.67D+01     2   1   1   0   2   1   0   0
      Virial theorem: -V/T =      1.634723
@      MULPOP N   _1  0.00; N   _2  0.00; 
 -----------------------------------------------------------------------------
   2  Screening settings (-IFTHRS, DIFDEN)   -6    T
@  2  -102.343576040       8.57D+00  -5.60D+00     3   1   1   0   2   0   0   0
      Virial theorem: -V/T =      2.096896
@      MULPOP N   _1 -0.00; N   _2 -0.00; 
 -----------------------------------------------------------------------------
   3  Screening settings (-IFTHRS, DIFDEN)   -6    T
@  3  -108.691877706       2.11D+00  -6.35D+00     3   1   1   0   2   0   0   0
      Virial theorem: -V/T =      1.967055
@      MULPOP N   _1 -0.00; N   _2 -0.00; 
 -----------------------------------------------------------------------------
   4  Screening settings (-IFTHRS, DIFDEN)   -6    T
@  4  -108.894418377       2.95D-01  -2.03D-01     3   1   1   0   2   0   0   0
      Virial theorem: -V/T =      1.996600
@      MULPOP N   _1  0.00; N   _2  0.00; 
 -----------------------------------------------------------------------------
   5  Screening settings (-IFTHRS, DIFDEN)   -8    F
@  5  -108.899916899       2.95D-02  -5.50D-03     3   1   1   0   2   0   0   0
      Virial theorem: -V/T =      2.000556
@      MULPOP N   _1 -0.00; N   _2 -0.00; 
 -----------------------------------------------------------------------------
   6  Screening settings (-IFTHRS, DIFDEN)   -8    T
@  6  -108.899999543       4.65D-03  -8.26D-05     3   1   1   0   2   0   0   0
      Virial theorem: -V/T =      2.000513
@      MULPOP N   _1  0.00; N   _2  0.00; 
 -----------------------------------------------------------------------------
   7  Screening settings (-IFTHRS, DIFDEN)  -10    F
@  7  -108.900001713       5.57D-04  -2.17D-06     3   1   1   0   2   0   0   0
      Virial theorem: -V/T =      2.000511
@      MULPOP N   _1  0.00; N   _2  0.00; 
 -----------------------------------------------------------------------------
   8  Screening settings (-IFTHRS, DIFDEN)  -10    T
@  8  -108.900001741       5.80D-05  -2.79D-08     3   1   1   0   2   0   0   0
      Virial theorem: -V/T =      2.000517
@      MULPOP N   _1 -0.00; N   _2 -0.00; 
 -----------------------------------------------------------------------------
   9  Screening settings (-IFTHRS, DIFDEN)  -12    F
@  9  -108.900001741       1.02D-05  -4.62D-10     3   1   1   0   2   0   0   0
      Virial theorem: -V/T =      2.000518
@      MULPOP N   _1 -0.00; N   _2 -0.00; 
 -----------------------------------------------------------------------------
  10  Screening settings (-IFTHRS, DIFDEN)  -12    T
@ 10  -108.900001741       5.43D-07  -6.71D-12     3   1   1   0   2   0   0   0
      Virial theorem: -V/T =      2.000517
@      MULPOP N   _1  0.00; N   _2  0.00; 
 -----------------------------------------------------------------------------
  11  Screening settings (-IFTHRS, DIFDEN)  -15    F
@ 11  -108.900001741       9.47D-08  -2.84D-14     3   1   1   0   2   0   0   0
      Virial theorem: -V/T =      2.000517
@      MULPOP N   _1 -0.00; N   _2 -0.00; 
 -----------------------------------------------------------------------------
  12  Screening settings (-IFTHRS, DIFDEN)  -15    T
@ 12  -108.900001741       4.74D-09  -2.84D-14     3   1   1   0   2   0   0   0
      Virial theorem: -V/T =      2.000517
@      MULPOP N   _1 -0.00; N   _2 -0.00; 
 -----------------------------------------------------------------------------
  13  Screening settings (-IFTHRS, DIFDEN)  -15    T
@ 13  -108.900001741       3.03D-10   5.68D-14     3   1   1   0   2   0   0   0
      Virial theorem: -V/T =      2.000517
@      MULPOP N   _1  0.00; N   _2  0.00; 
 -----------------------------------------------------------------------------
  14  Screening settings (-IFTHRS, DIFDEN)  -15    T
@ 14  -108.900001741       2.55D-11  -2.84D-14     3   1   1   0   2   0   0   0

@ *** DIIS converged in  14 iterations !
@     Converged SCF energy, gradient:   -108.900001741401    2.55D-11
    - total time used in SIRFCK :              0.00 seconds


 *** SCF orbital energy analysis ***

 Only the five lowest virtual orbital energies printed in each symmetry.

 Number of electrons :   14
 Orbital occupations :    3    1    1    0    2    0    0    0

 Sym       Hartree-Fock orbital energies

  1    -15.71124132    -1.52544172    -0.63039151     0.45981260     0.55276403
         2.44169933     3.41549313    16.54207241

  2     -0.62492927     0.42613566     2.30837367

  3     -0.62492927     0.42613566     2.30837367

  5    -15.70768698    -0.77604191     0.33455666     0.89770076     1.10903602
         2.29017090     3.86926494

  6      0.13832766     0.59396746     2.40825093

  7      0.13832766     0.59396746     2.40825093

    E(LUMO) :     0.13832766 au (symmetry 7)
  - E(HOMO) :    -0.62492927 au (symmetry 2)
  ------------------------------------------
    gap     :     0.76325693 au

 >>> Writing SIRIFC interface file <<<

  Canonical primary and secondary basis sets
  ISYM       NORB1 MBAS1       NORB2 MBAS2
     1           9     9           9     9
     2           3     3           3     3
     3           3     3           3     3
     4           0     0           0     0
     5           9     9           9     9
     6           3     3           3     3
     7           3     3           3     3
     8           0     0           0     0

 Computation of exchange matrix done [5]

 AUXILIARY BASIS LOW EIGENVALUES
 ISYM         EIGENVALUE
   1      0.000000000000
   2      0.000000000000
   3      0.000000000000
   5      0.000000000000
   6      0.000000000000
   7      0.000000000000

 >>>> CPU and wall time for SCF :       0.330       0.335


                       .-----------------------------------.
                       | >>> Final results from SIRIUS <<< |
                       `-----------------------------------'


@    Spin multiplicity:           1
@    Spatial symmetry:            1
@    Total charge of molecule:    0

@    Final HF energy:            -108.900001741401                 
@    Nuclear repulsion:            23.622256021867
@    Electronic energy:          -132.522257763269

@    Final gradient norm:           0.000000000025

 
     Date and time (Linux)  : Sun Sep  8 20:59:01 2013
     Host name              : lpqlx131.ups-tlse.fr                    

 (Only coefficients >0.0100 are printed.)

 Molecular orbitals for symmetry species  1
 ------------------------------------------

    Orbital         1        2        3        4        5
   1 N   :1s    -0.2136   0.0496   0.0165  -0.0017   0.0281
   2 N   :1s     0.3059  -0.0912  -0.0322   0.0053  -0.0758
   3 N   :1s     0.2545  -0.1217  -0.0392  -0.0018  -0.0137
   4 N   :1s     0.0314   0.1098   0.0378   0.0393  -0.2688
   5 N   :1s    -0.0068   0.3723   0.1063  -0.2252   1.4992
   6 N   :1s     0.0015   0.0853   0.2959  -0.1796  -1.1778
   7 N   :2pz   -0.0029  -0.1837   0.3429   0.0966   0.0871
   8 N   :2pz    0.0014  -0.0962   0.2461   0.3314   0.2155
   9 N   :2pz   -0.0008   0.0109   0.0853  -1.2679  -0.1202

 Molecular orbitals for symmetry species  2
 ------------------------------------------

    Orbital         1        2        3
   1 N   :2px    0.3056   0.1501  -0.9028
   2 N   :2px    0.3025   0.5095   1.0287
   3 N   :2px    0.1133  -0.7422  -0.4129

 Molecular orbitals for symmetry species  3
 ------------------------------------------

    Orbital         1        2        3
   1 N   :2py   -0.3056   0.1501  -0.9028
   2 N   :2py   -0.3025   0.5095   1.0287
   3 N   :2py   -0.1133  -0.7422  -0.4129

 Molecular orbitals for symmetry species  5
 ------------------------------------------

    Orbital         1        2        3        4
   1 N   :1s     0.2137   0.0459   0.0201   0.0077
   2 N   :1s    -0.3063  -0.0879  -0.0326  -0.0106
   3 N   :1s    -0.2543  -0.1108  -0.0685  -0.0310
   4 N   :1s    -0.0325   0.0901   0.1629   0.0448
   5 N   :1s     0.0115   0.4319  -0.2303  -0.0996
   6 N   :1s    -0.0065   0.3744   3.7928   4.1905
   7 N   :2pz    0.0023   0.1478   0.0095  -0.3087
   8 N   :2pz   -0.0032   0.0826   0.0872  -1.4185
   9 N   :2pz    0.0022   0.0344  -2.1454  -0.9689

 Molecular orbitals for symmetry species  6
 ------------------------------------------

    Orbital         1        2
   1 N   :2px    0.3054  -0.2390
   2 N   :2px    0.2955  -0.6874
   3 N   :2px    0.6877   1.5792

 Molecular orbitals for symmetry species  7
 ------------------------------------------

    Orbital         1        2
   1 N   :2py    0.3054  -0.2390
   2 N   :2py    0.2955  -0.6874
   3 N   :2py    0.6877   1.5792



 >>>> Total CPU  time used in SIRIUS :      0.33 seconds
 >>>> Total wall time used in SIRIUS :      0.34 seconds

 
     Date and time (Linux)  : Sun Sep  8 20:59:01 2013
     Host name              : lpqlx131.ups-tlse.fr                    


                     .---------------------------------------.
                     | End of Wave Function Section (SIRIUS) |
                     `---------------------------------------'



                    .------------------------------------------.
                    | Starting in Coupled Cluster Section (CC) |
                    `------------------------------------------'

  

 *******************************************************************************
 *******************************************************************************
 *                                                                             *
 *                                                                             *
 *                    START OF COUPLED CLUSTER CALCULATION                     *
 *                                                                             *
 *                                                                             *
 *******************************************************************************
 *******************************************************************************



 CCR12 ANSATZ =   1

 CCR12 APPROX =   5

   NRHF   :       2       1       1       0       1       0       0       0
   NRHFS  :       3       1       1       0       2       0       0       0
   NORB1  :       9       3       3       0       9       3       3       0
   NORB2  :       9       3       3       0       9       3       3       0

 Number of primary orbitals             :           30
 Number of secondary orbitals           :           30
 Total number of orbitals               :           60
 Total number of basis functions        :           60
 Number of (i|p') integrals             :           66
 Number of (i|u') integrals             :           66
 Number of (Ip'|1/r12|jL) integrals     :          264
 Number of (ip'|1/r12|jq') integrals    :         7242
 Number of (ip'|r12|jq') integrals      :         7242
 Number of (ip'|[T1,r12]|jq') integrals :        14184
 Threshold for R12 contributions            =  0.00000    
 Threshold for singular value decomposition = 0.100000E-11

 The B matrix is transformed into an orthogonal basis
 and inverted by diagonalization

 ******************************************************************************
 The MP2-R12/A and MP2-R12/B energies are computed as described in:
 W. Klopper, J. Chem. Phys. 120, 10890-10895 (2004).
 To avoid the hybride scheme, the keyword '.NO HYB'
 must be specified in the Dalton input file.
 ------------------------------------------------------------------------------
 Ansatz 1 is used and results are printed for approximations A and B.
 ******************************************************************************

 Core memory required by CCSD_R12 :          49505  (double words)

 Computation of (ip'|r12|jq') integrals done
 >>>  Time used in R  [5]     is   0.55 seconds
 Backtransformation of (ip'|r12|jq') integrals done
 Computation of V^aj_kl intermediate done

 >>> Time used for V^aj_kl is    0.01 seconds

 Computation of V^aj_kl intermediate done

 >>> Time used for V^aj_kl is    0.01 seconds

 Computation of (ip'|1/r12|jq') integrals done
 >>>  Time used in 1/R[5]     is   1.11 seconds
 Computation of V^aj_kl intermediate done

 >>> Time used for V^aj_kl is    0.01 seconds

 Computation of V^aj_kl intermediate done

 >>> Time used for V^aj_kl is    0.01 seconds

 Computation of V^aj_kl intermediate done

 >>> Time used for V^aj_kl is    0.01 seconds

 Computation of V^aj_kl intermediate done

 >>> Time used for V^aj_kl is    0.00 seconds

 Computation of V^aj_kl intermediate done

 >>> Time used for V^aj_kl is    0.01 seconds

 Computation of (i* p'|r12|jq') integrals done
 >>>  Time used in R  [5]     is   2.78 seconds
 Computation of (i'p|r12|jq') integrals done
 >>>  Time used in R  [5]     is   0.58 seconds
 >>>  Time used in TWOINT     is   0.35 seconds
 >>>  Time used in TWOINT     is   0.43 seconds
 >>>  Time used in TWOINT     is   0.14 seconds
 >>>  Time used in TWOINT     is   0.13 seconds
 Computation of V^aj_kl intermediate done

 >>> Time used for V^aj_kl is    0.01 seconds

 Computation of V^aj_kl intermediate done

 >>> Time used for V^aj_kl is    0.01 seconds

 Computation of (ip'|[T,r12]|jq') integrals done
 >>>  Time used in T,R[5]     is   1.66 seconds


                 +-----------------------------------------------+
                 ! MP2-R12 ansatz := (1 - P1 - P2 + P1*P2) * R12 !
                 +-----------------------------------------------+


 SECOND-ORDER PAIR ENERGIES:

                    1   -0.007003678    0.000000000
                    2   -0.005355993   -0.002892807
                    3   -0.009327453    0.000000000
                    4   -0.009097884   -0.008244077
                    5   -0.006605383   -0.016160267
                    6   -0.023787892    0.000000000
                    7   -0.009097884   -0.008244077
                    8   -0.006605383   -0.016160267
                    9   -0.018457377   -0.033959162
                   10   -0.023787892    0.000000000
                   11   -0.002705898   -0.002363558
                   12   -0.008404856   -0.002472007
                   13   -0.005344910   -0.007920585
                   14   -0.005344910   -0.007920585
                   15   -0.010919938    0.000000000

 MP2 =   -0.258184722   -0.151847330   -0.106337392


                            +-------------------------+
                            ! Original MP2-R12 method !
                            +-------------------------+


 SECOND-ORDER NONINVARIANT R12/0 PAIR ENERGIES WITH FIXED R12-COEFFICIENTS:

   1   -0.007003678    0.003983040    0.000000000    0.000000000
   2   -0.005355993    0.008453602   -0.002892807    0.013708553
   3   -0.009327453    0.022108649    0.000000000    0.000000000
   4   -0.009097884   -0.000777376   -0.008244077   -0.000401580
   5   -0.006605383    0.021740788   -0.016160267    0.005892993
   6   -0.023787892    0.010093520    0.000000000    0.000000000
   7   -0.009097884   -0.000777376   -0.008244077   -0.000401580
   8   -0.006605383    0.021740788   -0.016160267    0.005892993
   9   -0.018457377   -0.004729175   -0.033959162   -0.015979317
  10   -0.023787892    0.010093520    0.000000000    0.000000000
  11   -0.002705898    0.025192653   -0.002363558    0.011310040
  12   -0.008404856    0.003689073   -0.002472007    0.021011714
  13   -0.005344910    0.025699065   -0.007920585    0.009109770
  14   -0.005344910    0.025699065   -0.007920585    0.009109770
  15   -0.010919938    0.001735899    0.000000000    0.000000000

       -0.151847330    0.173945734   -0.106337392    0.059253356

 Noninvariant MP2-R12/0   correlation energy =    0.233199090

  IJ    V(IJ)       U(IJ)       C(IJ)       V(IJ)       U(IJ)       C(IJ)   

   1 -0.4327E-01 -0.9752E-01  0.1000E+01  0.0000E+00  0.0000E+00  0.0000E+00  0.4500E+01  0.0000E+00
   2 -0.3804E-01 -0.8990E-01  0.1000E+01 -0.4017E-01 -0.2271E+00  0.5000E+00  0.3245E+01  0.2985E+01
   3 -0.2793E-01 -0.8729E-01  0.1000E+01  0.0000E+00  0.0000E+00  0.0000E+00  0.2945E+01  0.0000E+00
   4 -0.6522E-01 -0.1388E+00  0.1000E+01 -0.6717E-01 -0.3000E+00  0.5000E+00  0.2244E+01  0.2605E+01
   5 -0.3656E-01 -0.1015E+00  0.1000E+01 -0.5618E-01 -0.3129E+00  0.5000E+00  0.2127E+01  0.2265E+01
   6 -0.5516E-01 -0.1442E+00  0.1000E+01  0.0000E+00  0.0000E+00  0.0000E+00  0.1702E+01  0.0000E+00
   7 -0.6522E-01 -0.1388E+00  0.1000E+01 -0.6717E-01 -0.3000E+00  0.5000E+00  0.2244E+01  0.2605E+01
   8 -0.3656E-01 -0.1015E+00  0.1000E+01 -0.5618E-01 -0.3129E+00  0.5000E+00  0.2127E+01  0.2265E+01
   9 -0.5857E-01 -0.1309E+00  0.1000E+01 -0.7916E-01 -0.3885E+00  0.5000E+00  0.1340E+01  0.2183E+01
  10 -0.5516E-01 -0.1442E+00  0.1000E+01  0.0000E+00  0.0000E+00  0.0000E+00  0.1702E+01  0.0000E+00
  11 -0.6884E-02 -0.4167E-01  0.1000E+01 -0.2060E-01 -0.1371E+00  0.5000E+00  0.6089E+01  0.5396E+01
  12 -0.4400E-01 -0.1001E+00  0.1000E+01 -0.1500E-01 -0.1539E+00  0.5000E+00  0.3230E+01  0.3063E+01
  13 -0.3098E-01 -0.9301E-01  0.1000E+01 -0.4569E-01 -0.2509E+00  0.5000E+00  0.2471E+01  0.2300E+01
  14 -0.3098E-01 -0.9301E-01  0.1000E+01 -0.4569E-01 -0.2509E+00  0.5000E+00  0.2471E+01  0.2300E+01
  15 -0.1655E-01 -0.4575E-01  0.1000E+01  0.0000E+00  0.0000E+00  0.0000E+00  0.5056E+01  0.0000E+00

 SECOND-ORDER NONINVARIANT R12/A PAIR ENERGIES:

   1   -0.007003678   -0.026199931    0.000000000    0.000000000
   2   -0.005355993   -0.021456376   -0.002892807   -0.009998049
   3   -0.009327453   -0.018261495    0.000000000    0.000000000
   4   -0.009097884   -0.039754766   -0.008244077   -0.023280097
   5   -0.006605383   -0.019779428   -0.016160267   -0.026246018
   6   -0.023787892   -0.044889491    0.000000000    0.000000000
   7   -0.009097884   -0.039754766   -0.008244077   -0.023280097
   8   -0.006605383   -0.019779428   -0.016160267   -0.026246018
   9   -0.018457377   -0.044671313   -0.033959162   -0.050085196
  10   -0.023787892   -0.044889491    0.000000000    0.000000000
  11   -0.002705898   -0.003843172   -0.002363558   -0.005459713
  12   -0.008404856   -0.027748041   -0.002472007   -0.003932985
  13   -0.005344910   -0.015666623   -0.007920585   -0.016241724
  14   -0.005344910   -0.015666623   -0.007920585   -0.016241724
  15   -0.010919938   -0.016904423    0.000000000    0.000000000

       -0.151847330   -0.399265367   -0.106337392   -0.201011621

 Noninvariant MP2-R12/A   correlation energy =   -0.600276988

  IJ    V(IJ)       U(IJ)       C(IJ)       V(IJ)       U(IJ)       C(IJ)   

   1 -0.4327E-01 -0.9752E-01  0.4437E+00  0.0000E+00  0.0000E+00  0.0000E+00  0.4500E+01  0.0000E+00
   2 -0.3804E-01 -0.8990E-01  0.4232E+00 -0.4017E-01 -0.2271E+00  0.1769E+00  0.3245E+01  0.2985E+01
   3 -0.2793E-01 -0.8729E-01  0.3199E+00  0.0000E+00  0.0000E+00  0.0000E+00  0.2945E+01  0.0000E+00
   4 -0.6522E-01 -0.1388E+00  0.4700E+00 -0.6717E-01 -0.3000E+00  0.2239E+00  0.2244E+01  0.2605E+01
   5 -0.3656E-01 -0.1015E+00  0.3603E+00 -0.5618E-01 -0.3129E+00  0.1795E+00  0.2127E+01  0.2265E+01
   6 -0.5516E-01 -0.1442E+00  0.3825E+00  0.0000E+00  0.0000E+00  0.0000E+00  0.1702E+01  0.0000E+00
   7 -0.6522E-01 -0.1388E+00  0.4700E+00 -0.6717E-01 -0.3000E+00  0.2239E+00  0.2244E+01  0.2605E+01
   8 -0.3656E-01 -0.1015E+00  0.3603E+00 -0.5618E-01 -0.3129E+00  0.1795E+00  0.2127E+01  0.2265E+01
   9 -0.5857E-01 -0.1309E+00  0.4476E+00 -0.7916E-01 -0.3885E+00  0.2037E+00  0.1340E+01  0.2183E+01
  10 -0.5516E-01 -0.1442E+00  0.3825E+00  0.0000E+00  0.0000E+00  0.0000E+00  0.1702E+01  0.0000E+00
  11 -0.6884E-02 -0.4167E-01  0.1652E+00 -0.2060E-01 -0.1371E+00  0.1503E+00  0.6089E+01  0.5396E+01
  12 -0.4400E-01 -0.1001E+00  0.4396E+00 -0.1500E-01 -0.1539E+00  0.9743E-01  0.3230E+01  0.3063E+01
  13 -0.3098E-01 -0.9301E-01  0.3331E+00 -0.4569E-01 -0.2509E+00  0.1821E+00  0.2471E+01  0.2300E+01
  14 -0.3098E-01 -0.9301E-01  0.3331E+00 -0.4569E-01 -0.2509E+00  0.1821E+00  0.2471E+01  0.2300E+01
  15 -0.1655E-01 -0.4575E-01  0.3617E+00  0.0000E+00  0.0000E+00  0.0000E+00  0.5056E+01  0.0000E+00

 SECOND-ORDER R12/A PAIR ENERGIES:

   1   -0.007003678   -0.031237473    0.000000000   -0.000000000     1.33993         2.04112    
   2   -0.005355993   -0.022354045   -0.002892807   -0.009998049     1.33993         2.04112    
   3   -0.009327453   -0.020666248    0.000000000   -0.000000000     1.33993         2.04112    
   4   -0.009097884   -0.039988727   -0.008244077   -0.023445244     1.33993         2.04112    
   5   -0.006605383   -0.020011686   -0.016160267   -0.026298561     1.33993         2.04112    
   6   -0.023787892   -0.045472422    0.000000000   -0.000000000     1.33993         2.04112    
   7   -0.009097884   -0.039988727   -0.008244077   -0.023445244     1.33993         2.04112    
   8   -0.006605383   -0.020011686   -0.016160267   -0.026298561     1.33993         2.04112    
   9   -0.018457377   -0.044671313   -0.033959162   -0.050085196     1.33993         2.04112    
  10   -0.023787892   -0.045472422    0.000000000   -0.000000000     1.33993         2.04112    
  11   -0.002705898   -0.004285197   -0.002363558   -0.006017030     1.33993         2.04112    
  12   -0.008404856   -0.028298348   -0.002472007   -0.004297391     1.33993         2.04112    
  13   -0.005344910   -0.015666623   -0.007920585   -0.016241724     1.33993         2.04112    
  14   -0.005344910   -0.015666623   -0.007920585   -0.016241724     1.33993         2.04112    
  15   -0.010919938   -0.019240551    0.000000000   -0.000000000     1.33993         2.04112    

       -0.151847330   -0.413032089   -0.106337392   -0.202368726

              MP2-R12/A   correlation energy =   -0.615400815

 SECOND-ORDER R12/A' PAIR ENERGIES:

   1   -0.007003678   -0.028063756    0.000000000   -0.000000000     3.14095         3.32968    
   2   -0.005355993   -0.023534154   -0.002892807   -0.009998049     2.24590         2.43463    
   3   -0.009327453   -0.021048817    0.000000000   -0.000000000     1.35085         1.53958    
   4   -0.009097884   -0.039808751   -0.008244077   -0.023375197     2.24044         2.42917    
   5   -0.006605383   -0.020412930   -0.016160267   -0.026352534     1.34539         1.53412    
   6   -0.023787892   -0.045759104    0.000000000   -0.000000000     1.33993         1.52866    
   7   -0.009097884   -0.039808751   -0.008244077   -0.023375197     2.24044         2.42917    
   8   -0.006605383   -0.020412930   -0.016160267   -0.026352534     1.34539         1.53412    
   9   -0.018457377   -0.044671313   -0.033959162   -0.050085196     1.33993         1.52866    
  10   -0.023787892   -0.045759104    0.000000000   -0.000000000     1.33993         1.52866    
  11   -0.002705898   -0.004233157   -0.002363558   -0.005744496     2.39155         2.58028    
  12   -0.008404856   -0.028139031   -0.002472007   -0.004502010     1.49650         1.68523    
  13   -0.005344910   -0.015666623   -0.007920585   -0.016241724     1.49104         1.67977    
  14   -0.005344910   -0.015666623   -0.007920585   -0.016241724     1.49104         1.67977    
  15   -0.010919938   -0.019171415    0.000000000   -0.000000000     1.64215         1.83088    

       -0.151847330   -0.412156460   -0.106337392   -0.202268662

              MP2-R12/A'  correlation energy =   -0.614425122

 SECOND-ORDER NONINVARIANT R12/B PAIR ENERGIES:

   1   -0.007003678   -0.019666799    0.000000000    0.000000000
   2   -0.005355993   -0.015150415   -0.002892807   -0.007181896
   3   -0.009327453   -0.014987948    0.000000000    0.000000000
   4   -0.009097884   -0.026004002   -0.008244077   -0.017012504
   5   -0.006605383   -0.014161400   -0.016160267   -0.022134996
   6   -0.023787892   -0.035316357    0.000000000    0.000000000
   7   -0.009097884   -0.026004002   -0.008244077   -0.017012504
   8   -0.006605383   -0.014161400   -0.016160267   -0.022134996
   9   -0.018457377   -0.031303506   -0.033959162   -0.043674013
  10   -0.023787892   -0.035316357    0.000000000    0.000000000
  11   -0.002705898   -0.003526573   -0.002363558   -0.004578671
  12   -0.008404856   -0.021094960   -0.002472007   -0.003372198
  13   -0.005344910   -0.011638418   -0.007920585   -0.012837574
  14   -0.005344910   -0.011638418   -0.007920585   -0.012837574
  15   -0.010919938   -0.015145658    0.000000000    0.000000000

       -0.151847330   -0.295116213   -0.106337392   -0.162776927

 Noninvariant MP2-R12/B   correlation energy =   -0.457893140

  IJ    V(IJ)       U(IJ)       C(IJ)       V(IJ)       U(IJ)       C(IJ)   

   1 -0.4327E-01 -0.1478E+00  0.2927E+00  0.0000E+00  0.0000E+00  0.0000E+00
   2 -0.3804E-01 -0.1478E+00  0.2574E+00 -0.4017E-01 -0.3762E+00  0.1068E+00
   3 -0.2793E-01 -0.1378E+00  0.2027E+00  0.0000E+00  0.0000E+00  0.0000E+00
   4 -0.6522E-01 -0.2516E+00  0.2592E+00 -0.6717E-01 -0.5145E+00  0.1305E+00
   5 -0.3656E-01 -0.1769E+00  0.2067E+00 -0.5618E-01 -0.5282E+00  0.1064E+00
   6 -0.5516E-01 -0.2640E+00  0.2090E+00  0.0000E+00  0.0000E+00  0.0000E+00
   7 -0.6522E-01 -0.2516E+00  0.2592E+00 -0.6717E-01 -0.5145E+00  0.1305E+00
   8 -0.3656E-01 -0.1769E+00  0.2067E+00 -0.5618E-01 -0.5282E+00  0.1064E+00
   9 -0.5857E-01 -0.2671E+00  0.2193E+00 -0.7916E-01 -0.6450E+00  0.1227E+00
  10 -0.5516E-01 -0.2640E+00  0.2090E+00  0.0000E+00  0.0000E+00  0.0000E+00
  11 -0.6884E-02 -0.5774E-01  0.1192E+00 -0.2060E-01 -0.1916E+00  0.1075E+00
  12 -0.4400E-01 -0.1526E+00  0.2884E+00 -0.1500E-01 -0.2498E+00  0.6003E-01
  13 -0.3098E-01 -0.1525E+00  0.2031E+00 -0.4569E-01 -0.4246E+00  0.1076E+00
  14 -0.3098E-01 -0.1525E+00  0.2031E+00 -0.4569E-01 -0.4246E+00  0.1076E+00
  15 -0.1655E-01 -0.6479E-01  0.2554E+00  0.0000E+00  0.0000E+00  0.0000E+00

 SECOND-ORDER R12/B PAIR ENERGIES:

   1   -0.007003678   -0.020752893    0.000000000   -0.000000000     4.53529         5.04987    
   2   -0.005355993   -0.016061380   -0.002892807   -0.007181896     3.64024         4.15482    
   3   -0.009327453   -0.017095450    0.000000000   -0.000000000     2.74519         3.25977    
   4   -0.009097884   -0.026020690   -0.008244077   -0.017153354     3.63478         4.14936    
   5   -0.006605383   -0.014285018   -0.016160267   -0.022236625     2.73973         3.25431    
   6   -0.023787892   -0.035608603    0.000000000   -0.000000000     2.73427         3.24884    
   7   -0.009097884   -0.026020690   -0.008244077   -0.017153354     3.63478         4.14936    
   8   -0.006605383   -0.014285018   -0.016160267   -0.022236625     2.73973         3.25431    
   9   -0.018457377   -0.031303506   -0.033959162   -0.043674013     2.73427         3.24884    
  10   -0.023787892   -0.035608603    0.000000000   -0.000000000     2.73427         3.24884    
  11   -0.002705898   -0.003854977   -0.002363558   -0.004697356     3.78589         4.30047    
  12   -0.008404856   -0.021643539   -0.002472007   -0.003714104     2.89084         3.40542    
  13   -0.005344910   -0.011638418   -0.007920585   -0.012837574     2.88538         3.39996    
  14   -0.005344910   -0.011638418   -0.007920585   -0.012837574     2.88538         3.39996    
  15   -0.010919938   -0.016643255    0.000000000   -0.000000000     3.03649         3.55107    

       -0.151847330   -0.302460458   -0.106337392   -0.163722475

              MP2-R12/B   correlation energy =   -0.466182934


                         +--------------------------------+
                         ! Auxiliary-basis MP2-R12 method !
                         +--------------------------------+


 SECOND-ORDER NONINVARIANT R12/0 PAIR ENERGIES WITH FIXED R12-COEFFICIENTS:

   1   -0.007003678    0.003983040    0.000000000    0.000000000
   2   -0.005355993    0.008453602   -0.002892807    0.013708553
   3   -0.009327453    0.022108649    0.000000000    0.000000000
   4   -0.009097884   -0.000777376   -0.008244077   -0.000401580
   5   -0.006605383    0.021740788   -0.016160267    0.005892993
   6   -0.023787892    0.010093520    0.000000000    0.000000000
   7   -0.009097884   -0.000777376   -0.008244077   -0.000401580
   8   -0.006605383    0.021740788   -0.016160267    0.005892993
   9   -0.018457377   -0.004729175   -0.033959162   -0.015979317
  10   -0.023787892    0.010093520    0.000000000    0.000000000
  11   -0.002705898    0.025192653   -0.002363558    0.011310040
  12   -0.008404856    0.003689073   -0.002472007    0.021011714
  13   -0.005344910    0.025699065   -0.007920585    0.009109770
  14   -0.005344910    0.025699065   -0.007920585    0.009109770
  15   -0.010919938    0.001735899    0.000000000    0.000000000

       -0.151847330    0.173945734   -0.106337392    0.059253356

 Noninvariant MP2-R12/0   correlation energy =    0.233199090

  IJ    V(IJ)       U(IJ)       C(IJ)       V(IJ)       U(IJ)       C(IJ)   

   1 -0.4327E-01 -0.9752E-01  0.1000E+01  0.0000E+00  0.0000E+00  0.0000E+00  0.4500E+01  0.0000E+00
   2 -0.3804E-01 -0.8990E-01  0.1000E+01 -0.4017E-01 -0.2271E+00  0.5000E+00  0.3245E+01  0.2985E+01
   3 -0.2793E-01 -0.8729E-01  0.1000E+01  0.0000E+00  0.0000E+00  0.0000E+00  0.2945E+01  0.0000E+00
   4 -0.6522E-01 -0.1388E+00  0.1000E+01 -0.6717E-01 -0.3000E+00  0.5000E+00  0.2244E+01  0.2605E+01
   5 -0.3656E-01 -0.1015E+00  0.1000E+01 -0.5618E-01 -0.3129E+00  0.5000E+00  0.2127E+01  0.2265E+01
   6 -0.5516E-01 -0.1442E+00  0.1000E+01  0.0000E+00  0.0000E+00  0.0000E+00  0.1702E+01  0.0000E+00
   7 -0.6522E-01 -0.1388E+00  0.1000E+01 -0.6717E-01 -0.3000E+00  0.5000E+00  0.2244E+01  0.2605E+01
   8 -0.3656E-01 -0.1015E+00  0.1000E+01 -0.5618E-01 -0.3129E+00  0.5000E+00  0.2127E+01  0.2265E+01
   9 -0.5857E-01 -0.1309E+00  0.1000E+01 -0.7916E-01 -0.3885E+00  0.5000E+00  0.1340E+01  0.2183E+01
  10 -0.5516E-01 -0.1442E+00  0.1000E+01  0.0000E+00  0.0000E+00  0.0000E+00  0.1702E+01  0.0000E+00
  11 -0.6884E-02 -0.4167E-01  0.1000E+01 -0.2060E-01 -0.1371E+00  0.5000E+00  0.6089E+01  0.5396E+01
  12 -0.4400E-01 -0.1001E+00  0.1000E+01 -0.1500E-01 -0.1539E+00  0.5000E+00  0.3230E+01  0.3063E+01
  13 -0.3098E-01 -0.9301E-01  0.1000E+01 -0.4569E-01 -0.2509E+00  0.5000E+00  0.2471E+01  0.2300E+01
  14 -0.3098E-01 -0.9301E-01  0.1000E+01 -0.4569E-01 -0.2509E+00  0.5000E+00  0.2471E+01  0.2300E+01
  15 -0.1655E-01 -0.4575E-01  0.1000E+01  0.0000E+00  0.0000E+00  0.0000E+00  0.5056E+01  0.0000E+00

 SECOND-ORDER NONINVARIANT R12/A PAIR ENERGIES:

   1   -0.007003678   -0.026199931    0.000000000    0.000000000
   2   -0.005355993   -0.021456376   -0.002892807   -0.009998049
   3   -0.009327453   -0.018261495    0.000000000    0.000000000
   4   -0.009097884   -0.039754766   -0.008244077   -0.023280097
   5   -0.006605383   -0.019779428   -0.016160267   -0.026246018
   6   -0.023787892   -0.044889491    0.000000000    0.000000000
   7   -0.009097884   -0.039754766   -0.008244077   -0.023280097
   8   -0.006605383   -0.019779428   -0.016160267   -0.026246018
   9   -0.018457377   -0.044671313   -0.033959162   -0.050085196
  10   -0.023787892   -0.044889491    0.000000000    0.000000000
  11   -0.002705898   -0.003843172   -0.002363558   -0.005459713
  12   -0.008404856   -0.027748041   -0.002472007   -0.003932985
  13   -0.005344910   -0.015666623   -0.007920585   -0.016241724
  14   -0.005344910   -0.015666623   -0.007920585   -0.016241724
  15   -0.010919938   -0.016904423    0.000000000    0.000000000

       -0.151847330   -0.399265367   -0.106337392   -0.201011621

 Noninvariant MP2-R12/A   correlation energy =   -0.600276988

  IJ    V(IJ)       U(IJ)       C(IJ)       V(IJ)       U(IJ)       C(IJ)   

   1 -0.4327E-01 -0.9752E-01  0.4437E+00  0.0000E+00  0.0000E+00  0.0000E+00  0.4500E+01  0.0000E+00
   2 -0.3804E-01 -0.8990E-01  0.4232E+00 -0.4017E-01 -0.2271E+00  0.1769E+00  0.3245E+01  0.2985E+01
   3 -0.2793E-01 -0.8729E-01  0.3199E+00  0.0000E+00  0.0000E+00  0.0000E+00  0.2945E+01  0.0000E+00
   4 -0.6522E-01 -0.1388E+00  0.4700E+00 -0.6717E-01 -0.3000E+00  0.2239E+00  0.2244E+01  0.2605E+01
   5 -0.3656E-01 -0.1015E+00  0.3603E+00 -0.5618E-01 -0.3129E+00  0.1795E+00  0.2127E+01  0.2265E+01
   6 -0.5516E-01 -0.1442E+00  0.3825E+00  0.0000E+00  0.0000E+00  0.0000E+00  0.1702E+01  0.0000E+00
   7 -0.6522E-01 -0.1388E+00  0.4700E+00 -0.6717E-01 -0.3000E+00  0.2239E+00  0.2244E+01  0.2605E+01
   8 -0.3656E-01 -0.1015E+00  0.3603E+00 -0.5618E-01 -0.3129E+00  0.1795E+00  0.2127E+01  0.2265E+01
   9 -0.5857E-01 -0.1309E+00  0.4476E+00 -0.7916E-01 -0.3885E+00  0.2037E+00  0.1340E+01  0.2183E+01
  10 -0.5516E-01 -0.1442E+00  0.3825E+00  0.0000E+00  0.0000E+00  0.0000E+00  0.1702E+01  0.0000E+00
  11 -0.6884E-02 -0.4167E-01  0.1652E+00 -0.2060E-01 -0.1371E+00  0.1503E+00  0.6089E+01  0.5396E+01
  12 -0.4400E-01 -0.1001E+00  0.4396E+00 -0.1500E-01 -0.1539E+00  0.9743E-01  0.3230E+01  0.3063E+01
  13 -0.3098E-01 -0.9301E-01  0.3331E+00 -0.4569E-01 -0.2509E+00  0.1821E+00  0.2471E+01  0.2300E+01
  14 -0.3098E-01 -0.9301E-01  0.3331E+00 -0.4569E-01 -0.2509E+00  0.1821E+00  0.2471E+01  0.2300E+01
  15 -0.1655E-01 -0.4575E-01  0.3617E+00  0.0000E+00  0.0000E+00  0.0000E+00  0.5056E+01  0.0000E+00

 SECOND-ORDER R12/A PAIR ENERGIES:

   1   -0.007003678   -0.031237473    0.000000000   -0.000000000     1.33993         2.04112    
   2   -0.005355993   -0.022354045   -0.002892807   -0.009998049     1.33993         2.04112    
   3   -0.009327453   -0.020666248    0.000000000   -0.000000000     1.33993         2.04112    
   4   -0.009097884   -0.039988727   -0.008244077   -0.023445244     1.33993         2.04112    
   5   -0.006605383   -0.020011686   -0.016160267   -0.026298561     1.33993         2.04112    
   6   -0.023787892   -0.045472422    0.000000000   -0.000000000     1.33993         2.04112    
   7   -0.009097884   -0.039988727   -0.008244077   -0.023445244     1.33993         2.04112    
   8   -0.006605383   -0.020011686   -0.016160267   -0.026298561     1.33993         2.04112    
   9   -0.018457377   -0.044671313   -0.033959162   -0.050085196     1.33993         2.04112    
  10   -0.023787892   -0.045472422    0.000000000   -0.000000000     1.33993         2.04112    
  11   -0.002705898   -0.004285197   -0.002363558   -0.006017030     1.33993         2.04112    
  12   -0.008404856   -0.028298348   -0.002472007   -0.004297391     1.33993         2.04112    
  13   -0.005344910   -0.015666623   -0.007920585   -0.016241724     1.33993         2.04112    
  14   -0.005344910   -0.015666623   -0.007920585   -0.016241724     1.33993         2.04112    
  15   -0.010919938   -0.019240551    0.000000000   -0.000000000     1.33993         2.04112    

       -0.151847330   -0.413032089   -0.106337392   -0.202368726

              MP2-R12/A   correlation energy =   -0.615400815

 SECOND-ORDER R12/A' PAIR ENERGIES:

   1   -0.007003678   -0.028063756    0.000000000   -0.000000000     3.14095         3.32968    
   2   -0.005355993   -0.023534154   -0.002892807   -0.009998049     2.24590         2.43463    
   3   -0.009327453   -0.021048817    0.000000000   -0.000000000     1.35085         1.53958    
   4   -0.009097884   -0.039808751   -0.008244077   -0.023375197     2.24044         2.42917    
   5   -0.006605383   -0.020412930   -0.016160267   -0.026352534     1.34539         1.53412    
   6   -0.023787892   -0.045759104    0.000000000   -0.000000000     1.33993         1.52866    
   7   -0.009097884   -0.039808751   -0.008244077   -0.023375197     2.24044         2.42917    
   8   -0.006605383   -0.020412930   -0.016160267   -0.026352534     1.34539         1.53412    
   9   -0.018457377   -0.044671313   -0.033959162   -0.050085196     1.33993         1.52866    
  10   -0.023787892   -0.045759104    0.000000000   -0.000000000     1.33993         1.52866    
  11   -0.002705898   -0.004233157   -0.002363558   -0.005744496     2.39155         2.58028    
  12   -0.008404856   -0.028139031   -0.002472007   -0.004502010     1.49650         1.68523    
  13   -0.005344910   -0.015666623   -0.007920585   -0.016241724     1.49104         1.67977    
  14   -0.005344910   -0.015666623   -0.007920585   -0.016241724     1.49104         1.67977    
  15   -0.010919938   -0.019171415    0.000000000   -0.000000000     1.64215         1.83088    

       -0.151847330   -0.412156460   -0.106337392   -0.202268662

              MP2-R12/A'  correlation energy =   -0.614425122

 SECOND-ORDER NONINVARIANT R12/B PAIR ENERGIES:

   1   -0.007003678   -0.019666799    0.000000000    0.000000000
   2   -0.005355993   -0.015150415   -0.002892807   -0.007181896
   3   -0.009327453   -0.014987948    0.000000000    0.000000000
   4   -0.009097884   -0.026004002   -0.008244077   -0.017012504
   5   -0.006605383   -0.014161400   -0.016160267   -0.022134996
   6   -0.023787892   -0.035316357    0.000000000    0.000000000
   7   -0.009097884   -0.026004002   -0.008244077   -0.017012504
   8   -0.006605383   -0.014161400   -0.016160267   -0.022134996
   9   -0.018457377   -0.031303506   -0.033959162   -0.043674013
  10   -0.023787892   -0.035316357    0.000000000    0.000000000
  11   -0.002705898   -0.003526573   -0.002363558   -0.004578671
  12   -0.008404856   -0.021094960   -0.002472007   -0.003372198
  13   -0.005344910   -0.011638418   -0.007920585   -0.012837574
  14   -0.005344910   -0.011638418   -0.007920585   -0.012837574
  15   -0.010919938   -0.015145658    0.000000000    0.000000000

       -0.151847330   -0.295116213   -0.106337392   -0.162776927

 Noninvariant MP2-R12/B   correlation energy =   -0.457893140

  IJ    V(IJ)       U(IJ)       C(IJ)       V(IJ)       U(IJ)       C(IJ)   

   1 -0.4327E-01 -0.1478E+00  0.2927E+00  0.0000E+00  0.0000E+00  0.0000E+00
   2 -0.3804E-01 -0.1478E+00  0.2574E+00 -0.4017E-01 -0.3762E+00  0.1068E+00
   3 -0.2793E-01 -0.1378E+00  0.2027E+00  0.0000E+00  0.0000E+00  0.0000E+00
   4 -0.6522E-01 -0.2516E+00  0.2592E+00 -0.6717E-01 -0.5145E+00  0.1305E+00
   5 -0.3656E-01 -0.1769E+00  0.2067E+00 -0.5618E-01 -0.5282E+00  0.1064E+00
   6 -0.5516E-01 -0.2640E+00  0.2090E+00  0.0000E+00  0.0000E+00  0.0000E+00
   7 -0.6522E-01 -0.2516E+00  0.2592E+00 -0.6717E-01 -0.5145E+00  0.1305E+00
   8 -0.3656E-01 -0.1769E+00  0.2067E+00 -0.5618E-01 -0.5282E+00  0.1064E+00
   9 -0.5857E-01 -0.2671E+00  0.2193E+00 -0.7916E-01 -0.6450E+00  0.1227E+00
  10 -0.5516E-01 -0.2640E+00  0.2090E+00  0.0000E+00  0.0000E+00  0.0000E+00
  11 -0.6884E-02 -0.5774E-01  0.1192E+00 -0.2060E-01 -0.1916E+00  0.1075E+00
  12 -0.4400E-01 -0.1526E+00  0.2884E+00 -0.1500E-01 -0.2498E+00  0.6003E-01
  13 -0.3098E-01 -0.1525E+00  0.2031E+00 -0.4569E-01 -0.4246E+00  0.1076E+00
  14 -0.3098E-01 -0.1525E+00  0.2031E+00 -0.4569E-01 -0.4246E+00  0.1076E+00
  15 -0.1655E-01 -0.6479E-01  0.2554E+00  0.0000E+00  0.0000E+00  0.0000E+00

 SECOND-ORDER R12/B PAIR ENERGIES:

   1   -0.007003678   -0.020752893    0.000000000   -0.000000000     4.53529         5.04987    
   2   -0.005355993   -0.016061380   -0.002892807   -0.007181896     3.64024         4.15482    
   3   -0.009327453   -0.017095450    0.000000000   -0.000000000     2.74519         3.25977    
   4   -0.009097884   -0.026020690   -0.008244077   -0.017153354     3.63478         4.14936    
   5   -0.006605383   -0.014285018   -0.016160267   -0.022236625     2.73973         3.25431    
   6   -0.023787892   -0.035608603    0.000000000   -0.000000000     2.73427         3.24884    
   7   -0.009097884   -0.026020690   -0.008244077   -0.017153354     3.63478         4.14936    
   8   -0.006605383   -0.014285018   -0.016160267   -0.022236625     2.73973         3.25431    
   9   -0.018457377   -0.031303506   -0.033959162   -0.043674013     2.73427         3.24884    
  10   -0.023787892   -0.035608603    0.000000000   -0.000000000     2.73427         3.24884    
  11   -0.002705898   -0.003854977   -0.002363558   -0.004697356     3.78589         4.30047    
  12   -0.008404856   -0.021643539   -0.002472007   -0.003714104     2.89084         3.40542    
  13   -0.005344910   -0.011638418   -0.007920585   -0.012837574     2.88538         3.39996    
  14   -0.005344910   -0.011638418   -0.007920585   -0.012837574     2.88538         3.39996    
  15   -0.010919938   -0.016643255    0.000000000   -0.000000000     3.03649         3.55107    

       -0.151847330   -0.302460458   -0.106337392   -0.163722475

 Computation of exchange matrix done [4]

              MP2-R12/B   correlation energy =   -0.466182934
 Time for MP2-R12 part cpu :   6.7389999999999999     
 Time for MP2-R12 part wall:   7.2639999985694885     
   

 *******************************************************************
 *                                                                 *
 *<<<<<<<<<<                                             >>>>>>>>>>*
 *<<<<<<<<<< OUTPUT FROM COUPLED CLUSTER ENERGY PROGRAM  >>>>>>>>>>*
 *<<<<<<<<<<                                             >>>>>>>>>>*
 *                                                                 *
 *******************************************************************


             The Direct Coupled Cluster Energy Program
             -----------------------------------------


          Number of t1 amplitudes                 :        23
          Number of t2 amplitudes                 :      1080
          Number of t2' amplitudes for R12 part   :        67
          Total number of amplitudes in ccsd      :      1170

 Iter.  1: Coupled cluster MP2-R12/ energy :    -109.1581864634315622
     Conventional correlation energy:    -0.2581847220304354
     R12 correlation energy         :     0.0000000000000000
     Total correlation energy       :    -0.2581847220304354






             +-------------------------------------------------------+
             ! Final results from the Coupled Cluster energy program !
             +-------------------------------------------------------+



            Total SCF   energy:                  -108.9000017414

            Total MP2-R12/ energy:               -109.1581864634

   

 *******************************************************************
 *                                                                 *
 *<<<<<<<<<<<<< OUTPUT FROM COUPLED CLUSTER RESPONSE  >>>>>>>>>>>>>*
 *                                                                 *
 *<<<<<<<<<<    CALCULATION OF FIRST ORDER PROPERTIES    >>>>>>>>>>*
 *                                                                 *
 *******************************************************************



                    +-----------------------------------------+
                    ! Model is second order pert. theory: MP2 !
                    +-----------------------------------------+



 Analysis of the undifferentiated Lagrangian multipliers:
 --------------------------------------------------------


          CC_PRAM:Overall Contribution of the Different Components
          --------------------------------------------------------



          Single Excitation Contribution :               0.0000 %

          Double Excitation Contribution :             100.0000 %

          ||T1||/||T2||                  :               0.0000

          Norm of Total Amplitude Vector :               0.6513


 +=============================================================================+
 | symmetry|  orbital index  |   Excitation Numbers             |   Amplitude  |
 |  Index  |   a   b   i   j |      NAI      NBJ |     NAIBJ    |              |
 +=============================================================================+
 +-----------------------------------------------------------------------------+
 | 6 6 2 2 |   1   1   1   1 |       15       15 |          588 |   -0.177842  |
 | 7 6 3 2 |   1   1   1   1 |       18       15 |          636 |    0.269125  |
 | 7 7 3 3 |   1   1   1   1 |       18       18 |          639 |   -0.177842  |
 +=============================================================================+


          Norm of Printed Amplitude Vector :             0.3684

          Printed all single excitations greater than 0.010000

          Printed all double excitations greater than 0.166667


                 Constructing right-hand-side for MP2-kappa-0(ai)
                 ------------------------------------------------

 CC_FOP> Norm of RHS vector:   7.1954671774324741E-002


                      Solving for orbital relaxation vector
                      -------------------------------------



  THIS IS OUTPUT FROM THE MCSCF AND SOPPA RESPONSE SOLVER
 ---------------------------------------------------------


 Symmetry of singlet property operator     1
 Number of operators for singlet linear response equations:     1
 Number of response frequencies:     1
 Convergence threshold:     1.00D-07

 Integral transformation: Total CPU and WALL times (sec)       0.019       0.019


 >>>>>>>>>> Symmetry of excitation/property operator    1

 Number of operators for linear response equations:     1
 Number of response frequencies:     1


 RSPLLE -- linear response calculation for symmetry  1
 RSPLLE -- operator no.  1 out of  1
 RSPLLE -- frequencies :  0.000000

 *** THE REQUESTED    1 SOLUTION VECTORS CONVERGED

 *** RSPCTL MICROITERATIONS CONVERGED


 Time used in linear response calculation is      0.17 CPU seconds for symmetry 1

 >>> Total time used in response solver is         0.19 CPU seconds.

   Equations converged to residual less than:  0.000000
  
 Norm of zeta-kappa-0:   5.6133994814288136E-002
 CCFOP: call CC_D1AO to recalc the 1e Density
  


             +--------------------------------------------------------+
             !   Relaxed  MP2    First-order one-electron properties: !
             +--------------------------------------------------------+



                          +-----------------------------+
                          !  Electric Quadrupole Moment !
                          +-----------------------------+



                        Total Molecular quadrupole moment
                        ---------------------------------

                    X              Y              Z

               Column   1     Column   2     Column   3
       1       0.95859741     0.00000000     0.00000000
       2       0.00000000     0.95859741     0.00000000
       3       0.00000000     0.00000000    -1.91719482
    ==== End of matrix output ====


                      +-------------------------------------+
                      !  Electronic second moment of charge !
                      +-------------------------------------+

                    X              Y              Z

               Column   1     Column   2     Column   3
       1       7.29328505     0.00000000     0.00000000
       2       0.00000000     7.29328505     0.00000000
       3       0.00000000     0.00000000    24.27021939
    ==== End of matrix output ====

 Alfa**2 Invariant:                        167.761121
 Beta**2 Invariant:                        288.216300

 Isotropic Property:                        12.952263 a.u.
 Property anisotropy invariant:             16.976934 a.u.
   

 *******************************************************************
 *                                                                 *
 *<<<<<<<<<<<<< OUTPUT FROM COUPLED CLUSTER RESPONSE  >>>>>>>>>>>>>*
 *                                                                 *
 *<<<<<<<<<<    CALCULATION OF FIRST ORDER PROPERTIES    >>>>>>>>>>*
 *                                                                 *
 *******************************************************************



                    +-----------------------------------------+
                    ! Model is second order pert. theory: MP2 !
                    +-----------------------------------------+



 Analysis of the undifferentiated Lagrangian multipliers:
 --------------------------------------------------------


          CC_PRAM:Overall Contribution of the Different Components
          --------------------------------------------------------



          Single Excitation Contribution :               0.0000 %

          Double Excitation Contribution :             100.0000 %

          ||T1||/||T2||                  :               0.0000

          Norm of Total Amplitude Vector :               0.6513


 +=============================================================================+
 | symmetry|  orbital index  |   Excitation Numbers             |   Amplitude  |
 |  Index  |   a   b   i   j |      NAI      NBJ |     NAIBJ    |              |
 +=============================================================================+
 +-----------------------------------------------------------------------------+
 | 6 6 2 2 |   1   1   1   1 |       15       15 |          588 |   -0.177842  |
 | 7 6 3 2 |   1   1   1   1 |       18       15 |          636 |    0.269125  |
 | 7 7 3 3 |   1   1   1   1 |       18       18 |          639 |   -0.177842  |
 +=============================================================================+


          Norm of Printed Amplitude Vector :             0.3684

          Printed all single excitations greater than 0.010000

          Printed all double excitations greater than 0.166667


                 Constructing right-hand-side for MP2-kappa-0(ai)
                 ------------------------------------------------

 CC_FOP> Norm of RHS vector:   7.2441949876839634E-002


                      Solving for orbital relaxation vector
                      -------------------------------------



  THIS IS OUTPUT FROM THE MCSCF AND SOPPA RESPONSE SOLVER
 ---------------------------------------------------------


 Symmetry of singlet property operator     1
 Number of operators for singlet linear response equations:     1
 Number of response frequencies:     1
 Convergence threshold:     1.00D-07

 Integral transformation: Total CPU and WALL times (sec)       0.020       0.021


 >>>>>>>>>> Symmetry of excitation/property operator    1

 Number of operators for linear response equations:     1
 Number of response frequencies:     1


 RSPLLE -- linear response calculation for symmetry  1
 RSPLLE -- operator no.  1 out of  1
 RSPLLE -- frequencies :  0.000000

 *** THE REQUESTED    1 SOLUTION VECTORS CONVERGED

 *** RSPCTL MICROITERATIONS CONVERGED


 Time used in linear response calculation is      0.20 CPU seconds for symmetry 1

 >>> Total time used in response solver is         0.22 CPU seconds.

   Equations converged to residual less than:  0.000000
  
 Norm of zeta-kappa-0:   5.5504811840700163E-002
 CCFOP: call CC_D1AO to recalc the 1e Density
  


             +--------------------------------------------------------+
             !   Relaxed  MP2    First-order one-electron properties: !
             +--------------------------------------------------------+



                          +-----------------------------+
                          !  Electric Quadrupole Moment !
                          +-----------------------------+



                        Total Molecular quadrupole moment
                        ---------------------------------

                    X              Y              Z

               Column   1     Column   2     Column   3
       1       0.96497590     0.00000000     0.00000000
       2       0.00000000     0.96497590     0.00000000
       3       0.00000000     0.00000000    -1.92995180
    ==== End of matrix output ====


                      +-------------------------------------+
                      !  Electronic second moment of charge !
                      +-------------------------------------+

                    X              Y              Z

               Column   1     Column   2     Column   3
       1       7.29162303     0.00000000     0.00000000
       2       0.00000000     7.29162303     0.00000000
       3       0.00000000     0.00000000    24.28131434
    ==== End of matrix output ====

 Alfa**2 Invariant:                        167.828228
 Beta**2 Invariant:                        288.649611

 Isotropic Property:                        12.954853 a.u.
 Property anisotropy invariant:             16.989691 a.u.
   

 *******************************************************************
 *                                                                 *
 *<<<<<<<<<<<<< OUTPUT FROM COUPLED CLUSTER RESPONSE  >>>>>>>>>>>>>*
 *                                                                 *
 *<<<<<<<<<<    CALCULATION OF FIRST ORDER PROPERTIES    >>>>>>>>>>*
 *                                                                 *
 *******************************************************************



                    +-----------------------------------------+
                    ! Model is second order pert. theory: MP2 !
                    +-----------------------------------------+



 Analysis of the undifferentiated Lagrangian multipliers:
 --------------------------------------------------------


          CC_PRAM:Overall Contribution of the Different Components
          --------------------------------------------------------



          Single Excitation Contribution :               0.0000 %

          Double Excitation Contribution :             100.0000 %

          ||T1||/||T2||                  :               0.0000

          Norm of Total Amplitude Vector :               0.6513


 +=============================================================================+
 | symmetry|  orbital index  |   Excitation Numbers             |   Amplitude  |
 |  Index  |   a   b   i   j |      NAI      NBJ |     NAIBJ    |              |
 +=============================================================================+
 +-----------------------------------------------------------------------------+
 | 6 6 2 2 |   1   1   1   1 |       15       15 |          588 |   -0.177842  |
 | 7 6 3 2 |   1   1   1   1 |       18       15 |          636 |    0.269125  |
 | 7 7 3 3 |   1   1   1   1 |       18       18 |          639 |   -0.177842  |
 +=============================================================================+


          Norm of Printed Amplitude Vector :             0.3684

          Printed all single excitations greater than 0.010000

          Printed all double excitations greater than 0.166667


                 Constructing right-hand-side for MP2-kappa-0(ai)
                 ------------------------------------------------

 CC_FOP> Norm of RHS vector:   7.3701417350266862E-002


                      Solving for orbital relaxation vector
                      -------------------------------------



  THIS IS OUTPUT FROM THE MCSCF AND SOPPA RESPONSE SOLVER
 ---------------------------------------------------------


 Symmetry of singlet property operator     1
 Number of operators for singlet linear response equations:     1
 Number of response frequencies:     1
 Convergence threshold:     1.00D-07

 Integral transformation: Total CPU and WALL times (sec)       0.023       0.024


 >>>>>>>>>> Symmetry of excitation/property operator    1

 Number of operators for linear response equations:     1
 Number of response frequencies:     1


 RSPLLE -- linear response calculation for symmetry  1
 RSPLLE -- operator no.  1 out of  1
 RSPLLE -- frequencies :  0.000000

 *** THE REQUESTED    1 SOLUTION VECTORS CONVERGED

 *** RSPCTL MICROITERATIONS CONVERGED


 Time used in linear response calculation is      0.19 CPU seconds for symmetry 1

 >>> Total time used in response solver is         0.22 CPU seconds.

   Equations converged to residual less than:  0.000000
  
 Norm of zeta-kappa-0:   4.4921021299570374E-002
 CCFOP: call CC_D1AO to recalc the 1e Density
  


             +--------------------------------------------------------+
             !   Relaxed  MP2    First-order one-electron properties: !
             +--------------------------------------------------------+



                          +-----------------------------+
                          !  Electric Quadrupole Moment !
                          +-----------------------------+



                        Total Molecular quadrupole moment
                        ---------------------------------

                    X              Y              Z

               Column   1     Column   2     Column   3
       1       0.98147312     0.00000000     0.00000000
       2       0.00000000     0.98147312     0.00000000
       3       0.00000000     0.00000000    -1.96294624
    ==== End of matrix output ====


                      +-------------------------------------+
                      !  Electronic second moment of charge !
                      +-------------------------------------+

                    X              Y              Z

               Column   1     Column   2     Column   3
       1       7.38346067     0.00000000     0.00000000
       2       0.00000000     7.38346067     0.00000000
       3       0.00000000     0.00000000    24.40614642
    ==== End of matrix output ====

 Alfa**2 Invariant:                        170.503249
 Beta**2 Invariant:                        289.771830

 Isotropic Property:                        13.057689 a.u.
 Property anisotropy invariant:             17.022686 a.u.

 *******************************************************************

 Ground state energy is target 

 Ecorr =                   -109.15818646343156217426

 *******************************************************************

 requested model not yet implemented
  

 *******************************************************************************
 *******************************************************************************
 *                                                                             *
 *                                                                             *
 *                   SUMMARY OF COUPLED CLUSTER CALCULATION                    *
 *                                                                             *
 *                                                                             *
 *******************************************************************************
 *******************************************************************************

                                                                                
                                                                                
            Total SCF   energy:                  -108.9000017414                
            Total MP2-R12/ energy:               -109.1581864634                
  

 *******************************************************************************
 *******************************************************************************
 *                                                                             *
 *                                                                             *
 *                      END OF COUPLED CLUSTER CALCULATION                     *
 *                                                                             *
 *                                                                             *
 *******************************************************************************
 *******************************************************************************


 >>>> CPU and wall time for CC :       7.386       7.931

 
     Date and time (Linux)  : Sun Sep  8 20:59:09 2013
     Host name              : lpqlx131.ups-tlse.fr                    


                      .-------------------------------------.
                      | End of Coupled Cluster Section (CC) |
                      `-------------------------------------'

 >>>> Total CPU  time used in DALTON:   7.78 seconds
 >>>> Total wall time used in DALTON:   8.33 seconds

 
     Date and time (Linux)  : Sun Sep  8 20:59:09 2013
     Host name              : lpqlx131.ups-tlse.fr                    
