

     ************************************************************************
     *************** Dalton - An Electronic Structure Program ***************
     ************************************************************************

    This is output from DALTON (Release Dalton2013 patch 0)
   ----------------------------------------------------------------------------
    NOTE:
     
    Dalton is an experimental code for the evaluation of molecular
    properties using (MC)SCF, DFT, CI, and CC wave functions.
    The authors accept no responsibility for the performance of
    the code or for the correctness of the results.
     
    The code (in whole or part) is provided under a licence and
    is not to be reproduced for further distribution without
    the written permission of the authors or their representatives.
     
    See the home page "http://daltonprogram.org" for further information.
     
    If results obtained with this code are published,
    the appropriate citations would be both of:
     
       K. Aidas, C. Angeli, K. L. Bak, V. Bakken, R. Bast,
       L. Boman, O. Christiansen, R. Cimiraglia, S. Coriani,
       P. Dahle, E. K. Dalskov, U. Ekstroem, T. Enevoldsen,
       J. J. Eriksen, P. Ettenhuber, B. Fernandez, L. Ferrighi,
       H. Fliegl, L. Frediani, K. Hald, A. Halkier, C. Haettig,
       H. Heiberg, T. Helgaker, A. C. Hennum, H. Hettema,
       E. Hjertenaes, S. Hoest, I.-M. Hoeyvik, M. F. Iozzi,
       B. Jansik, H. J. Aa. Jensen, D. Jonsson, P. Joergensen,
       J. Kauczor, S. Kirpekar, T. Kjaergaard, W. Klopper,
       S. Knecht, R. Kobayashi, H. Koch, J. Kongsted, A. Krapp,
       K. Kristensen, A. Ligabue, O. B. Lutnaes, J. I. Melo,
       K. V. Mikkelsen, R. H. Myhre, C. Neiss, C. B. Nielsen,
       P. Norman, J. Olsen, J. M. H. Olsen, A. Osted,
       M. J. Packer, F. Pawlowski, T. B. Pedersen, P. F. Provasi,
       S. Reine, Z. Rinkevicius, T. A. Ruden, K. Ruud, V. Rybkin,
       P. Salek, C. C. M. Samson, A. Sanchez de Meras, T. Saue,
       S. P. A. Sauer, B. Schimmelpfennig, K. Sneskov,
       A. H. Steindal, K. O. Sylvester-Hvid, P. R. Taylor,
       A. M. Teale, E. I. Tellgren, D. P. Tew, A. J. Thorvaldsen,
       L. Thoegersen, O. Vahtras, M. A. Watson, D. J. D. Wilson,
       M. Ziolkowski and H. Agren.
       The Dalton quantum chemistry program system.
       WIREs Comput. Mol. Sci. 2013. doi: 10.1002/wcms.1172
    
    and
    
       Dalton, a Molecular Electronic Structure Program,
       Release DALTON2013.0 (2013), see http://daltonprogram.org
   ----------------------------------------------------------------------------

    Authors in alphabetical order (major contribution(s) in parenthesis):

  Kestutis Aidas,           Vilnius University,           Lithuania   (QM/MM)
  Celestino Angeli,         University of Ferrara,        Italy       (NEVPT2)
  Keld L. Bak,              UNI-C,                        Denmark     (AOSOPPA, non-adiabatic coupling, magnetic properties)
  Vebjoern Bakken,          University of Oslo,           Norway      (DALTON; geometry optimizer, symmetry detection)
  Radovan Bast,             KTH Stockholm                 Sweden      (DALTON installation and execution frameworks)
  Linus Boman,              NTNU,                         Norway      (Cholesky decomposition and subsystems)
  Ove Christiansen,         Aarhus University,            Denmark     (CC module)
  Renzo Cimiraglia,         University of Ferrara,        Italy       (NEVPT2)
  Sonia Coriani,            University of Trieste,        Italy       (CC module, MCD in RESPONS)
  Paal Dahle,               University of Oslo,           Norway      (Parallelization)
  Erik K. Dalskov,          UNI-C,                        Denmark     (SOPPA)
  Thomas Enevoldsen,        Univ. of Southern Denmark,    Denmark     (SOPPA)
  Janus J. Eriksen,         Aarhus University,            Denmark     (PE-MP2/SOPPA, TDA)
  Berta Fernandez,          U. of Santiago de Compostela, Spain       (doublet spin, ESR in RESPONS)
  Lara Ferrighi,            Aarhus University,            Denmark     (PCM Cubic response)
  Heike Fliegl,             University of Oslo,           Norway      (CCSD(R12))
  Luca Frediani,            UiT The Arctic U. of Norway,  Norway      (PCM)
  Bin Gao,                  UiT The Arctic U. of Norway,  Norway      (Gen1Int library)
  Christof Haettig,         Ruhr-University Bochum,       Germany     (CC module)
  Kasper Hald,              Aarhus University,            Denmark     (CC module)
  Asger Halkier,            Aarhus University,            Denmark     (CC module)
  Hanne Heiberg,            University of Oslo,           Norway      (geometry analysis, selected one-electron integrals)
  Trygve Helgaker,          University of Oslo,           Norway      (DALTON; ABACUS, ERI, DFT modules, London, and much more)
  Alf Christian Hennum,     University of Oslo,           Norway      (Parity violation)
  Hinne Hettema,            University of Auckland,       New Zealand (quadratic response in RESPONS; SIRIUS supersymmetry)
  Eirik Hjertenaes,         NTNU,                         Norway      (Cholesky decomposition)
  Maria Francesca Iozzi,    University of Oslo,           Norway      (RPA)
  Brano Jansik              Technical Univ. of Ostrava    Czech Rep.  (DFT cubic response)
  Hans Joergen Aa. Jensen,  Univ. of Southern Denmark,    Denmark     (DALTON; SIRIUS, RESPONS, ABACUS modules, London, and much more)
  Dan Jonsson,              UiT The Arctic U. of Norway,  Norway      (cubic response in RESPONS module)
  Poul Joergensen,          Aarhus University,            Denmark     (RESPONS, ABACUS, and CC modules)
  Joanna Kauczor,           Linkoeping University,        Sweden      (Complex polarization propagator (CPP) module)
  Sheela Kirpekar,          Univ. of Southern Denmark,    Denmark     (Mass-velocity & Darwin integrals)
  Wim Klopper,              KIT Karlsruhe,                Germany     (R12 code in CC, SIRIUS, and ABACUS modules)
  Stefan Knecht,            ETH Zurich,                   Switzerland (Parallel CI and MCSCF)
  Rika Kobayashi,           Australian National Univ.,    Australia   (DIIS in CC, London in MCSCF)
  Henrik Koch,              NTNU,                         Norway      (CC module, Cholesky decomposition)
  Jacob Kongsted,           Univ. of Southern Denmark,    Denmark     (Polarizable embedding, QM/MM)
  Andrea Ligabue,           University of Modena,         Italy       (CTOCD, AOSOPPA)
  Ola B. Lutnaes,           University of Oslo,           Norway      (DFT Hessian)
  Juan I. Melo,             University of Buenos Aires,   Argentina   (LRESC, Relativistic Effects on NMR Shieldings)
  Kurt V. Mikkelsen,        University of Copenhagen,     Denmark     (MC-SCRF and QM/MM)
  Rolf H. Myhre,            NTNU,                         Norway      (Cholesky, subsystems and ECC2)
  Christian Neiss,          Univ. Erlangen-Nuernberg,     Germany     (CCSD(R12))
  Christian B. Nielsen,     University of Copenhagen,     Denmark     (QM/MM)
  Patrick Norman,           Linkoeping University,        Sweden      (Cubic response and complex response in RESPONS)
  Jeppe Olsen,              Aarhus University,            Denmark     (SIRIUS CI/density modules)
  Jogvan Magnus H. Olsen,   Univ. of Southern Denmark,    Denmark     (Polarizable embedding, PE library, QM/MM)
  Anders Osted,             Copenhagen University,        Denmark     (QM/MM)
  Martin J. Packer,         University of Sheffield,      UK          (SOPPA)
  Filip Pawlowski,          Kazimierz Wielki University   Poland      (CC3)
  Thomas B. Pedersen,       University of Oslo,           Norway      (Cholesky decomposition)
  Patricio F. Provasi,      University of Northeastern,   Argentina   (Analysis of coupling constants in localized orbitals)
  Zilvinas Rinkevicius,     KTH Stockholm,                Sweden      (open-shell DFT, ESR)
  Elias Rudberg,            KTH Stockholm,                Sweden      (DFT grid and basis info)
  Torgeir A. Ruden,         University of Oslo,           Norway      (Numerical derivatives in ABACUS)
  Kenneth Ruud,             UiT The Arctic U. of Norway,  Norway      (DALTON; ABACUS magnetic properties and  much more)
  Pawel Salek,              KTH Stockholm,                Sweden      (DALTON; DFT code)
  Claire C. M. Samson       University of Karlsruhe       Germany     (Boys localization, r12 integrals in ERI)
  Alfredo Sanchez de Meras, University of Valencia,       Spain       (CC module, Cholesky decomposition)
  Trond Saue,               Paul Sabatier University,     France      (direct Fock matrix construction)
  Stephan P. A. Sauer,      University of Copenhagen,     Denmark     (SOPPA(CCSD), SOPPA prop., AOSOPPA, vibrational g-factors)
  Bernd Schimmelpfennig,    Forschungszentrum Karlsruhe,  Germany     (AMFI module)
  Kristian Sneskov,         Aarhus University,            Denmark     (QM/MM, PE-CC)
  Arnfinn H. Steindal,      UiT The Arctic U. of Norway,  Norway      (parallel QM/MM)
  K. O. Sylvester-Hvid,     University of Copenhagen,     Denmark     (MC-SCRF)
  Peter R. Taylor,          VLSCI/Univ. of Melbourne,     Australia   (Symmetry handling ABACUS, integral transformation)
  Andrew M. Teale,          University of Nottingham,     England     (DFT-AC, DFT-D)
  David P. Tew,             University of Bristol,        England     (CCSD(R12))
  Olav Vahtras,             KTH Stockholm,                Sweden      (triplet response, spin-orbit, ESR, TDDFT, open-shell DFT)
  David J. Wilson,          La Trobe University,          Australia   (DFT Hessian and DFT magnetizabilities)
  Hans Agren,               KTH Stockholm,                Sweden      (SIRIUS module, RESPONS, MC-SCRF solvation model)
 --------------------------------------------------------------------------------

     Date and time (Linux)  : Sun Sep  8 21:00:23 2013
     Host name              : lpqlx131.ups-tlse.fr                    

 * Work memory size             :    64000000 =  488.28 megabytes.

 * Directories for basis set searches:
   1) /home/bast/DALTON-2013.0-Source/build/test_r12_cabs
   2) /home/bast/DALTON-2013.0-Source/build/basis


Compilation information
-----------------------

 Who compiled             | bast
 Host                     | lpqlx131.ups-tlse.fr
 System                   | Linux-3.8.5-201.fc18.x86_64
 CMake generator          | Unix Makefiles
 Processor                | x86_64
 64-bit integers          | OFF
 MPI                      | OFF
 Fortran compiler         | /usr/bin/gfortran
 Fortran compiler version | GNU Fortran (GCC) 4.7.2 20121109 (Red Hat 4.7.2-8)
 C compiler               | /usr/bin/gcc
 C compiler version       | gcc (GCC) 4.7.2 20121109 (Red Hat 4.7.2-8)
 C++ compiler             | /usr/bin/g++
 C++ compiler version     | g++ (GCC) 4.7.2 20121109 (Red Hat 4.7.2-8)
 Static linking           | OFF
 Last Git revision        | f34203295a86316e27f9e7b44f9b6769c4a046c0
 Configuration time       | 2013-09-08 20:31:27.952056


   Content of the .dal input file
 ----------------------------------

**DALTON INPUT                                    
.RUN WAVE FUNCTION                                
.DIRECT                                           
*MOLBAS                                           
.R12AUX                                           
**INTEGRALS                                       
.R12RSG                                           
0.5                                               
3                                                 
**WAVE FUNCTIONS                                  
.CC                                               
*ORBITALS                                         
.MOSTART                                          
 H1DIAG                                           
.FROZEN                                           
 1                                                
.R12ORB                                           
 7                                                
*SCF INPUT                                        
.THRESHOLD                                        
 1D-10                                            
*CC INPUT                                         
.HERDIR                                           
.MP2                                              
.PRINT                                            
 3                                                
*R12                                              
.CABS                                             
.R12XXL                                           
**END OF DALTON INPUT                             


   Content of the .mol file
 ----------------------------

INTGRL                                                                         
Methane                                                                        
                                                                               
    4  0 0            0.10D-14                                                 
 1      6.    1    2    1    1                                                 
C        1.0900000000000    -0.1200000000000     7.2890100000000               
H  11    5                                                                     
    13575.3496800000        0.0002224600        0.0000000000        0.000000000
                            0.0000000000        0.0000000000                   
     2035.2333680000        0.0017232700        0.0000000000        0.000000000
                            0.0000000000        0.0000000000                   
      463.2256236000        0.0089255700        0.0000000000        0.000000000
                            0.0000000000        0.0000000000                   
      131.2001960000        0.0357279800        0.0000000000        0.000000000
                            0.0000000000        0.0000000000                   
       42.8530158900        0.1107626000        0.0000000000        0.000000000
                            0.0000000000        0.0000000000                   
       15.5841857700        0.2429562800        0.0000000000        0.000000000
                            0.0000000000        0.0000000000                   
        6.2067138500        0.0000000000        0.4144026300        0.000000000
                            0.0000000000        0.0000000000                   
        2.5764896500        0.0000000000        0.2374496900        0.000000000
                            0.0000000000        0.0000000000                   
        0.5769633900        0.0000000000        0.0000000000        1.000000000
                            0.0000000000        0.0000000000                   
        0.2297283100        0.0000000000        0.0000000000        0.000000000
                            1.0000000000        0.0000000000                   
        0.0951644400        0.0000000000        0.0000000000        0.000000000
                            0.0000000000        1.0000000000                   
H   6    3                                                                     
       34.6972322400        0.0053333700        0.0000000000        0.000000000
        7.9582622800        0.0358641100        0.0000000000        0.000000000
        2.3780826900        0.1421587300        0.0000000000        0.000000000
        0.8143320800        0.3427047200        0.0000000000        0.000000000
        0.2888754700        0.0000000000        1.0000000000        0.000000000
        0.1005682400        0.0000000000        0.0000000000        1.000000000
 1      1.    4    1    1                                                      
H        2.8715308320486     0.1736528344531     8.5657410000000               
H       -0.6915308320486    -0.4136528344531     8.5657410000000               
H        0.7963471655469     1.6615308320486     6.0122790000000               
H        1.3836528344531    -1.9015308320486     6.0122790000000               
H   5    3                                                                     
       34.0613410000        0.0060252000        0.0000000000        0.000000000
        5.1235746000        0.0450210900        0.0000000000        0.000000000
        1.1646626000        0.2018972600        0.0000000000        0.000000000
        0.3272304000        0.0000000000        1.0000000000        0.000000000
        0.1030724000        0.0000000000        0.0000000000        1.000000000
 2      0.    1    3    0    0    1                                            
C        1.0900000000000    -0.1200000000000     7.2890100000000               
H   1    1                                                                     
        0.8000000000        1.0000000000                                       
 2      0.    4    2    0    1                                                 
H        2.8715308320486     0.1736528344531     8.5657410000000               
H       -0.6915308320486    -0.4136528344531     8.5657410000000               
H        0.7963471655469     1.6615308320486     6.0122790000000               
H        1.3836528344531    -1.9015308320486     6.0122790000000               
H   1    1                                                                     
        0.8000000000        1.0000000000                                       


       *******************************************************************
       *********** Output from DALTON general input processing ***********
       *******************************************************************

 --------------------------------------------------------------------------------
   Overall default print level:    0
   Print level for DALTON.STAT:    1

    AO-direct calculation (in sections where implemented)
    HERMIT 1- and 2-electron integral sections will be executed
    "Old" integral transformation used (limited to max 255 basis functions)
    Wave function sections will be executed (SIRIUS module)
 --------------------------------------------------------------------------------


 Changes of defaults for *MOLBAS:
 --------------------------------

 Print level in molecule setup (READIN):    1

 .R12AUX: Reading auxiliary basis sets from .mol file for R12



   ****************************************************************************
   *************** Output of molecule and basis set information ***************
   ****************************************************************************


    The two title cards from your ".mol" input:
    ------------------------------------------------------------------------
 1: Methane                                                                 
 2:                                                                         
    ------------------------------------------------------------------------

  Atomic type no.    1
  --------------------
  Nuclear charge:   6.00000
  Number of symmetry independent centers:    1
  Number of basis sets to read;    1

  Atomic type no.    2
  --------------------
  Nuclear charge:   1.00000
  Number of symmetry independent centers:    4
  Number of basis sets to read;    1

  Atomic type no.    3
  --------------------
  Nuclear charge:   0.00000
  Number of symmetry independent centers:    1
  This is an auxiliary basis for R12, MBSI:    2

  Atomic type no.    4
  --------------------
  Nuclear charge:   0.00000
  Number of symmetry independent centers:    4
  This is an auxiliary basis for R12, MBSI:    2


                         SYMGRP: Point group information
                         -------------------------------

Point group: C1 


                                 Isotopic Masses
                                 ---------------

                           C          12.000000
                           H           1.007825
                           H           1.007825
                           H           1.007825
                           H           1.007825

                       Total mass:    16.031300 amu
                       Natural abundance:  98.841 %

 Center-of-mass coordinates (a.u.):    1.090000   -0.120000    7.289010


  Atoms and basis sets
  --------------------

  Number of atom types :    4
  Total number of atoms:   10

  label  basis   atoms  charge   prim  cont     basis
  ------------------------------------------------------------------------------
  C        1       1    6.0000    29    14      [11s6p|5s3p]                                       
  H        1       4    1.0000     5     3      [5s|3s]                                            
  C        2       1    0.0000     5     5      [1d|1d]                                            
  H        2       4    0.0000     3     3      [1p|1p]                                            
  ------------------------------------------------------------------------------
  total:          10   10.0000    66    43
  ------------------------------------------------------------------------------
  Spherical harmonic basis used.

  Threshold for neglecting AO integrals:  1.00D-15


  Cartesian Coordinates (a.u.)
  ----------------------------

  Total number of coordinates:   30
  C       :     1  x   1.0900000000    2  y  -0.1200000000    3  z   7.2890100000
  H       :     4  x   2.8715308320    5  y   0.1736528345    6  z   8.5657410000
  H       :     7  x  -0.6915308320    8  y  -0.4136528345    9  z   8.5657410000
  H       :    10  x   0.7963471655   11  y   1.6615308320   12  z   6.0122790000
  H       :    13  x   1.3836528345   14  y  -1.9015308320   15  z   6.0122790000
  C       :    16  x   1.0900000000   17  y  -0.1200000000   18  z   7.2890100000
  H       :    19  x   2.8715308320   20  y   0.1736528345   21  z   8.5657410000
  H       :    22  x  -0.6915308320   23  y  -0.4136528345   24  z   8.5657410000
  H       :    25  x   0.7963471655   26  y   1.6615308320   27  z   6.0122790000
  H       :    28  x   1.3836528345   29  y  -1.9015308320   30  z   6.0122790000


   Interatomic separations (in Angstrom):
   --------------------------------------

            C           H           H           H           H           C     
            ------      ------      ------      ------      ------      ------
 C     :    0.000000
 H     :    1.170203    0.000000
 H     :    1.170203    1.910933    0.000000
 H     :    1.170203    1.910933    1.910933    0.000000
 H     :    1.170203    1.910933    1.910933    1.910933    0.000000
 C     :    0.000000    1.170203    1.170203    1.170203    1.170203    0.000000
 H     :    1.170203    0.000000    1.910933    1.910933    1.910933    1.170203
 H     :    1.170203    1.910933    0.000000    1.910933    1.910933    1.170203
 H     :    1.170203    1.910933    1.910933    0.000000    1.910933    1.170203
 H     :    1.170203    1.910933    1.910933    1.910933    0.000000    1.170203

            H           H           H           H     
            ------      ------      ------      ------
 H     :    0.000000
 H     :    1.910933    0.000000
 H     :    1.910933    1.910933    0.000000
 H     :    1.910933    1.910933    1.910933    0.000000


  Max    interatomic separation is    1.9109 Angstrom (    3.6111 Bohr)
  between atoms    3 and    2, "H     " and "H     ".

  Min HX interatomic separation is    0.0000 Angstrom (    0.0000 Bohr)

  Min YX interatomic separation is    0.0000 Angstrom (    0.0000 Bohr)

WARNING: Number of short HX and YX bond lengths:    4    1
WARNING: If not intentional, maybe your coordinates were in Angstrom,
WARNING: but "Angstrom" was not specified in .mol file


  Bond distances (Angstrom):
  --------------------------

                  atom 1     atom 2       distance
                  ------     ------       --------
  bond distance:  H          C            1.170203
  bond distance:  H          C            1.170203
  bond distance:  H          C            1.170203
  bond distance:  H          C            1.170203


  Bond angles (degrees):
  ----------------------

                  atom 1     atom 2     atom 3         angle
                  ------     ------     ------         -----
  bond angle:     H          C          H            109.471
  bond angle:     H          C          H            109.471
  bond angle:     H          C          H            109.471
  bond angle:     H          C          H            109.471
  bond angle:     H          C          H            109.471
  bond angle:     H          C          H            109.471




 Principal moments of inertia (u*A**2) and principal axes
 --------------------------------------------------------

   IA       3.680240          1.000000    0.000000    0.000000
   IB       3.680240          0.000000    1.000000    0.000000
   IC       3.680240          0.000000    0.000000    1.000000


 Rotational constants
 --------------------

               A                   B                   C

         137322.2814         137322.2814         137322.2814 MHz
            4.580578            4.580578            4.580578 cm-1


@  Nuclear repulsion energy :   12.514560078913 Hartree

  Number of main orbitals in each symmetry:          26
  Number of auxiliary functions in each symmetry:    17

  Number of floating/multiple basis set orbitals :    5


                     .---------------------------------------.
                     | Starting in Integral Section (HERMIT) |
                     `---------------------------------------'



    *************************************************************************
    ****************** Output from HERMIT input processing ******************
    *************************************************************************


 Default print level:        1

 * Nuclear model: Point charge

 Calculation of one-electron Hamiltonian integrals.

 The following one-electron property integrals are calculated as requested:
          - overlap integrals
          - Cartesian multipole moment integrals of orders 2 and lower

 Center of mass  (bohr):      1.090000000000     -0.120000000000      7.289010000000
 Operator center (bohr):      0.000000000000      0.000000000000      0.000000000000
 Gauge origin    (bohr):      0.000000000000      0.000000000000      0.000000000000
 Dipole origin   (bohr):      0.000000000000      0.000000000000      0.000000000000


     ************************************************************************
     ************************** Output from HERINT **************************
     ************************************************************************

 >>>> Total CPU  time used in HERMIT:   0.03 seconds
 >>>> Total wall time used in HERMIT:   0.03 seconds


                        .----------------------------------.
                        | End of Integral Section (HERMIT) |
                        `----------------------------------'



                   .--------------------------------------------.
                   | Starting in Wave Function Section (SIRIUS) |
                   `--------------------------------------------'


 >>>> Detected R12 input:
 Direct Fock matrix formation switched on!
 Scale factors for CC excitations manifolds:
 for bra states (projection manifold):   1.0000000000000000     
 for ket states (operator manifold)  :   1.0000000000000000     

 **********************************************************************
 *SIRIUS* a direct, restricted step, second order MCSCF program       *
 **********************************************************************

 
     Date and time (Linux)  : Sun Sep  8 21:00:23 2013
     Host name              : lpqlx131.ups-tlse.fr                    

 Title lines from ".mol" input file:
     Methane                                                                 
                                                                             

 Print level on unit LUPRI =   2 is   0
 Print level on unit LUW4  =   2 is   5

@    (Integral direct) CC calculation.

@    This is a combination run starting with
@              a restricted, closed shell Hartree-Fock calculation

 Fock matrices are calculated directly without use of integrals on disk.

 Initial molecular orbitals are obtained according to
 ".MOSTART H1DIAG" input option

     Wave function specification
     ============================

     For the specification of the Coupled Cluster: see later.

@    For the wave function of type :      >>> CC <<<
@    Number of closed shell electrons          10
@    Number of electrons in active shells       0
@    Total charge of the molecule               0

@    Spin multiplicity and 2 M_S                1         0
     Total number of symmetries                 1
@    Reference state symmetry                   1

     Orbital specifications
     ======================
     Abelian symmetry species          All |    1
                                       --- |  ---
@    Occupied SCF orbitals               5 |    5
     Secondary orbitals                 21 |   21
     Total number of orbitals           26 |   26
     Number of basis functions          43 |   43

     Optimization information
     ========================
@    Number of configurations                 1
@    Number of orbital rotations            105
     ------------------------------------------
@    Total number of variables              106

     Maximum number of Fock   iterations      0
     Maximum number of DIIS   iterations     60
     Maximum number of QC-SCF iterations     60
     Threshold for SCF convergence     1.00D-10


 Changes of defaults for CC:
 ---------------------------


 -This is a direct atomic orbital integral based
  calculation for coupled cluster wave function

 -Implicit frozen core calculation
  


 >>>>> DIIS optimization of Hartree-Fock <<<<<

 C1-DIIS algorithm; max error vectors =   10

 Iter      Total energy        Error norm    Delta(E)  DIIS dim.
 -----------------------------------------------------------------------------
   1  Screening settings (-IFTHRS, DIFDEN)   -7    T
@  1    -29.2237640129        1.32931D+01   -2.92D+01    1
      Virial theorem: -V/T =      1.454438
@      MULPOP C      -4.22; H       1.05; H       1.05; H       1.05; H       1.05; 
 -----------------------------------------------------------------------------
   2  Screening settings (-IFTHRS, DIFDEN)   -7    T
@  2    -34.8133409941        5.65026D+00   -5.59D+00    2
      Virial theorem: -V/T =      2.081911
@      MULPOP C       9.91; H      -2.48; H      -2.48; H      -2.48; H      -2.48; 
 -----------------------------------------------------------------------------
   3  Screening settings (-IFTHRS, DIFDEN)   -7    T
@  3    -39.2350220354        4.08977D+00   -4.42D+00    3
      Virial theorem: -V/T =      1.896390
@      MULPOP C      -1.67; H       0.42; H       0.42; H       0.42; H       0.42; 
 -----------------------------------------------------------------------------
   4  Screening settings (-IFTHRS, DIFDEN)   -7    T
@  4    -40.0919660080        1.08782D+00   -8.57D-01    4
      Virial theorem: -V/T =      1.985113
@      MULPOP C      -0.74; H       0.18; H       0.18; H       0.18; H       0.18; 
 -----------------------------------------------------------------------------
   5  Screening settings (-IFTHRS, DIFDEN)   -7    T
@  5    -40.1716432158        5.00889D-02   -7.97D-02    5
      Virial theorem: -V/T =      2.011824
@      MULPOP C      -0.48; H       0.12; H       0.12; H       0.12; H       0.12; 
 -----------------------------------------------------------------------------
   6  Screening settings (-IFTHRS, DIFDEN)   -9    F
@  6    -40.1718284304        1.75429D-02   -1.85D-04    6
      Virial theorem: -V/T =      2.011418
@      MULPOP C      -0.51; H       0.13; H       0.13; H       0.13; H       0.13; 
 -----------------------------------------------------------------------------
   7  Screening settings (-IFTHRS, DIFDEN)   -9    T
@  7    -40.1718499949        1.24949D-03   -2.16D-05    7
      Virial theorem: -V/T =      2.010919
@      MULPOP C      -0.51; H       0.13; H       0.13; H       0.13; H       0.13; 
 -----------------------------------------------------------------------------
   8  Screening settings (-IFTHRS, DIFDEN)  -11    F
@  8    -40.1718502092        1.69022D-04   -2.14D-07    8
      Virial theorem: -V/T =      2.010877
@      MULPOP C      -0.51; H       0.13; H       0.13; H       0.13; H       0.13; 
 -----------------------------------------------------------------------------
   9  Screening settings (-IFTHRS, DIFDEN)  -11    T
@  9    -40.1718502132        7.40701D-06   -4.05D-09    9
      Virial theorem: -V/T =      2.010880
@      MULPOP C      -0.51; H       0.13; H       0.13; H       0.13; H       0.13; 
 -----------------------------------------------------------------------------
  10  Screening settings (-IFTHRS, DIFDEN)  -13    F
@ 10    -40.1718502132        1.07263D-06   -5.54D-12   10
      Virial theorem: -V/T =      2.010880
@      MULPOP C      -0.51; H       0.13; H       0.13; H       0.13; H       0.13; 
 -----------------------------------------------------------------------------
  11  Screening settings (-IFTHRS, DIFDEN)  -16    F
@ 11    -40.1718502132        5.53452D-08   -1.28D-13   10
      Virial theorem: -V/T =      2.010880
@      MULPOP C      -0.51; H       0.13; H       0.13; H       0.13; H       0.13; 
 -----------------------------------------------------------------------------
  12  Screening settings (-IFTHRS, DIFDEN)  -16    T
@ 12    -40.1718502132        4.64055D-09    2.84D-14   10
      Virial theorem: -V/T =      2.010880
@      MULPOP C      -0.51; H       0.13; H       0.13; H       0.13; H       0.13; 
 -----------------------------------------------------------------------------
  13  Screening settings (-IFTHRS, DIFDEN)  -16    T
@ 13    -40.1718502132        1.42557D-10    0.00D+00   10
      Virial theorem: -V/T =      2.010880
@      MULPOP C      -0.51; H       0.13; H       0.13; H       0.13; H       0.13; 
 -----------------------------------------------------------------------------
  14  Screening settings (-IFTHRS, DIFDEN)  -16    T
@ 14    -40.1718502132        6.09213D-12   -2.84D-14   10

@ *** DIIS converged in  14 iterations !
@     Converged SCF energy, gradient:    -40.171850213221    6.09D-12
    - total time used in SIRFCK :              0.00 seconds


 *** SCF orbital energy analysis ***

 Only the five lowest virtual orbital energies printed in each symmetry.

 Number of electrons :   10
 Orbital occupations :    5

 Sym       Hartree-Fock orbital energies

  1    -11.24961569    -0.91566290    -0.52460189    -0.52460189    -0.52460189
         0.14348326     0.22612728     0.22612728     0.22612728     0.32245767

    E(LUMO) :     0.14348326 au (symmetry 1)
  - E(HOMO) :    -0.52460189 au (symmetry 1)
  ------------------------------------------
    gap     :     0.66808515 au

 >>> Writing SIRIFC interface file <<<

  Canonical primary and secondary basis sets
  ISYM       NORB1 MBAS1       NORB2 MBAS2
     1          26    26          17    17

  Canonical primary and secondary basis sets
  ISYM       NORB1 MBAS1       NORB2 MBAS2
     1          26    26          17    17

 Computation of exchange matrix done [5]

 AUXILIARY BASIS LOW EIGENVALUES
 ISYM         EIGENVALUE
   1      0.000000000000

 >>>> CPU and wall time for SCF :       0.532       0.541


                       .-----------------------------------.
                       | >>> Final results from SIRIUS <<< |
                       `-----------------------------------'


@    Spin multiplicity:           1
@    Spatial symmetry:            1
@    Total charge of molecule:    0

@    Final HF energy:             -40.171850213221                 
@    Nuclear repulsion:            12.514560078913
@    Electronic energy:           -52.686410292133

@    Final gradient norm:           0.000000000006

 
     Date and time (Linux)  : Sun Sep  8 21:00:24 2013
     Host name              : lpqlx131.ups-tlse.fr                    

 (Only coefficients >0.0100 are printed.)

 Molecular orbitals for symmetry species  1
 ------------------------------------------

    Orbital         6        7        8        9       10       11       12
   1 C   :1s     0.0449  -0.0000   0.0000  -0.0000   0.0000  -0.0000  -0.0000
   2 C   :1s     0.1064   0.0000   0.0000  -0.0000   0.0000  -0.0000  -0.0000
   3 C   :1s    -0.2306  -0.0000  -0.0000  -0.0000  -0.0000   0.0000   0.0000
   4 C   :1s     0.0780   0.0000  -0.0000   0.0000   0.0000  -0.0000  -0.0000
   5 C   :1s    -4.3821  -0.0000   0.0000  -0.0000  -0.0000   0.0000   0.0000
   6 C   :2px   -0.0000  -0.1582  -0.1087  -0.0139  -0.0941  -0.0226   0.0086
   7 C   :2py   -0.0000  -0.0310   0.0677  -0.1775  -0.0145   0.0249  -0.0928
   8 C   :2pz    0.0000   0.1051  -0.1437  -0.0732   0.0193  -0.0912  -0.0275
   9 C   :2px    0.0000  -0.1234  -0.0848  -0.0108  -0.4000  -0.0958   0.0366
  10 C   :2py    0.0000  -0.0242   0.0528  -0.1384  -0.0614   0.1059  -0.3944
  11 C   :2pz    0.0000   0.0820  -0.1120  -0.0571   0.0822  -0.3875  -0.1168
  12 C   :2px   -0.0000  -1.4567  -1.0011  -0.1277   1.6414   0.3933  -0.1500
  13 C   :2py   -0.0000  -0.2854   0.6237  -1.6341   0.2520  -0.4345   1.6184
  14 C   :2pz    0.0000   0.9680  -1.3226  -0.6739  -0.3371   1.5899   0.4794
  15 H   :1s     0.0225   0.0206   0.0469   0.0224  -0.0275  -0.0279  -0.0088
  16 H   :1s    -0.0882  -0.0384  -0.0875  -0.0417  -0.4376  -0.4436  -0.1397
  17 H   :1s     1.5805   1.0465   2.3852   1.1368  -0.2145  -0.2175  -0.0685
  18 H   :1s     0.0225  -0.0559   0.0013   0.0022   0.0367  -0.0156  -0.0043
  19 H   :1s    -0.0882   0.1041  -0.0023  -0.0041   0.5843  -0.2483  -0.0689
  20 H   :1s     1.5805  -2.8391   0.0640   0.1110   0.2865  -0.1217  -0.0338
  21 H   :1s     0.0225   0.0188  -0.0441   0.0287  -0.0043   0.0312  -0.0248
  22 H   :1s    -0.0882  -0.0350   0.0823  -0.0535  -0.0677   0.4975  -0.3946
  23 H   :1s     1.5805   0.9548  -2.2436   1.4600  -0.0332   0.2439  -0.1934
  24 H   :1s     0.0225   0.0165  -0.0040  -0.0533  -0.0050   0.0122   0.0379
  25 H   :1s    -0.0882  -0.0307   0.0075   0.0993  -0.0790   0.1944   0.6032
  26 H   :1s     1.5805   0.8378  -0.2057  -2.7079  -0.0387   0.0953   0.2957

    Orbital        13       14
   1 C   :1s    -0.0492  -0.0000
   2 C   :1s    -0.0875  -0.0000
   3 C   :1s    -0.3605   0.0000
   4 C   :1s     3.8384   0.0000
   5 C   :1s   -12.3728  -0.0000
   6 C   :2px    0.0000  -0.2456
   7 C   :2py    0.0000  -0.0484
   8 C   :2pz   -0.0000   0.1771
   9 C   :2px    0.0000  -0.9751
  10 C   :2py    0.0000  -0.1921
  11 C   :2pz    0.0000   0.7032
  12 C   :2px   -0.0000   1.4578
  13 C   :2py   -0.0000   0.2871
  14 C   :2pz   -0.0000  -1.0513
  15 H   :1s    -0.0094   0.0279
  16 H   :1s     0.0162   0.4875
  17 H   :1s     2.8637  -0.8773
  18 H   :1s    -0.0094  -0.0839
  19 H   :1s     0.0162  -1.4645
  20 H   :1s     2.8637   2.6358
  21 H   :1s    -0.0094   0.0297
  22 H   :1s     0.0162   0.5189
  23 H   :1s     2.8637  -0.9339
  24 H   :1s    -0.0094   0.0262
  25 H   :1s     0.0162   0.4582
  26 H   :1s     2.8637  -0.8246



 >>>> Total CPU  time used in SIRIUS :      0.54 seconds
 >>>> Total wall time used in SIRIUS :      0.55 seconds

 
     Date and time (Linux)  : Sun Sep  8 21:00:24 2013
     Host name              : lpqlx131.ups-tlse.fr                    


                     .---------------------------------------.
                     | End of Wave Function Section (SIRIUS) |
                     `---------------------------------------'



                    .------------------------------------------.
                    | Starting in Coupled Cluster Section (CC) |
                    `------------------------------------------'

  

 *******************************************************************************
 *******************************************************************************
 *                                                                             *
 *                                                                             *
 *                    START OF COUPLED CLUSTER CALCULATION                     *
 *                                                                             *
 *                                                                             *
 *******************************************************************************
 *******************************************************************************



 CCR12 ANSATZ =   0

 CCR12 APPROX =   0

   NRHF   :      11
   NRHFS  :      12
   NORB1  :      26
   NORB2  :      17

 Number of primary orbitals             :           26
 Number of secondary orbitals           :           17
 Total number of orbitals               :           43
 Total number of basis functions        :           43
 Number of (i|p') integrals             :          473
 Number of (i|u') integrals             :          473
 Number of (Ip'|1/r12|jL) integrals     :          473
 Number of (ip'|1/r12|jq') integrals    :       112101
 Number of (ip'|r12|jq') integrals      :       112101
 Number of (ip'|[T1,r12]|jq') integrals :       223729
 Threshold for R12 contributions            =  0.00000    
 Threshold for singular value decomposition = 0.100000E-11

 Calculation with Gaussian-damped linear-r12 terms
 Expansion coefficients and exponents:
    1        0.388000000000000        0.066750000000000
    2        0.318400000000000        0.375750000000000
    3        0.176800000000000        1.982000000000000
 The B matrix is transformed into an orthogonal basis
 and inverted by diagonalization

 ******************************************************************************
 The MP2-R12/A and MP2-R12/B energies are computed as described in:
 W. Klopper, J. Chem. Phys. 120, 10890-10895 (2004).
 To avoid the hybride scheme, the keyword '.NO HYB'
 must be specified in the Dalton input file.
 ------------------------------------------------------------------------------
 Ansaetze 1, 2, 3 are used and results are printed for approximations A and B.
------------------------------------------------------------------------------
 The Gaussian-damped R12 integrals are computed as described in:
 C. C. M. Samson, W. Klopper and T. Helgaker,
 Comp. Phys. Commun. 149, 1-10 (2002).
 ******************************************************************************

 Core memory required by CCSD_R12 :         725876  (double words)


 Number of two-electron spin-orbit integrals written:     39510 (19.4%)
 >>>  Time used in TWOINT     is   0.24 seconds

 Number of two-electron spin-orbit integrals written:     70182 (19.2%)
 >>>  Time used in TWOINT     is   0.25 seconds

 Number of two-electron spin-orbit integrals written:     27108 (22.2%)
 >>>  Time used in TWOINT     is   0.12 seconds

 Number of two-electron spin-orbit integrals written:     27108 (22.2%)
 >>>  Time used in TWOINT     is   0.12 seconds

 Number of two-electron spin-orbit integrals written:     27084 (22.2%)
 >>>  Time used in TWOINT     is   0.12 seconds

 Number of two-electron spin-orbit integrals written:     27054 (22.2%)
 >>>  Time used in TWOINT     is   0.12 seconds

 Number of two-electron spin-orbit integrals written:        87 ( 0.0%)

 Number of two-electron spin-orbit integrals written:        54 ( 0.0%)

 Number of two-electron spin-orbit integrals written:        54 ( 0.0%)

 Number of two-electron spin-orbit integrals written:        28 ( 0.0%)

 Number of two-electron spin-orbit integrals written:        15 ( 0.0%)
 Computation of (ik|[[f12,T1],f12]|jl) integrals done
 >>>  Time used in #6 [4]     is   1.10 seconds

 Number of two-electron spin-orbit integrals written:     39510 (19.4%)
 >>>  Time used in TWOINT     is   0.20 seconds

 Number of two-electron spin-orbit integrals written:     70182 (19.2%)
 >>>  Time used in TWOINT     is   0.19 seconds

 Number of two-electron spin-orbit integrals written:     27108 (22.2%)

 Number of two-electron spin-orbit integrals written:     27108 (22.2%)

 Number of two-electron spin-orbit integrals written:     27084 (22.2%)

 Number of two-electron spin-orbit integrals written:     27054 (22.2%)

 Number of two-electron spin-orbit integrals written:        87 ( 0.0%)

 Number of two-electron spin-orbit integrals written:        54 ( 0.0%)

 Number of two-electron spin-orbit integrals written:        54 ( 0.0%)

 Number of two-electron spin-orbit integrals written:        28 ( 0.0%)

 Number of two-electron spin-orbit integrals written:        15 ( 0.0%)
 Computation of (ik|f12**2|jl) integrals done
 >>>  Time used in #4 [4]     is   0.90 seconds

 Number of two-electron spin-orbit integrals written:     39510 (19.4%)

 Number of two-electron spin-orbit integrals written:     70182 (19.2%)

 Number of two-electron spin-orbit integrals written:     27108 (22.2%)

 Number of two-electron spin-orbit integrals written:     27108 (22.2%)

 Number of two-electron spin-orbit integrals written:     27084 (22.2%)

 Number of two-electron spin-orbit integrals written:     27054 (22.2%)

 Number of two-electron spin-orbit integrals written:        87 ( 0.0%)

 Number of two-electron spin-orbit integrals written:        54 ( 0.0%)

 Number of two-electron spin-orbit integrals written:        54 ( 0.0%)

 Number of two-electron spin-orbit integrals written:        28 ( 0.0%)

 Number of two-electron spin-orbit integrals written:        15 ( 0.0%)
 Computation of (ik|f12/r12|jl) integrals done
 >>>  Time used in #2 [4]     is   0.36 seconds

 Number of two-electron spin-orbit integrals written:    118810 (58.4%)
 >>>  Time used in TWOINT     is   0.35 seconds

 Number of two-electron spin-orbit integrals written:    214881 (58.7%)
 >>>  Time used in TWOINT     is   0.36 seconds

 Number of two-electron spin-orbit integrals written:     78533 (64.4%)
 >>>  Time used in TWOINT     is   0.17 seconds

 Number of two-electron spin-orbit integrals written:     78533 (64.4%)
 >>>  Time used in TWOINT     is   0.17 seconds

 Number of two-electron spin-orbit integrals written:     78507 (64.3%)
 >>>  Time used in TWOINT     is   0.17 seconds

 Number of two-electron spin-orbit integrals written:     78477 (64.3%)
 >>>  Time used in TWOINT     is   0.17 seconds

 Number of two-electron spin-orbit integrals written:     37881 (18.6%)

 Number of two-electron spin-orbit integrals written:     27270 (22.3%)

 Number of two-electron spin-orbit integrals written:     27270 (22.3%)

 Number of two-electron spin-orbit integrals written:     27244 (22.3%)

 Number of two-electron spin-orbit integrals written:     27231 (22.3%)
 Computation of (ip'|f12|jq') integrals done
 >>>  Time used in #3 [5]     is   1.75 seconds

 Number of two-electron spin-orbit integrals written:    118799 (58.4%)

 Number of two-electron spin-orbit integrals written:    214881 (58.7%)

 Number of two-electron spin-orbit integrals written:     78536 (64.4%)

 Number of two-electron spin-orbit integrals written:     78535 (64.4%)

 Number of two-electron spin-orbit integrals written:     78509 (64.3%)

 Number of two-electron spin-orbit integrals written:     78479 (64.3%)

 Number of two-electron spin-orbit integrals written:     37880 (18.6%)

 Number of two-electron spin-orbit integrals written:     27270 (22.3%)

 Number of two-electron spin-orbit integrals written:     27270 (22.3%)

 Number of two-electron spin-orbit integrals written:     27244 (22.3%)

 Number of two-electron spin-orbit integrals written:     27231 (22.3%)
 Computation of (ip'|1/r12|jq') integrals done
 >>>  Time used in #1 [5]     is   0.41 seconds

 Number of two-electron spin-orbit integrals written:     39510 (19.4%)
 >>>  Time used in TWOINT     is   0.20 seconds

 Number of two-electron spin-orbit integrals written:     70182 (19.2%)
 >>>  Time used in TWOINT     is   0.21 seconds

 Number of two-electron spin-orbit integrals written:     27108 (22.2%)
 >>>  Time used in TWOINT     is   0.10 seconds

 Number of two-electron spin-orbit integrals written:     27108 (22.2%)
 >>>  Time used in TWOINT     is   0.10 seconds

 Number of two-electron spin-orbit integrals written:     27084 (22.2%)
 >>>  Time used in TWOINT     is   0.10 seconds

 Number of two-electron spin-orbit integrals written:     27054 (22.2%)
 >>>  Time used in TWOINT     is   0.10 seconds

 Number of two-electron spin-orbit integrals written:        87 ( 0.0%)

 Number of two-electron spin-orbit integrals written:        54 ( 0.0%)

 Number of two-electron spin-orbit integrals written:        54 ( 0.0%)

 Number of two-electron spin-orbit integrals written:        28 ( 0.0%)

 Number of two-electron spin-orbit integrals written:        15 ( 0.0%)
 >>>  Time used in #4 [4]     is   0.95 seconds

 Number of two-electron spin-orbit integrals written:    118810 (58.4%)
 >>>  Time used in TWOINT     is   0.36 seconds

 Number of two-electron spin-orbit integrals written:    214881 (58.7%)
 >>>  Time used in TWOINT     is   0.36 seconds

 Number of two-electron spin-orbit integrals written:     78533 (64.4%)
 >>>  Time used in TWOINT     is   0.18 seconds

 Number of two-electron spin-orbit integrals written:     78533 (64.4%)
 >>>  Time used in TWOINT     is   0.18 seconds

 Number of two-electron spin-orbit integrals written:     78507 (64.3%)
 >>>  Time used in TWOINT     is   0.17 seconds

 Number of two-electron spin-orbit integrals written:     78477 (64.3%)
 >>>  Time used in TWOINT     is   0.17 seconds

 Number of two-electron spin-orbit integrals written:     37881 (18.6%)

 Number of two-electron spin-orbit integrals written:     27270 (22.3%)

 Number of two-electron spin-orbit integrals written:     27270 (22.3%)

 Number of two-electron spin-orbit integrals written:     27244 (22.3%)

 Number of two-electron spin-orbit integrals written:     27231 (22.3%)
 Computation of (i* p'|f12|jq') integrals done
 >>>  Time used in #3 [5]     is   2.44 seconds

 Number of two-electron spin-orbit integrals written:    118810 (58.4%)
 >>>  Time used in TWOINT     is   0.35 seconds

 Number of two-electron spin-orbit integrals written:    214881 (58.7%)
 >>>  Time used in TWOINT     is   0.36 seconds

 Number of two-electron spin-orbit integrals written:     78533 (64.4%)
 >>>  Time used in TWOINT     is   0.18 seconds

 Number of two-electron spin-orbit integrals written:     78533 (64.4%)
 >>>  Time used in TWOINT     is   0.18 seconds

 Number of two-electron spin-orbit integrals written:     78507 (64.3%)
 >>>  Time used in TWOINT     is   0.17 seconds

 Number of two-electron spin-orbit integrals written:     78477 (64.3%)
 >>>  Time used in TWOINT     is   0.17 seconds

 Number of two-electron spin-orbit integrals written:     37881 (18.6%)

 Number of two-electron spin-orbit integrals written:     27270 (22.3%)

 Number of two-electron spin-orbit integrals written:     27270 (22.3%)

 Number of two-electron spin-orbit integrals written:     27244 (22.3%)

 Number of two-electron spin-orbit integrals written:     27231 (22.3%)
 Computation of (i'p|f12|jq') integrals done
 >>>  Time used in #3 [5]     is   1.80 seconds

 Number of two-electron spin-orbit integrals written:    115485 (56.8%)
 >>>  Time used in TWOINT     is   1.15 seconds

 Number of two-electron spin-orbit integrals written:    197763 (54.0%)
 >>>  Time used in TWOINT     is   1.13 seconds

 Number of two-electron spin-orbit integrals written:     75699 (62.0%)
 >>>  Time used in TWOINT     is   0.55 seconds

 Number of two-electron spin-orbit integrals written:     75699 (62.0%)
 >>>  Time used in TWOINT     is   0.55 seconds

 Number of two-electron spin-orbit integrals written:     75675 (62.0%)
 >>>  Time used in TWOINT     is   0.54 seconds

 Number of two-electron spin-orbit integrals written:     75645 (62.0%)
 >>>  Time used in TWOINT     is   0.56 seconds

 Number of two-electron spin-orbit integrals written:     37743 (18.6%)
 >>>  Time used in TWOINT     is   0.20 seconds

 Number of two-electron spin-orbit integrals written:     27270 (22.3%)
 >>>  Time used in TWOINT     is   0.12 seconds

 Number of two-electron spin-orbit integrals written:     27270 (22.3%)
 >>>  Time used in TWOINT     is   0.12 seconds

 Number of two-electron spin-orbit integrals written:     27244 (22.3%)
 >>>  Time used in TWOINT     is   0.12 seconds

 Number of two-electron spin-orbit integrals written:     27216 (22.3%)
 >>>  Time used in TWOINT     is   0.12 seconds
 Computation of (ip'|[T,f12]|jq') integrals done
 >>>  Time used in #5 [5]     is   5.28 seconds


                 +-----------------------------------------------+
                 ! MP2-R12 ansatz := (1 - P1 - P2 + P1*P2) * R12 !
                 +-----------------------------------------------+


 SECOND-ORDER PAIR ENERGIES:

                    1   -0.005748138    0.000000000
                    2   -0.007417895   -0.003320678
                    3   -0.012874619    0.000000000
                    4   -0.007417895   -0.003320678
                    5   -0.006510338   -0.005684684
                    6   -0.011322708    0.000000000
                    7   -0.007417895   -0.003320678
                    8   -0.004034047   -0.005684684
                    9   -0.007137869   -0.005684684
                   10   -0.012560853    0.000000000

 MP2 =   -0.109458345   -0.082442259   -0.027016086


                            +-------------------------+
                            ! Original MP2-R12 method !
                            +-------------------------+


 SECOND-ORDER NONINVARIANT R12/0 PAIR ENERGIES WITH FIXED R12-COEFFICIENTS:

   1   -0.005748138   -0.011698239    0.000000000    0.000000000
   2   -0.007417895   -0.018604064   -0.003320678   -0.002787367
   3   -0.012874619   -0.020426770    0.000000000    0.000000000
   4   -0.007417895   -0.018604064   -0.003320678   -0.002787367
   5   -0.006510338   -0.010512769   -0.005684684   -0.002614011
   6   -0.011322708   -0.017025888    0.000000000    0.000000000
   7   -0.007417895   -0.018604064   -0.003320678   -0.002787367
   8   -0.004034047   -0.005086187   -0.005684684   -0.002614011
   9   -0.007137869   -0.011887952   -0.005684684   -0.002614011
  10   -0.012560853   -0.019739179    0.000000000    0.000000000

       -0.082442259   -0.152189178   -0.027016086   -0.016204132

 Noninvariant MP2-R12/0   correlation energy =   -0.168393310

  IJ    V(IJ)       U(IJ)       C(IJ)       V(IJ)       U(IJ)       C(IJ)   

   1 -0.5070E-02 -0.4191E-02  0.1000E+01  0.0000E+00  0.0000E+00  0.0000E+00  0.6094E+01  0.0000E+00
   2 -0.8869E-02 -0.6552E-02  0.1000E+01 -0.6795E-03 -0.4851E-02  0.5000E+00  0.4983E+01  0.2631E+01
   3 -0.6653E-02 -0.5754E-02  0.1000E+01  0.0000E+00  0.0000E+00  0.0000E+00  0.4367E+01  0.0000E+00
   4 -0.8869E-02 -0.6552E-02  0.1000E+01 -0.6795E-03 -0.4851E-02  0.5000E+00  0.4983E+01  0.2631E+01
   5 -0.4198E-02 -0.4393E-02  0.1000E+01  0.1254E-02 -0.7266E-02  0.5000E+00  0.3030E+01  0.1958E+01
   6 -0.5553E-02 -0.5403E-02  0.1000E+01  0.0000E+00  0.0000E+00  0.0000E+00  0.3747E+01  0.0000E+00
   7 -0.8869E-02 -0.6552E-02  0.1000E+01 -0.6795E-03 -0.4851E-02  0.5000E+00  0.4983E+01  0.2631E+01
   8 -0.2443E-02 -0.3834E-02  0.1000E+01  0.1254E-02 -0.7266E-02  0.5000E+00  0.2326E+01  0.1958E+01
   9 -0.4642E-02 -0.4535E-02  0.1000E+01  0.1254E-02 -0.7266E-02  0.5000E+00  0.3240E+01  0.1958E+01
  10 -0.6431E-02 -0.5683E-02  0.1000E+01  0.0000E+00  0.0000E+00  0.0000E+00  0.4232E+01  0.0000E+00

 SECOND-ORDER NONINVARIANT R12/A PAIR ENERGIES:

   1   -0.005748138   -0.011882886    0.000000000    0.000000000
   2   -0.007417895   -0.019423531   -0.003320678   -0.003415850
   3   -0.012874619   -0.020567325    0.000000000    0.000000000
   4   -0.007417895   -0.019423531   -0.003320678   -0.003415850
   5   -0.006510338   -0.010521447   -0.005684684   -0.005901201
   6   -0.011322708   -0.017030051    0.000000000    0.000000000
   7   -0.007417895   -0.019423531   -0.003320678   -0.003415850
   8   -0.004034047   -0.005590765   -0.005684684   -0.005901201
   9   -0.007137869   -0.011890512   -0.005684684   -0.005901201
  10   -0.012560853   -0.019837577    0.000000000    0.000000000

       -0.082442259   -0.155591156   -0.027016086   -0.027951153

 Noninvariant MP2-R12/A   correlation energy =   -0.183542309

  IJ    V(IJ)       U(IJ)       C(IJ)       V(IJ)       U(IJ)       C(IJ)   

   1 -0.5070E-02 -0.4191E-02  0.1210E+01  0.0000E+00  0.0000E+00  0.0000E+00  0.6094E+01  0.0000E+00
   2 -0.8869E-02 -0.6552E-02  0.1354E+01 -0.6795E-03 -0.4851E-02  0.1401E+00  0.4983E+01  0.2631E+01
   3 -0.6653E-02 -0.5754E-02  0.1156E+01  0.0000E+00  0.0000E+00  0.0000E+00  0.4367E+01  0.0000E+00
   4 -0.8869E-02 -0.6552E-02  0.1354E+01 -0.6795E-03 -0.4851E-02  0.1401E+00  0.4983E+01  0.2631E+01
   5 -0.4198E-02 -0.4393E-02  0.9556E+00  0.1254E-02 -0.7266E-02 -0.1726E+00  0.3030E+01  0.1958E+01
   6 -0.5553E-02 -0.5403E-02  0.1028E+01  0.0000E+00  0.0000E+00  0.0000E+00  0.3747E+01  0.0000E+00
   7 -0.8869E-02 -0.6552E-02  0.1354E+01 -0.6795E-03 -0.4851E-02  0.1401E+00  0.4983E+01  0.2631E+01
   8 -0.2443E-02 -0.3834E-02  0.6372E+00  0.1254E-02 -0.7266E-02 -0.1726E+00  0.2326E+01  0.1958E+01
   9 -0.4642E-02 -0.4535E-02  0.1024E+01  0.1254E-02 -0.7266E-02 -0.1726E+00  0.3240E+01  0.1958E+01
  10 -0.6431E-02 -0.5683E-02  0.1132E+01  0.0000E+00  0.0000E+00  0.0000E+00  0.4232E+01  0.0000E+00

 SECOND-ORDER R12/A PAIR ENERGIES:

   1   -0.005748138   -0.012265438    0.000000000   -0.000000000    0.232844        0.302998    
   2   -0.007417895   -0.020924546   -0.003320678   -0.004266220    0.232844        0.302998    
   3   -0.012874619   -0.023059720    0.000000000   -0.000000000    0.232844        0.302998    
   4   -0.007417895   -0.020924546   -0.003320678   -0.004266220    0.232844        0.302998    
   5   -0.006510338   -0.013125103   -0.005684684   -0.007514446    0.232844        0.302998    
   6   -0.011322708   -0.020079490    0.000000000   -0.000000000    0.232844        0.302998    
   7   -0.007417895   -0.020924546   -0.003320678   -0.004266220    0.232844        0.302998    
   8   -0.004034047   -0.008369732   -0.005684684   -0.007514446    0.232844        0.302998    
   9   -0.007137869   -0.014330190   -0.005684684   -0.007514446    0.232844        0.302998    
  10   -0.012560853   -0.022457176    0.000000000   -0.000000000    0.232844        0.302998    

       -0.082442259   -0.176460487   -0.027016086   -0.035341999

              MP2-R12/A   correlation energy =   -0.211802486

 SECOND-ORDER R12/A' PAIR ENERGIES:

   1   -0.005748138   -0.011936552    0.000000000   -0.000000000     1.70825         1.68781    
   2   -0.007417895   -0.020009143   -0.003320678   -0.003786826     1.31719         1.29675    
   3   -0.012874619   -0.023038422    0.000000000   -0.000000000    0.926125        0.905690    
   4   -0.007417895   -0.020009143   -0.003320678   -0.003786826     1.31719         1.29675    
   5   -0.006510338   -0.012312342   -0.005684684   -0.006489497    0.926125        0.905690    
   6   -0.011322708   -0.019843295    0.000000000   -0.000000000    0.926125        0.905690    
   7   -0.007417895   -0.020009143   -0.003320678   -0.003786826     1.31719         1.29675    
   8   -0.004034047   -0.007214072   -0.005684684   -0.006489497    0.926125        0.905690    
   9   -0.007137869   -0.013604326   -0.005684684   -0.006489497    0.926125        0.905690    
  10   -0.012560853   -0.022392430    0.000000000   -0.000000000    0.926125        0.905690    

       -0.082442259   -0.170368868   -0.027016086   -0.030828971

              MP2-R12/A'  correlation energy =   -0.201197839

 SECOND-ORDER NONINVARIANT R12/B PAIR ENERGIES:

   1   -0.005748138   -0.010535715    0.000000000    0.000000000
   2   -0.007417895   -0.016652742   -0.003320678   -0.003382534
   3   -0.012874619   -0.018782819    0.000000000    0.000000000
   4   -0.007417895   -0.016652742   -0.003320678   -0.003382534
   5   -0.006510338   -0.009346753   -0.005684684   -0.005820225
   6   -0.011322708   -0.015582471    0.000000000    0.000000000
   7   -0.007417895   -0.016652742   -0.003320678   -0.003382534
   8   -0.004034047   -0.005061263   -0.005684684   -0.005820225
   9   -0.007137869   -0.010551051   -0.005684684   -0.005820225
  10   -0.012560853   -0.018118562    0.000000000    0.000000000

       -0.082442259   -0.137936861   -0.027016086   -0.027608280

 Noninvariant MP2-R12/B   correlation energy =   -0.165545140

  IJ    V(IJ)       U(IJ)       C(IJ)       V(IJ)       U(IJ)       C(IJ)   

   1 -0.5070E-02 -0.5370E-02  0.9442E+00  0.0000E+00  0.0000E+00  0.0000E+00
   2 -0.8869E-02 -0.8518E-02  0.1041E+01 -0.6795E-03 -0.7464E-02  0.9103E-01
   3 -0.6653E-02 -0.7491E-02  0.8881E+00  0.0000E+00  0.0000E+00  0.0000E+00
   4 -0.8869E-02 -0.8518E-02  0.1041E+01 -0.6795E-03 -0.7464E-02  0.9103E-01
   5 -0.4198E-02 -0.6212E-02  0.6757E+00  0.1254E-02 -0.1161E-01 -0.1081E+00
   6 -0.5553E-02 -0.7239E-02  0.7671E+00  0.0000E+00  0.0000E+00  0.0000E+00
   7 -0.8869E-02 -0.8518E-02  0.1041E+01 -0.6795E-03 -0.7464E-02  0.9103E-01
   8 -0.2443E-02 -0.5810E-02  0.4205E+00  0.1254E-02 -0.1161E-01 -0.1081E+00
   9 -0.4642E-02 -0.6314E-02  0.7352E+00  0.1254E-02 -0.1161E-01 -0.1081E+00
  10 -0.6431E-02 -0.7440E-02  0.8643E+00  0.0000E+00  0.0000E+00  0.0000E+00

 SECOND-ORDER R12/B PAIR ENERGIES:

   1   -0.005748138   -0.010669996    0.000000000   -0.000000000     2.43363         2.40254    
   2   -0.007417895   -0.017252075   -0.003320678   -0.003667436     2.04257         2.01148    
   3   -0.012874619   -0.020634728    0.000000000   -0.000000000     1.65151         1.62042    
   4   -0.007417895   -0.017252075   -0.003320678   -0.003667436     2.04257         2.01148    
   5   -0.006510338   -0.010876877   -0.005684684   -0.006204341     1.65151         1.62042    
   6   -0.011322708   -0.017842848    0.000000000   -0.000000000     1.65151         1.62042    
   7   -0.007417895   -0.017252075   -0.003320678   -0.003667436     2.04257         2.01148    
   8   -0.004034047   -0.006422043   -0.005684684   -0.006204341     1.65151         1.62042    
   9   -0.007137869   -0.012005804   -0.005684684   -0.006204341     1.65151         1.62042    
  10   -0.012560853   -0.020070265    0.000000000   -0.000000000     1.65151         1.62042    

       -0.082442259   -0.150278786   -0.027016086   -0.029615330

              MP2-R12/B   correlation energy =   -0.179894117


                         +--------------------------------+
                         ! Auxiliary-basis MP2-R12 method !
                         +--------------------------------+


 SECOND-ORDER NONINVARIANT R12/0 PAIR ENERGIES WITH FIXED R12-COEFFICIENTS:

   1   -0.005748138   -0.011134895    0.000000000    0.000000000
   2   -0.007417895   -0.014125071   -0.003320678   -0.003926240
   3   -0.012874619   -0.019811917    0.000000000    0.000000000
   4   -0.007417895   -0.014125071   -0.003320678   -0.003926240
   5   -0.006510338   -0.010372661   -0.005684684   -0.006504298
   6   -0.011322708   -0.017180850    0.000000000    0.000000000
   7   -0.007417895   -0.014125071   -0.003320678   -0.003926240
   8   -0.004034047   -0.006174426   -0.005684684   -0.006504298
   9   -0.007137869   -0.011436561   -0.005684684   -0.006504298
  10   -0.012560853   -0.019279967    0.000000000    0.000000000

       -0.082442259   -0.137766489   -0.027016086   -0.031291615

 Noninvariant MP2-R12/0   correlation energy =   -0.169058104

  IJ    V(IJ)       U(IJ)       C(IJ)       V(IJ)       U(IJ)       C(IJ)   

   1 -0.4625E-02 -0.3862E-02  0.1000E+01  0.0000E+00  0.0000E+00  0.0000E+00  0.7124E+01  0.0000E+00
   2 -0.5959E-02 -0.5210E-02  0.1000E+01 -0.1330E-02 -0.2896E-02  0.5000E+00  0.6544E+01  0.3863E+01
   3 -0.5969E-02 -0.5000E-02  0.1000E+01  0.0000E+00  0.0000E+00  0.0000E+00  0.5546E+01  0.0000E+00
   4 -0.5959E-02 -0.5210E-02  0.1000E+01 -0.1330E-02 -0.2896E-02  0.5000E+00  0.6544E+01  0.3863E+01
   5 -0.3586E-02 -0.3309E-02  0.1000E+01 -0.1933E-02 -0.4455E-02  0.5000E+00  0.4236E+01  0.2684E+01
   6 -0.5210E-02 -0.4562E-02  0.1000E+01  0.0000E+00  0.0000E+00  0.0000E+00  0.4927E+01  0.0000E+00
   7 -0.5959E-02 -0.5210E-02  0.1000E+01 -0.1330E-02 -0.2896E-02  0.5000E+00  0.6544E+01  0.3863E+01
   8 -0.2375E-02 -0.2610E-02  0.1000E+01 -0.1933E-02 -0.4455E-02  0.5000E+00  0.3183E+01  0.2684E+01
   9 -0.3892E-02 -0.3486E-02  0.1000E+01 -0.1933E-02 -0.4455E-02  0.5000E+00  0.4520E+01  0.2684E+01
  10 -0.5815E-02 -0.4911E-02  0.1000E+01  0.0000E+00  0.0000E+00  0.0000E+00  0.5418E+01  0.0000E+00

 SECOND-ORDER NONINVARIANT R12/A PAIR ENERGIES:

   1   -0.005748138   -0.011285284    0.000000000    0.000000000
   2   -0.007417895   -0.014232581   -0.003320678   -0.003931085
   3   -0.012874619   -0.019999618    0.000000000    0.000000000
   4   -0.007417895   -0.014232581   -0.003320678   -0.003931085
   5   -0.006510338   -0.010395813   -0.005684684   -0.006523731
   6   -0.011322708   -0.017272970    0.000000000    0.000000000
   7   -0.007417895   -0.014232581   -0.003320678   -0.003931085
   8   -0.004034047   -0.006195521   -0.005684684   -0.006523731
   9   -0.007137869   -0.011483935   -0.005684684   -0.006523731
  10   -0.012560853   -0.019446345    0.000000000    0.000000000

       -0.082442259   -0.138777228   -0.027016086   -0.031364445

 Noninvariant MP2-R12/A   correlation energy =   -0.170141673

  IJ    V(IJ)       U(IJ)       C(IJ)       V(IJ)       U(IJ)       C(IJ)   

   1 -0.4625E-02 -0.3862E-02  0.1197E+01  0.0000E+00  0.0000E+00  0.0000E+00  0.7124E+01  0.0000E+00
   2 -0.5959E-02 -0.5210E-02  0.1144E+01 -0.1330E-02 -0.2896E-02  0.4591E+00  0.6544E+01  0.3863E+01
   3 -0.5969E-02 -0.5000E-02  0.1194E+01  0.0000E+00  0.0000E+00  0.0000E+00  0.5546E+01  0.0000E+00
   4 -0.5959E-02 -0.5210E-02  0.1144E+01 -0.1330E-02 -0.2896E-02  0.4591E+00  0.6544E+01  0.3863E+01
   5 -0.3586E-02 -0.3309E-02  0.1084E+01 -0.1933E-02 -0.4455E-02  0.4340E+00  0.4236E+01  0.2684E+01
   6 -0.5210E-02 -0.4562E-02  0.1142E+01  0.0000E+00  0.0000E+00  0.0000E+00  0.4927E+01  0.0000E+00
   7 -0.5959E-02 -0.5210E-02  0.1144E+01 -0.1330E-02 -0.2896E-02  0.4591E+00  0.6544E+01  0.3863E+01
   8 -0.2375E-02 -0.2610E-02  0.9101E+00 -0.1933E-02 -0.4455E-02  0.4340E+00  0.3183E+01  0.2684E+01
   9 -0.3892E-02 -0.3486E-02  0.1117E+01 -0.1933E-02 -0.4455E-02  0.4340E+00  0.4520E+01  0.2684E+01
  10 -0.5815E-02 -0.4911E-02  0.1184E+01  0.0000E+00  0.0000E+00  0.0000E+00  0.5418E+01  0.0000E+00

 SECOND-ORDER R12/A PAIR ENERGIES:

   1   -0.005748138   -0.011472474    0.000000000   -0.000000000    0.237765        0.279287    
   2   -0.007417895   -0.014434589   -0.003320678   -0.004399080    0.237765        0.279287    
   3   -0.012874619   -0.020721694    0.000000000   -0.000000000    0.237765        0.279287    
   4   -0.007417895   -0.014434589   -0.003320678   -0.004399080    0.237765        0.279287    
   5   -0.006510338   -0.011087535   -0.005684684   -0.007457067    0.237765        0.279287    
   6   -0.011322708   -0.018338104    0.000000000   -0.000000000    0.237765        0.279287    
   7   -0.007417895   -0.014434589   -0.003320678   -0.004399080    0.237765        0.279287    
   8   -0.004034047   -0.007284186   -0.005684684   -0.007457067    0.237765        0.279287    
   9   -0.007137869   -0.012051365   -0.005684684   -0.007457067    0.237765        0.279287    
  10   -0.012560853   -0.020239779    0.000000000   -0.000000000    0.237765        0.279287    

       -0.082442259   -0.144498903   -0.027016086   -0.035568441

              MP2-R12/A   correlation energy =   -0.180067345

 SECOND-ORDER R12/A' PAIR ENERGIES:

   1   -0.005748138   -0.011306771    0.000000000   -0.000000000     1.66176         1.63036    
   2   -0.007417895   -0.014332780   -0.003320678   -0.004148526     1.27070         1.23930    
   3   -0.012874619   -0.020863717    0.000000000   -0.000000000    0.879635        0.848240    
   4   -0.007417895   -0.014332780   -0.003320678   -0.004148526     1.27070         1.23930    
   5   -0.006510338   -0.010815335   -0.005684684   -0.007012397    0.879635        0.848240    
   6   -0.011322708   -0.018326019    0.000000000   -0.000000000    0.879635        0.848240    
   7   -0.007417895   -0.014332780   -0.003320678   -0.004148526     1.27070         1.23930    
   8   -0.004034047   -0.006766083   -0.005684684   -0.007012397    0.879635        0.848240    
   9   -0.007137869   -0.011841480   -0.005684684   -0.007012397    0.879635        0.848240    
  10   -0.012560853   -0.020350645    0.000000000   -0.000000000    0.879635        0.848240    

       -0.082442259   -0.143268389   -0.027016086   -0.033482768

              MP2-R12/A'  correlation energy =   -0.176751157

 SECOND-ORDER NONINVARIANT R12/B PAIR ENERGIES:

   1   -0.005748138   -0.010211275    0.000000000    0.000000000
   2   -0.007417895   -0.012979868   -0.003320678   -0.003771925
   3   -0.012874619   -0.018641149    0.000000000    0.000000000
   4   -0.007417895   -0.012979868   -0.003320678   -0.003771925
   5   -0.006510338   -0.009526075   -0.005684684   -0.006278323
   6   -0.011322708   -0.016060871    0.000000000    0.000000000
   7   -0.007417895   -0.012979868   -0.003320678   -0.003771925
   8   -0.004034047   -0.005624537   -0.005684684   -0.006278323
   9   -0.007137869   -0.010546530   -0.005684684   -0.006278323
  10   -0.012560853   -0.018116453    0.000000000    0.000000000

       -0.082442259   -0.127666493   -0.027016086   -0.030150745

 Noninvariant MP2-R12/B   correlation energy =   -0.157817237

  IJ    V(IJ)       U(IJ)       C(IJ)       V(IJ)       U(IJ)       C(IJ)   

   1 -0.4625E-02 -0.4792E-02  0.9651E+00  0.0000E+00  0.0000E+00  0.0000E+00
   2 -0.5959E-02 -0.6384E-02  0.9334E+00 -0.1330E-02 -0.3918E-02  0.3394E+00
   3 -0.5969E-02 -0.6178E-02  0.9662E+00  0.0000E+00  0.0000E+00  0.0000E+00
   4 -0.5959E-02 -0.6384E-02  0.9334E+00 -0.1330E-02 -0.3918E-02  0.3394E+00
   5 -0.3586E-02 -0.4263E-02  0.8411E+00 -0.1933E-02 -0.6297E-02  0.3070E+00
   6 -0.5210E-02 -0.5729E-02  0.9095E+00  0.0000E+00  0.0000E+00  0.0000E+00
   7 -0.5959E-02 -0.6384E-02  0.9334E+00 -0.1330E-02 -0.3918E-02  0.3394E+00
   8 -0.2375E-02 -0.3546E-02  0.6697E+00 -0.1933E-02 -0.6297E-02  0.3070E+00
   9 -0.3892E-02 -0.4445E-02  0.8757E+00 -0.1933E-02 -0.6297E-02  0.3070E+00
  10 -0.5815E-02 -0.6087E-02  0.9554E+00  0.0000E+00  0.0000E+00  0.0000E+00

 SECOND-ORDER R12/B PAIR ENERGIES:

   1   -0.005748138   -0.010247832    0.000000000   -0.000000000     2.38233         2.33916    
   2   -0.007417895   -0.013095677   -0.003320678   -0.003957726     1.99127         1.94809    
   3   -0.012874619   -0.019284689    0.000000000   -0.000000000     1.60021         1.55703    
   4   -0.007417895   -0.013095677   -0.003320678   -0.003957726     1.99127         1.94809    
   5   -0.006510338   -0.009980462   -0.005684684   -0.006725496     1.60021         1.55703    
   6   -0.011322708   -0.016924907    0.000000000   -0.000000000     1.60021         1.55703    
   7   -0.007417895   -0.013095677   -0.003320678   -0.003957726     1.99127         1.94809    
   8   -0.004034047   -0.006215100   -0.005684684   -0.006725496     1.60021         1.55703    
   9   -0.007137869   -0.010934664   -0.005684684   -0.006725496     1.60021         1.55703    
  10   -0.012560853   -0.018807587    0.000000000   -0.000000000     1.60021         1.55703    

       -0.082442259   -0.131682273   -0.027016086   -0.032049666

              MP2-R12/B   correlation energy =   -0.163731939


                 +-----------------------------------------------+
                 ! MP2-R12 ansatz := (1 - O1 - O2 + O1*O2) * R12 !
                 +-----------------------------------------------+



                         +--------------------------------+
                         ! Auxiliary-basis MP2-R12 method !
                         +--------------------------------+


 SECOND-ORDER R12/0 PAIR ENERGIES:

   1   -0.005748138   -0.011708706    0.000000000    0.000000000
   2   -0.007417895   -0.016917373   -0.003320678   -0.004651453
   3   -0.012874619   -0.019923286    0.000000000    0.000000000
   4   -0.007417895   -0.016917373   -0.003320678   -0.004651453
   5   -0.006510338   -0.010394074   -0.005684684   -0.004162509
   6   -0.011322708   -0.017221823    0.000000000    0.000000000
   7   -0.007417895   -0.016917373   -0.003320678   -0.004651453
   8   -0.004034047   -0.006083513   -0.005684684   -0.004162509
   9   -0.007137869   -0.011486440   -0.005684684   -0.004162509
  10   -0.012560853   -0.019377103    0.000000000    0.000000000

       -0.082442259   -0.146947064   -0.027016086   -0.026441888

 Noninvariant MP2-R12/0   correlation energy =   -0.173388952

  IJ    V(IJ)       U(IJ)       C(IJ)       V(IJ)       U(IJ)       C(IJ)   

   1 -0.4997E-02 -0.4034E-02  0.1000E+01  0.0000E+00  0.0000E+00  0.0000E+00  0.4028E+01  0.0000E+00
   2 -0.7810E-02 -0.6120E-02  0.1000E+01 -0.2305E-02 -0.3899E-02  0.5000E+00  0.3857E+01  0.2231E+01
   3 -0.6304E-02 -0.5559E-02  0.1000E+01  0.0000E+00  0.0000E+00  0.0000E+00  0.2822E+01  0.0000E+00
   4 -0.7810E-02 -0.6120E-02  0.1000E+01 -0.2305E-02 -0.3899E-02  0.5000E+00  0.3857E+01  0.2231E+01
   5 -0.3981E-02 -0.4079E-02  0.1000E+01 -0.9099E-04 -0.6453E-02  0.5000E+00  0.2232E+01  0.1583E+01
   6 -0.5533E-02 -0.5167E-02  0.1000E+01  0.0000E+00  0.0000E+00  0.0000E+00  0.2653E+01  0.0000E+00
   7 -0.7810E-02 -0.6120E-02  0.1000E+01 -0.2305E-02 -0.3899E-02  0.5000E+00  0.3857E+01  0.2231E+01
   8 -0.2751E-02 -0.3454E-02  0.1000E+01 -0.9099E-04 -0.6453E-02  0.5000E+00  0.1927E+01  0.1583E+01
   9 -0.4293E-02 -0.4237E-02  0.1000E+01 -0.9099E-04 -0.6453E-02  0.5000E+00  0.2308E+01  0.1583E+01
  10 -0.6148E-02 -0.5480E-02  0.1000E+01  0.0000E+00  0.0000E+00  0.0000E+00  0.2788E+01  0.0000E+00

 SECOND-ORDER NONINVARIANT R12/A   PAIR ENERGIES:

   1   -0.005748138   -0.011938750    0.000000000    0.000000000
   2   -0.007417895   -0.017383831   -0.003320678   -0.004683972
   3   -0.012874619   -0.020023086    0.000000000    0.000000000
   4   -0.007417895   -0.017383831   -0.003320678   -0.004683972
   5   -0.006510338   -0.010396406   -0.005684684   -0.005685967
   6   -0.011322708   -0.017247746    0.000000000    0.000000000
   7   -0.007417895   -0.017383831   -0.003320678   -0.004683972
   8   -0.004034047   -0.006226218   -0.005684684   -0.005685967
   9   -0.007137869   -0.011487171   -0.005684684   -0.005685967
  10   -0.012560853   -0.019458594    0.000000000    0.000000000

       -0.082442259   -0.148929465   -0.027016086   -0.031109817

 Noninvariant MP2-R12/A   correlation energy =   -0.180039281

  IJ    V(IJ)       U(IJ)       C(IJ)       V(IJ)       U(IJ)       C(IJ)   

   1 -0.4997E-02 -0.4034E-02  0.1239E+01  0.0000E+00  0.0000E+00  0.0000E+00  0.4028E+01  0.0000E+00
   2 -0.7810E-02 -0.6120E-02  0.1276E+01 -0.2305E-02 -0.3899E-02  0.5913E+00  0.3857E+01  0.2231E+01
   3 -0.6304E-02 -0.5559E-02  0.1134E+01  0.0000E+00  0.0000E+00  0.0000E+00  0.2822E+01  0.0000E+00
   4 -0.7810E-02 -0.6120E-02  0.1276E+01 -0.2305E-02 -0.3899E-02  0.5913E+00  0.3857E+01  0.2231E+01
   5 -0.3981E-02 -0.4079E-02  0.9761E+00 -0.9099E-04 -0.6453E-02  0.1410E-01  0.2232E+01  0.1583E+01
   6 -0.5533E-02 -0.5167E-02  0.1071E+01  0.0000E+00  0.0000E+00  0.0000E+00  0.2653E+01  0.0000E+00
   7 -0.7810E-02 -0.6120E-02  0.1276E+01 -0.2305E-02 -0.3899E-02  0.5913E+00  0.3857E+01  0.2231E+01
   8 -0.2751E-02 -0.3454E-02  0.7967E+00 -0.9099E-04 -0.6453E-02  0.1410E-01  0.1927E+01  0.1583E+01
   9 -0.4293E-02 -0.4237E-02  0.1013E+01 -0.9099E-04 -0.6453E-02  0.1410E-01  0.2308E+01  0.1583E+01
  10 -0.6148E-02 -0.5480E-02  0.1122E+01  0.0000E+00  0.0000E+00  0.0000E+00  0.2788E+01  0.0000E+00

 SECOND-ORDER R12/A   PAIR ENERGIES:

   1   -0.005748138   -0.012209577    0.000000000   -0.000000000    0.387868E-01    0.729272E-01
   2   -0.007417895   -0.017989647   -0.003320678   -0.005195928    0.393221E-01    0.731977E-01
   3   -0.012874619   -0.021642160    0.000000000   -0.000000000    0.400405E-01    0.735421E-01
   4   -0.007417895   -0.017989647   -0.003320678   -0.005195928    0.393221E-01    0.731977E-01
   5   -0.006510338   -0.011382877   -0.005684684   -0.007144009    0.400405E-01    0.735421E-01
   6   -0.011322708   -0.019126450    0.000000000   -0.000000000    0.400405E-01    0.735421E-01
   7   -0.007417895   -0.017989647   -0.003320678   -0.005195928    0.393221E-01    0.731977E-01
   8   -0.004034047   -0.007368711   -0.005684684   -0.007144009    0.400405E-01    0.735421E-01
   9   -0.007137869   -0.012400131   -0.005684684   -0.007144009    0.400405E-01    0.735421E-01
  10   -0.012560853   -0.021133533    0.000000000   -0.000000000    0.400405E-01    0.735421E-01

       -0.082442259   -0.159232381   -0.027016086   -0.037019812

              MP2-R12/A   correlation energy =   -0.196252193

 SECOND-ORDER R12/A'  PAIR ENERGIES:

   1   -0.005748138   -0.011997371    0.000000000   -0.000000000    0.188160        0.365516    
   2   -0.007417895   -0.017611296   -0.003320678   -0.004931548    0.163804        0.319681    
   3   -0.012874619   -0.021753085    0.000000000   -0.000000000    0.139069        0.273397    
   4   -0.007417895   -0.017611296   -0.003320678   -0.004931548    0.163804        0.319681    
   5   -0.006510338   -0.011063328   -0.005684684   -0.006222727    0.139069        0.273397    
   6   -0.011322708   -0.019126711    0.000000000   -0.000000000    0.139069        0.273397    
   7   -0.007417895   -0.017611296   -0.003320678   -0.004931548    0.163804        0.319681    
   8   -0.004034047   -0.006872582   -0.005684684   -0.006222727    0.139069        0.273397    
   9   -0.007137869   -0.012125330   -0.005684684   -0.006222727    0.139069        0.273397    
  10   -0.012560853   -0.021222084    0.000000000   -0.000000000    0.139069        0.273397    

       -0.082442259   -0.156994379   -0.027016086   -0.033462824

              MP2-R12/A'  correlation energy =   -0.190457203

 SECOND-ORDER NONINVARIANT R12/A*  PAIR ENERGIES:

   1   -0.005748138   -0.011742043    0.000000000    0.000000000
   2   -0.007417895   -0.017220136   -0.003320678   -0.004717415
   3   -0.012874619   -0.020183862    0.000000000    0.000000000
   4   -0.007417895   -0.017220136   -0.003320678   -0.004717415
   5   -0.006510338   -0.010480122   -0.005684684   -0.005687209
   6   -0.011322708   -0.017349258    0.000000000    0.000000000
   7   -0.007417895   -0.017220136   -0.003320678   -0.004717415
   8   -0.004034047   -0.006238472   -0.005684684   -0.005687209
   9   -0.007137869   -0.011592809   -0.005684684   -0.005687209
  10   -0.012560853   -0.019606929    0.000000000    0.000000000

       -0.082442259   -0.148853903   -0.027016086   -0.031213874

 Noninvariant MP2-R12/A*  correlation energy =   -0.180067777

  IJ    V(IJ)       U(IJ)       C(IJ)       V(IJ)       U(IJ)       C(IJ)   

   1 -0.4886E-02 -0.3982E-02  0.1227E+01  0.0000E+00  0.0000E+00  0.0000E+00  0.3976E+01  0.0000E+00
   2 -0.7723E-02 -0.6084E-02  0.1269E+01 -0.2318E-02 -0.3847E-02  0.6025E+00  0.3835E+01  0.2202E+01
   3 -0.6336E-02 -0.5492E-02  0.1154E+01  0.0000E+00  0.0000E+00  0.0000E+00  0.2788E+01  0.0000E+00
   4 -0.7723E-02 -0.6084E-02  0.1269E+01 -0.2318E-02 -0.3847E-02  0.6025E+00  0.3835E+01  0.2202E+01
   5 -0.4004E-02 -0.4039E-02  0.9914E+00 -0.1274E-03 -0.6423E-02  0.1983E-01  0.2211E+01  0.1576E+01
   6 -0.5550E-02 -0.5110E-02  0.1086E+01  0.0000E+00  0.0000E+00  0.0000E+00  0.2623E+01  0.0000E+00
   7 -0.7723E-02 -0.6084E-02  0.1269E+01 -0.2318E-02 -0.3847E-02  0.6025E+00  0.3835E+01  0.2202E+01
   8 -0.2750E-02 -0.3430E-02  0.8016E+00 -0.1274E-03 -0.6423E-02  0.1983E-01  0.1914E+01  0.1576E+01
   9 -0.4322E-02 -0.4194E-02  0.1031E+01 -0.1274E-03 -0.6423E-02  0.1983E-01  0.2284E+01  0.1576E+01
  10 -0.6177E-02 -0.5415E-02  0.1141E+01  0.0000E+00  0.0000E+00  0.0000E+00  0.2755E+01  0.0000E+00

 SECOND-ORDER R12/A*  PAIR ENERGIES:

   1   -0.005748138   -0.012005634    0.000000000   -0.000000000    0.343474E-01    0.676111E-01
   2   -0.007417895   -0.017678877   -0.003320678   -0.005215660    0.343474E-01    0.676111E-01
   3   -0.012874619   -0.021402205    0.000000000   -0.000000000    0.343474E-01    0.676111E-01
   4   -0.007417895   -0.017678877   -0.003320678   -0.005215660    0.343474E-01    0.676111E-01
   5   -0.006510338   -0.011384689   -0.005684684   -0.007139768    0.343474E-01    0.676111E-01
   6   -0.011322708   -0.018878095    0.000000000   -0.000000000    0.343474E-01    0.676111E-01
   7   -0.007417895   -0.017678877   -0.003320678   -0.005215660    0.343474E-01    0.676111E-01
   8   -0.004034047   -0.007357119   -0.005684684   -0.007139768    0.343474E-01    0.676111E-01
   9   -0.007137869   -0.012405339   -0.005684684   -0.007139768    0.343474E-01    0.676111E-01
  10   -0.012560853   -0.020891880    0.000000000   -0.000000000    0.343474E-01    0.676111E-01

       -0.082442259   -0.157361591   -0.027016086   -0.037066282

              MP2-R12/A*  correlation energy =   -0.194427873

 SECOND-ORDER R12/A*' PAIR ENERGIES:

   1   -0.005748138   -0.011773658    0.000000000   -0.000000000    0.168280        0.332885    
   2   -0.007417895   -0.017407273   -0.003320678   -0.004969322    0.143956        0.287687    
   3   -0.012874619   -0.021516584    0.000000000   -0.000000000    0.119311        0.242116    
   4   -0.007417895   -0.017407273   -0.003320678   -0.004969322    0.143956        0.287687    
   5   -0.006510338   -0.011127568   -0.005684684   -0.006303710    0.119311        0.242116    
   6   -0.011322708   -0.018871374    0.000000000   -0.000000000    0.119311        0.242116    
   7   -0.007417895   -0.017407273   -0.003320678   -0.004969322    0.143956        0.287687    
   8   -0.004034047   -0.006906766   -0.005684684   -0.006303710    0.119311        0.242116    
   9   -0.007137869   -0.012197187   -0.005684684   -0.006303710    0.119311        0.242116    
  10   -0.012560853   -0.020981775    0.000000000   -0.000000000    0.119311        0.242116    

       -0.082442259   -0.155596730   -0.027016086   -0.033819095

              MP2-R12/A*' correlation energy =   -0.189415825

 SECOND-ORDER NONINVARIANT R12/B   PAIR ENERGIES:

   1   -0.005748138   -0.010673320    0.000000000    0.000000000
   2   -0.007417895   -0.015251133   -0.003320678   -0.004294164
   3   -0.012874619   -0.018478214    0.000000000    0.000000000
   4   -0.007417895   -0.015251133   -0.003320678   -0.004294164
   5   -0.006510338   -0.009365931   -0.005684684   -0.005685522
   6   -0.011322708   -0.015865113    0.000000000    0.000000000
   7   -0.007417895   -0.015251133   -0.003320678   -0.004294164
   8   -0.004034047   -0.005551354   -0.005684684   -0.005685522
   9   -0.007137869   -0.010375091   -0.005684684   -0.005685522
  10   -0.012560853   -0.017944823    0.000000000    0.000000000

       -0.082442259   -0.134007245   -0.027016086   -0.029939056

 Noninvariant MP2-R12/B   correlation energy =   -0.163946301

  IJ    V(IJ)       U(IJ)       C(IJ)       V(IJ)       U(IJ)       C(IJ)   

   1 -0.4997E-02 -0.5070E-02  0.9856E+00  0.0000E+00  0.0000E+00  0.0000E+00  0.5063E+01  0.0000E+00
   2 -0.7810E-02 -0.7787E-02  0.1003E+01 -0.2305E-02 -0.5460E-02  0.4222E+00  0.4908E+01  0.3125E+01
   3 -0.6304E-02 -0.7092E-02  0.8889E+00  0.0000E+00  0.0000E+00  0.0000E+00  0.3600E+01  0.0000E+00
   4 -0.7810E-02 -0.7787E-02  0.1003E+01 -0.2305E-02 -0.5460E-02  0.4222E+00  0.4908E+01  0.3125E+01
   5 -0.3981E-02 -0.5551E-02  0.7173E+00 -0.9099E-04 -0.9879E-02  0.9211E-02  0.3038E+01  0.2424E+01
   6 -0.5533E-02 -0.6740E-02  0.8209E+00  0.0000E+00  0.0000E+00  0.0000E+00  0.3460E+01  0.0000E+00
   7 -0.7810E-02 -0.7787E-02  0.1003E+01 -0.2305E-02 -0.5460E-02  0.4222E+00  0.4908E+01  0.3125E+01
   8 -0.2751E-02 -0.4990E-02  0.5515E+00 -0.9099E-04 -0.9879E-02  0.9211E-02  0.2784E+01  0.2424E+01
   9 -0.4293E-02 -0.5693E-02  0.7541E+00 -0.9099E-04 -0.9879E-02  0.9211E-02  0.3101E+01  0.2424E+01
  10 -0.6148E-02 -0.7020E-02  0.8757E+00  0.0000E+00  0.0000E+00  0.0000E+00  0.3572E+01  0.0000E+00

 SECOND-ORDER R12/B   PAIR ENERGIES:

   1   -0.005748138   -0.010707135    0.000000000   -0.000000000    0.199674        0.404797    
   2   -0.007417895   -0.015420957   -0.003320678   -0.004496390    0.175748        0.359175    
   3   -0.012874619   -0.019793513    0.000000000   -0.000000000    0.151719        0.313169    
   4   -0.007417895   -0.015420957   -0.003320678   -0.004496390    0.175748        0.359175    
   5   -0.006510338   -0.010063480   -0.005684684   -0.006091200    0.151719        0.313169    
   6   -0.011322708   -0.017377928    0.000000000   -0.000000000    0.151719        0.313169    
   7   -0.007417895   -0.015420957   -0.003320678   -0.004496390    0.175748        0.359175    
   8   -0.004034047   -0.006209078   -0.005684684   -0.006091200    0.151719        0.313169    
   9   -0.007137869   -0.011040247   -0.005684684   -0.006091200    0.151719        0.313169    
  10   -0.012560853   -0.019305129    0.000000000   -0.000000000    0.151719        0.313169    

       -0.082442259   -0.140759382   -0.027016086   -0.031762770

              MP2-R12/B   correlation energy =   -0.172522152

 SECOND-ORDER NONINVARIANT R12/B*  PAIR ENERGIES:

   1   -0.005748138   -0.010529909    0.000000000    0.000000000
   2   -0.007417895   -0.015141044   -0.003320678   -0.004317716
   3   -0.012874619   -0.018627707    0.000000000    0.000000000
   4   -0.007417895   -0.015141044   -0.003320678   -0.004317716
   5   -0.006510338   -0.009439421   -0.005684684   -0.005686339
   6   -0.011322708   -0.015959113    0.000000000    0.000000000
   7   -0.007417895   -0.015141044   -0.003320678   -0.004317716
   8   -0.004034047   -0.005564795   -0.005684684   -0.005686339
   9   -0.007137869   -0.010468115   -0.005684684   -0.005686339
  10   -0.012560853   -0.018082470    0.000000000    0.000000000

       -0.082442259   -0.134094663   -0.027016086   -0.030012166

 Noninvariant MP2-R12/B*  correlation energy =   -0.164106829

  IJ    V(IJ)       U(IJ)       C(IJ)       V(IJ)       U(IJ)       C(IJ)   

   1 -0.4886E-02 -0.4992E-02  0.9788E+00  0.0000E+00  0.0000E+00  0.0000E+00  0.4984E+01  0.0000E+00
   2 -0.7723E-02 -0.7722E-02  0.1000E+01 -0.2318E-02 -0.5390E-02  0.4301E+00  0.4867E+01  0.3085E+01
   3 -0.6336E-02 -0.6977E-02  0.9080E+00  0.0000E+00  0.0000E+00  0.0000E+00  0.3542E+01  0.0000E+00
   4 -0.7723E-02 -0.7722E-02  0.1000E+01 -0.2318E-02 -0.5390E-02  0.4301E+00  0.4867E+01  0.3085E+01
   5 -0.4004E-02 -0.5474E-02  0.7315E+00 -0.1274E-03 -0.9802E-02  0.1299E-01  0.2996E+01  0.2405E+01
   6 -0.5550E-02 -0.6643E-02  0.8355E+00  0.0000E+00  0.0000E+00  0.0000E+00  0.3410E+01  0.0000E+00
   7 -0.7723E-02 -0.7722E-02  0.1000E+01 -0.2318E-02 -0.5390E-02  0.4301E+00  0.4867E+01  0.3085E+01
   8 -0.2750E-02 -0.4940E-02  0.5566E+00 -0.1274E-03 -0.9802E-02  0.1299E-01  0.2756E+01  0.2405E+01
   9 -0.4322E-02 -0.5610E-02  0.7705E+00 -0.1274E-03 -0.9802E-02  0.1299E-01  0.3055E+01  0.2405E+01
  10 -0.6177E-02 -0.6910E-02  0.8939E+00  0.0000E+00  0.0000E+00  0.0000E+00  0.3516E+01  0.0000E+00

 SECOND-ORDER R12/B*  PAIR ENERGIES:

   1   -0.005748138   -0.010567478    0.000000000   -0.000000000    0.177773        0.367318    
   2   -0.007417895   -0.015295934   -0.003320678   -0.004523626    0.153644        0.322072    
   3   -0.012874619   -0.019685245    0.000000000   -0.000000000    0.129336        0.276603    
   4   -0.007417895   -0.015295934   -0.003320678   -0.004523626    0.153644        0.322072    
   5   -0.006510338   -0.010126469   -0.005684684   -0.006140806    0.129336        0.276603    
   6   -0.011322708   -0.017251011    0.000000000   -0.000000000    0.129336        0.276603    
   7   -0.007417895   -0.015295934   -0.003320678   -0.004523626    0.153644        0.322072    
   8   -0.004034047   -0.006242309   -0.005684684   -0.006140806    0.129336        0.276603    
   9   -0.007137869   -0.011110777   -0.005684684   -0.006140806    0.129336        0.276603    
  10   -0.012560853   -0.019193091    0.000000000   -0.000000000    0.129336        0.276603    

       -0.082442259   -0.140064181   -0.027016086   -0.031993295

              MP2-R12/B*  correlation energy =   -0.172057476


          +-------------------------------------------------------------+
          ! MP2-R12 ansatz := (1 - V1*V2) * (1 - O1 - O2 + O1*O2) * R12 !
          +-------------------------------------------------------------+



                         +--------------------------------+
                         ! Auxiliary-basis MP2-R12 method !
                         +--------------------------------+


 SECOND-ORDER NONINVARIANT R12/B   PAIR ENERGIES:

   1   -0.005748138   -0.010673320    0.000000000    0.000000000
   2   -0.007417895   -0.015251133   -0.003320678   -0.004294164
   3   -0.012874619   -0.018478214    0.000000000    0.000000000
   4   -0.007417895   -0.015251133   -0.003320678   -0.004294164
   5   -0.006510338   -0.009365931   -0.005684684   -0.005685522
   6   -0.011322708   -0.015865113    0.000000000    0.000000000
   7   -0.007417895   -0.015251133   -0.003320678   -0.004294164
   8   -0.004034047   -0.005551354   -0.005684684   -0.005685522
   9   -0.007137869   -0.010375091   -0.005684684   -0.005685522
  10   -0.012560853   -0.017944823    0.000000000    0.000000000

       -0.082442259   -0.134007245   -0.027016086   -0.029939056

 Noninvariant MP2-R12/B   correlation energy =   -0.163946301

  IJ    V(IJ)       U(IJ)       C(IJ)       V(IJ)       U(IJ)       C(IJ)   

   1 -0.4997E-02 -0.5070E-02  0.9856E+00  0.0000E+00  0.0000E+00  0.0000E+00  0.8689E+01  0.0000E+00
   2 -0.7810E-02 -0.7787E-02  0.1003E+01 -0.2305E-02 -0.5460E-02  0.4222E+00  0.7140E+01  0.4939E+01
   3 -0.6304E-02 -0.7092E-02  0.8889E+00  0.0000E+00  0.0000E+00  0.0000E+00  0.6319E+01  0.0000E+00
   4 -0.7810E-02 -0.7787E-02  0.1003E+01 -0.2305E-02 -0.5460E-02  0.4222E+00  0.7140E+01  0.4939E+01
   5 -0.3981E-02 -0.5551E-02  0.7173E+00 -0.9099E-04 -0.9879E-02  0.9211E-02  0.4836E+01  0.3353E+01
   6 -0.5533E-02 -0.6740E-02  0.8209E+00  0.0000E+00  0.0000E+00  0.0000E+00  0.5611E+01  0.0000E+00
   7 -0.7810E-02 -0.7787E-02  0.1003E+01 -0.2305E-02 -0.5460E-02  0.4222E+00  0.7140E+01  0.4939E+01
   8 -0.2751E-02 -0.4990E-02  0.5515E+00 -0.9099E-04 -0.9879E-02  0.9211E-02  0.3917E+01  0.3353E+01
   9 -0.4293E-02 -0.5693E-02  0.7541E+00 -0.9099E-04 -0.9879E-02  0.9211E-02  0.5102E+01  0.3353E+01
  10 -0.6148E-02 -0.7020E-02  0.8757E+00  0.0000E+00  0.0000E+00  0.0000E+00  0.6168E+01  0.0000E+00

 SECOND-ORDER R12/B   PAIR ENERGIES:

   1   -0.005748138   -0.010707135    0.000000000   -0.000000000     2.42027         2.41425    
   2   -0.007417895   -0.015420957   -0.003320678   -0.004496390     2.02732         2.02146    
   3   -0.012874619   -0.019793513    0.000000000   -0.000000000     1.63367         1.62823    
   4   -0.007417895   -0.015420957   -0.003320678   -0.004496390     2.02732         2.02146    
   5   -0.006510338   -0.010063480   -0.005684684   -0.006091200     1.63367         1.62823    
   6   -0.011322708   -0.017377928    0.000000000   -0.000000000     1.63367         1.62823    
   7   -0.007417895   -0.015420957   -0.003320678   -0.004496390     2.02732         2.02146    
   8   -0.004034047   -0.006209078   -0.005684684   -0.006091200     1.63367         1.62823    
   9   -0.007137869   -0.011040247   -0.005684684   -0.006091200     1.63367         1.62823    
  10   -0.012560853   -0.019305129    0.000000000   -0.000000000     1.63367         1.62823    

       -0.082442259   -0.140759382   -0.027016086   -0.031762770

              MP2-R12/B   correlation energy =   -0.172522152
 >>>  Time used in E(R12)     is  1 minute  57 seconds
 Time for MP2-R12 part cpu :   132.20800000000003     
 Time for MP2-R12 part wall:   137.21700000762939     

NOAUXB with HERDIR not implemented


 *******************************************************************

 Ground state energy is target 

 Ecorr =                      0.00000000000000000000

 *******************************************************************

 requested model not yet implemented
  

 *******************************************************************************
 *******************************************************************************
 *                                                                             *
 *                                                                             *
 *                   SUMMARY OF COUPLED CLUSTER CALCULATION                    *
 *                                                                             *
 *                                                                             *
 *******************************************************************************
 *******************************************************************************

  

 *******************************************************************************
 *******************************************************************************
 *                                                                             *
 *                                                                             *
 *                      END OF COUPLED CLUSTER CALCULATION                     *
 *                                                                             *
 *                                                                             *
 *******************************************************************************
 *******************************************************************************


 >>>> CPU and wall time for CC :     132.208     137.217

 
     Date and time (Linux)  : Sun Sep  8 21:02:41 2013
     Host name              : lpqlx131.ups-tlse.fr                    


                      .-------------------------------------.
                      | End of Coupled Cluster Section (CC) |
                      `-------------------------------------'

 >>>> Total CPU  time used in DALTON:  2 minutes 13 seconds
 >>>> Total wall time used in DALTON:  2 minutes 18 seconds

 
     Date and time (Linux)  : Sun Sep  8 21:02:41 2013
     Host name              : lpqlx131.ups-tlse.fr                    
