

     ************************************************************************
     *************** Dalton - An Electronic Structure Program ***************
     ************************************************************************

    This is output from DALTON (Release Dalton2013 patch 0)
   ----------------------------------------------------------------------------
    NOTE:
     
    Dalton is an experimental code for the evaluation of molecular
    properties using (MC)SCF, DFT, CI, and CC wave functions.
    The authors accept no responsibility for the performance of
    the code or for the correctness of the results.
     
    The code (in whole or part) is provided under a licence and
    is not to be reproduced for further distribution without
    the written permission of the authors or their representatives.
     
    See the home page "http://daltonprogram.org" for further information.
     
    If results obtained with this code are published,
    the appropriate citations would be both of:
     
       K. Aidas, C. Angeli, K. L. Bak, V. Bakken, R. Bast,
       L. Boman, O. Christiansen, R. Cimiraglia, S. Coriani,
       P. Dahle, E. K. Dalskov, U. Ekstroem, T. Enevoldsen,
       J. J. Eriksen, P. Ettenhuber, B. Fernandez, L. Ferrighi,
       H. Fliegl, L. Frediani, K. Hald, A. Halkier, C. Haettig,
       H. Heiberg, T. Helgaker, A. C. Hennum, H. Hettema,
       E. Hjertenaes, S. Hoest, I.-M. Hoeyvik, M. F. Iozzi,
       B. Jansik, H. J. Aa. Jensen, D. Jonsson, P. Joergensen,
       J. Kauczor, S. Kirpekar, T. Kjaergaard, W. Klopper,
       S. Knecht, R. Kobayashi, H. Koch, J. Kongsted, A. Krapp,
       K. Kristensen, A. Ligabue, O. B. Lutnaes, J. I. Melo,
       K. V. Mikkelsen, R. H. Myhre, C. Neiss, C. B. Nielsen,
       P. Norman, J. Olsen, J. M. H. Olsen, A. Osted,
       M. J. Packer, F. Pawlowski, T. B. Pedersen, P. F. Provasi,
       S. Reine, Z. Rinkevicius, T. A. Ruden, K. Ruud, V. Rybkin,
       P. Salek, C. C. M. Samson, A. Sanchez de Meras, T. Saue,
       S. P. A. Sauer, B. Schimmelpfennig, K. Sneskov,
       A. H. Steindal, K. O. Sylvester-Hvid, P. R. Taylor,
       A. M. Teale, E. I. Tellgren, D. P. Tew, A. J. Thorvaldsen,
       L. Thoegersen, O. Vahtras, M. A. Watson, D. J. D. Wilson,
       M. Ziolkowski and H. Agren.
       The Dalton quantum chemistry program system.
       WIREs Comput. Mol. Sci. 2013. doi: 10.1002/wcms.1172
    
    and
    
       Dalton, a Molecular Electronic Structure Program,
       Release DALTON2013.0 (2013), see http://daltonprogram.org
   ----------------------------------------------------------------------------

    Authors in alphabetical order (major contribution(s) in parenthesis):

  Kestutis Aidas,           Vilnius University,           Lithuania   (QM/MM)
  Celestino Angeli,         University of Ferrara,        Italy       (NEVPT2)
  Keld L. Bak,              UNI-C,                        Denmark     (AOSOPPA, non-adiabatic coupling, magnetic properties)
  Vebjoern Bakken,          University of Oslo,           Norway      (DALTON; geometry optimizer, symmetry detection)
  Radovan Bast,             KTH Stockholm                 Sweden      (DALTON installation and execution frameworks)
  Linus Boman,              NTNU,                         Norway      (Cholesky decomposition and subsystems)
  Ove Christiansen,         Aarhus University,            Denmark     (CC module)
  Renzo Cimiraglia,         University of Ferrara,        Italy       (NEVPT2)
  Sonia Coriani,            University of Trieste,        Italy       (CC module, MCD in RESPONS)
  Paal Dahle,               University of Oslo,           Norway      (Parallelization)
  Erik K. Dalskov,          UNI-C,                        Denmark     (SOPPA)
  Thomas Enevoldsen,        Univ. of Southern Denmark,    Denmark     (SOPPA)
  Janus J. Eriksen,         Aarhus University,            Denmark     (PE-MP2/SOPPA, TDA)
  Berta Fernandez,          U. of Santiago de Compostela, Spain       (doublet spin, ESR in RESPONS)
  Lara Ferrighi,            Aarhus University,            Denmark     (PCM Cubic response)
  Heike Fliegl,             University of Oslo,           Norway      (CCSD(R12))
  Luca Frediani,            UiT The Arctic U. of Norway,  Norway      (PCM)
  Bin Gao,                  UiT The Arctic U. of Norway,  Norway      (Gen1Int library)
  Christof Haettig,         Ruhr-University Bochum,       Germany     (CC module)
  Kasper Hald,              Aarhus University,            Denmark     (CC module)
  Asger Halkier,            Aarhus University,            Denmark     (CC module)
  Hanne Heiberg,            University of Oslo,           Norway      (geometry analysis, selected one-electron integrals)
  Trygve Helgaker,          University of Oslo,           Norway      (DALTON; ABACUS, ERI, DFT modules, London, and much more)
  Alf Christian Hennum,     University of Oslo,           Norway      (Parity violation)
  Hinne Hettema,            University of Auckland,       New Zealand (quadratic response in RESPONS; SIRIUS supersymmetry)
  Eirik Hjertenaes,         NTNU,                         Norway      (Cholesky decomposition)
  Maria Francesca Iozzi,    University of Oslo,           Norway      (RPA)
  Brano Jansik              Technical Univ. of Ostrava    Czech Rep.  (DFT cubic response)
  Hans Joergen Aa. Jensen,  Univ. of Southern Denmark,    Denmark     (DALTON; SIRIUS, RESPONS, ABACUS modules, London, and much more)
  Dan Jonsson,              UiT The Arctic U. of Norway,  Norway      (cubic response in RESPONS module)
  Poul Joergensen,          Aarhus University,            Denmark     (RESPONS, ABACUS, and CC modules)
  Joanna Kauczor,           Linkoeping University,        Sweden      (Complex polarization propagator (CPP) module)
  Sheela Kirpekar,          Univ. of Southern Denmark,    Denmark     (Mass-velocity & Darwin integrals)
  Wim Klopper,              KIT Karlsruhe,                Germany     (R12 code in CC, SIRIUS, and ABACUS modules)
  Stefan Knecht,            ETH Zurich,                   Switzerland (Parallel CI and MCSCF)
  Rika Kobayashi,           Australian National Univ.,    Australia   (DIIS in CC, London in MCSCF)
  Henrik Koch,              NTNU,                         Norway      (CC module, Cholesky decomposition)
  Jacob Kongsted,           Univ. of Southern Denmark,    Denmark     (Polarizable embedding, QM/MM)
  Andrea Ligabue,           University of Modena,         Italy       (CTOCD, AOSOPPA)
  Ola B. Lutnaes,           University of Oslo,           Norway      (DFT Hessian)
  Juan I. Melo,             University of Buenos Aires,   Argentina   (LRESC, Relativistic Effects on NMR Shieldings)
  Kurt V. Mikkelsen,        University of Copenhagen,     Denmark     (MC-SCRF and QM/MM)
  Rolf H. Myhre,            NTNU,                         Norway      (Cholesky, subsystems and ECC2)
  Christian Neiss,          Univ. Erlangen-Nuernberg,     Germany     (CCSD(R12))
  Christian B. Nielsen,     University of Copenhagen,     Denmark     (QM/MM)
  Patrick Norman,           Linkoeping University,        Sweden      (Cubic response and complex response in RESPONS)
  Jeppe Olsen,              Aarhus University,            Denmark     (SIRIUS CI/density modules)
  Jogvan Magnus H. Olsen,   Univ. of Southern Denmark,    Denmark     (Polarizable embedding, PE library, QM/MM)
  Anders Osted,             Copenhagen University,        Denmark     (QM/MM)
  Martin J. Packer,         University of Sheffield,      UK          (SOPPA)
  Filip Pawlowski,          Kazimierz Wielki University   Poland      (CC3)
  Thomas B. Pedersen,       University of Oslo,           Norway      (Cholesky decomposition)
  Patricio F. Provasi,      University of Northeastern,   Argentina   (Analysis of coupling constants in localized orbitals)
  Zilvinas Rinkevicius,     KTH Stockholm,                Sweden      (open-shell DFT, ESR)
  Elias Rudberg,            KTH Stockholm,                Sweden      (DFT grid and basis info)
  Torgeir A. Ruden,         University of Oslo,           Norway      (Numerical derivatives in ABACUS)
  Kenneth Ruud,             UiT The Arctic U. of Norway,  Norway      (DALTON; ABACUS magnetic properties and  much more)
  Pawel Salek,              KTH Stockholm,                Sweden      (DALTON; DFT code)
  Claire C. M. Samson       University of Karlsruhe       Germany     (Boys localization, r12 integrals in ERI)
  Alfredo Sanchez de Meras, University of Valencia,       Spain       (CC module, Cholesky decomposition)
  Trond Saue,               Paul Sabatier University,     France      (direct Fock matrix construction)
  Stephan P. A. Sauer,      University of Copenhagen,     Denmark     (SOPPA(CCSD), SOPPA prop., AOSOPPA, vibrational g-factors)
  Bernd Schimmelpfennig,    Forschungszentrum Karlsruhe,  Germany     (AMFI module)
  Kristian Sneskov,         Aarhus University,            Denmark     (QM/MM, PE-CC)
  Arnfinn H. Steindal,      UiT The Arctic U. of Norway,  Norway      (parallel QM/MM)
  K. O. Sylvester-Hvid,     University of Copenhagen,     Denmark     (MC-SCRF)
  Peter R. Taylor,          VLSCI/Univ. of Melbourne,     Australia   (Symmetry handling ABACUS, integral transformation)
  Andrew M. Teale,          University of Nottingham,     England     (DFT-AC, DFT-D)
  David P. Tew,             University of Bristol,        England     (CCSD(R12))
  Olav Vahtras,             KTH Stockholm,                Sweden      (triplet response, spin-orbit, ESR, TDDFT, open-shell DFT)
  David J. Wilson,          La Trobe University,          Australia   (DFT Hessian and DFT magnetizabilities)
  Hans Agren,               KTH Stockholm,                Sweden      (SIRIUS module, RESPONS, MC-SCRF solvation model)
 --------------------------------------------------------------------------------

     Date and time (Linux)  : Sun Sep  8 21:00:01 2013
     Host name              : lpqlx131.ups-tlse.fr                    

 * Work memory size             :    64000000 =  488.28 megabytes.

 * Directories for basis set searches:
   1) /home/bast/DALTON-2013.0-Source/build/test_r12_orb
   2) /home/bast/DALTON-2013.0-Source/build/basis


Compilation information
-----------------------

 Who compiled             | bast
 Host                     | lpqlx131.ups-tlse.fr
 System                   | Linux-3.8.5-201.fc18.x86_64
 CMake generator          | Unix Makefiles
 Processor                | x86_64
 64-bit integers          | OFF
 MPI                      | OFF
 Fortran compiler         | /usr/bin/gfortran
 Fortran compiler version | GNU Fortran (GCC) 4.7.2 20121109 (Red Hat 4.7.2-8)
 C compiler               | /usr/bin/gcc
 C compiler version       | gcc (GCC) 4.7.2 20121109 (Red Hat 4.7.2-8)
 C++ compiler             | /usr/bin/g++
 C++ compiler version     | g++ (GCC) 4.7.2 20121109 (Red Hat 4.7.2-8)
 Static linking           | OFF
 Last Git revision        | f34203295a86316e27f9e7b44f9b6769c4a046c0
 Configuration time       | 2013-09-08 20:31:27.952056


   Content of the .dal input file
 ----------------------------------

**DALTON INPUT                                    
.RUN WAVE FUNCTION                                
.DIRECT                                           
**INTEGRALS                                       
.R12RSG                                           
0.5                                               
3                                                 
**WAVE FUNCTIONS                                  
.CC                                               
*ORBITALS                                         
.MOSTART                                          
 H1DIAG                                           
.FROZEN                                           
 1 0 0 0                                          
.R12ORB                                           
 1 2 2 2                                          
*SCF INPUT                                        
.THRESHOLD                                        
 1D-10                                            
*CC INPUT                                         
.HERDIR                                           
.MP2                                              
.PRINT                                            
 3                                                
*R12                                              
.R12XXL                                           
.CABS                                             
**END OF DALTON INPUT                             


   Content of the .mol file
 ----------------------------

BASIS                                                                          
Turbomole-TZV Turbomole-TZVP                                                   
Direct MP2-R12/B calculation using symmetry                                    
                                                                               
    4    2 XY XZ                                                               
 1      6.    1                                                                
C      0.000000000000000   0.000000000000000   0.000000000000000       *       
 1      1.    1                                                                
H      1.276731000000000   1.276731000000000   1.276731000000000       *       
 2      6.    1                                                                
C      0.000000000000000   0.000000000000000   0.000000000000000       *       
 2      1.    1                                                                
H      1.276731000000000   1.276731000000000   1.276731000000000       *       


       *******************************************************************
       *********** Output from DALTON general input processing ***********
       *******************************************************************

 --------------------------------------------------------------------------------
   Overall default print level:    0
   Print level for DALTON.STAT:    1

    AO-direct calculation (in sections where implemented)
    HERMIT 1- and 2-electron integral sections will be executed
    "Old" integral transformation used (limited to max 255 basis functions)
    Wave function sections will be executed (SIRIUS module)
 --------------------------------------------------------------------------------


   ****************************************************************************
   *************** Output of molecule and basis set information ***************
   ****************************************************************************


 INFO: basis set line contains more than one basis set:
     Turbomole-TZV Turbomole-TZVP
 INFO: ".R12AUX" activated automatically.

    The two title cards from your ".mol" input:
    ------------------------------------------------------------------------
 1: Direct MP2-R12/B calculation using symmetry                             
 2:                                                                         
    ------------------------------------------------------------------------

  Atomic type no.    1
  --------------------
  Nuclear charge:   6.00000
  Number of symmetry independent centers:    1
  Number of basis sets to read;    1
  Basis set file used for this atomic type with Z =   6 :
     "/home/bast/DALTON-2013.0-Source/build/basis/Turbomole-TZV"

  Atomic type no.    2
  --------------------
  Nuclear charge:   1.00000
  Number of symmetry independent centers:    1
  Number of basis sets to read;    1
  Basis set file used for this atomic type with Z =   1 :
     "/home/bast/DALTON-2013.0-Source/build/basis/Turbomole-TZV"

  Atomic type no.    3
  --------------------
  Nuclear charge:   6.00000
  Number of symmetry independent centers:    1
  This is an auxiliary basis for R12, MBSI:    2
  Basis set file used for this atomic type with Z =   6 :
     "/home/bast/DALTON-2013.0-Source/build/basis/Turbomole-TZVP"

  Atomic type no.    4
  --------------------
  Nuclear charge:   1.00000
  Number of symmetry independent centers:    1
  This is an auxiliary basis for R12, MBSI:    2
  Basis set file used for this atomic type with Z =   1 :
     "/home/bast/DALTON-2013.0-Source/build/basis/Turbomole-TZVP"


                         SYMGRP: Point group information
                         -------------------------------

Point group: D2 

   * The point group was generated by:

      Rotation about the z-axis
      Rotation about the y-axis

   * Group multiplication table

        |  E   C2z  C2y  C2x
   -----+--------------------
     E  |  E   C2z  C2y  C2x
    C2z | C2z   E   C2x  C2y
    C2y | C2y  C2x   E   C2z
    C2x | C2x  C2y  C2z   E 

   * Character table

        |  E   C2z  C2y  C2x
   -----+--------------------
    A   |   1    1    1    1
    B2  |   1   -1    1   -1
    B1  |   1    1   -1   -1
    B3  |   1   -1   -1    1

   * Direct product table

        | A    B2   B1   B3 
   -----+--------------------
    A   | A    B2   B1   B3 
    B2  | B2   A    B3   B1 
    B1  | B1   B3   A    B2 
    B3  | B3   B1   B2   A  


                                 Isotopic Masses
                                 ---------------

                           C          12.000000
                           H   _1      1.007825
                           H   _2      1.007825
                           H   _3      1.007825
                           H   _4      1.007825
                           C           0.000000
                           H   _1      0.000000
                           H   _2      0.000000
                           H   _3      0.000000
                           H   _4      0.000000

                       Total mass:    16.031300 amu
                       Natural abundance:   0.000 %

 Center-of-mass coordinates (a.u.):    0.000000    0.000000    0.000000


  Atoms and basis sets
  --------------------

  Number of atom types :    4
  Total number of atoms:   10

  Basis set 1 refers to the basis "Turbomole-TZV" from the basis set library.

  Basis set 2 refers to the basis "Turbomole-TZVP" from the basis set library.

  label  basis   atoms  charge   prim  cont     basis
  ------------------------------------------------------------------------------
  C        1       1    6.0000    29    14      [11s6p|5s3p]                                       
  H        1       4    1.0000     5     3      [5s|3s]                                            
  C        2       1    0.0000    34    19      [11s6p1d|5s3p1d]                                   
  H        2       4    0.0000     8     6      [5s1p|3s1p]                                        
  ------------------------------------------------------------------------------
  total:          10   10.0000   115    69
  ------------------------------------------------------------------------------
  Spherical harmonic basis used.

  Threshold for neglecting AO integrals:  1.00D-12


  Cartesian Coordinates (a.u.)
  ----------------------------

  Total number of coordinates:   30
  C       :     1  x   0.0000000000    2  y   0.0000000000    3  z   0.0000000000
  H   / 1 :     4  x   1.2767310000    5  y   1.2767310000    6  z   1.2767310000
  H   / 2 :     7  x  -1.2767310000    8  y  -1.2767310000    9  z   1.2767310000
  H   / 3 :    10  x  -1.2767310000   11  y   1.2767310000   12  z  -1.2767310000
  H   / 4 :    13  x   1.2767310000   14  y  -1.2767310000   15  z  -1.2767310000
  C       :    16  x   0.0000000000   17  y   0.0000000000   18  z   0.0000000000
  H   / 1 :    19  x   1.2767310000   20  y   1.2767310000   21  z   1.2767310000
  H   / 2 :    22  x  -1.2767310000   23  y  -1.2767310000   24  z   1.2767310000
  H   / 3 :    25  x  -1.2767310000   26  y   1.2767310000   27  z  -1.2767310000
  H   / 4 :    28  x   1.2767310000   29  y  -1.2767310000   30  z  -1.2767310000


  Symmetry Coordinates
  --------------------

  Number of coordinates in each symmetry:     6    8    8    8

  Symmetry  A   ( 1)

    1   H     x    [  4  -    7  -   10  +   13 ]/4
    2   H     y    [  5  -    8  +   11  -   14 ]/4
    3   H     z    [  6  +    9  -   12  -   15 ]/4
    4   H     x    [ 19  -   22  -   25  +   28 ]/4
    5   H     y    [ 20  -   23  +   26  -   29 ]/4
    6   H     z    [ 21  +   24  -   27  -   30 ]/4

  Symmetry  B2  ( 2)

    7   C     y    2
    8   H     x    [  4  +    7  -   10  -   13 ]/4
    9   H     y    [  5  +    8  +   11  +   14 ]/4
   10   H     z    [  6  -    9  -   12  +   15 ]/4
   11   C     y   17
   12   H     x    [ 19  +   22  -   25  -   28 ]/4
   13   H     y    [ 20  +   23  +   26  +   29 ]/4
   14   H     z    [ 21  -   24  -   27  +   30 ]/4

  Symmetry  B1  ( 3)

   15   C     z    3
   16   H     x    [  4  -    7  +   10  -   13 ]/4
   17   H     y    [  5  -    8  -   11  +   14 ]/4
   18   H     z    [  6  +    9  +   12  +   15 ]/4
   19   C     z   18
   20   H     x    [ 19  -   22  +   25  -   28 ]/4
   21   H     y    [ 20  -   23  -   26  +   29 ]/4
   22   H     z    [ 21  +   24  +   27  +   30 ]/4

  Symmetry  B3  ( 4)

   23   C     x    1
   24   H     x    [  4  +    7  +   10  +   13 ]/4
   25   H     y    [  5  +    8  -   11  -   14 ]/4
   26   H     z    [  6  -    9  +   12  -   15 ]/4
   27   C     x   16
   28   H     x    [ 19  +   22  +   25  +   28 ]/4
   29   H     y    [ 20  +   23  -   26  -   29 ]/4
   30   H     z    [ 21  -   24  +   27  -   30 ]/4


   Interatomic separations (in Angstrom):
   --------------------------------------

            C           H   _1      H   _2      H   _3      H   _4      C     
            ------      ------      ------      ------      ------      ------
 C     :    0.000000
 H   _1:    1.170203    0.000000
 H   _2:    1.170203    1.910933    0.000000
 H   _3:    1.170203    1.910933    1.910933    0.000000
 H   _4:    1.170203    1.910933    1.910933    1.910933    0.000000
 C     :    0.000000    1.170203    1.170203    1.170203    1.170203    0.000000
 H   _1:    1.170203    0.000000    1.910933    1.910933    1.910933    1.170203
 H   _2:    1.170203    1.910933    0.000000    1.910933    1.910933    1.170203
 H   _3:    1.170203    1.910933    1.910933    0.000000    1.910933    1.170203
 H   _4:    1.170203    1.910933    1.910933    1.910933    0.000000    1.170203

            H   _1      H   _2      H   _3      H   _4
            ------      ------      ------      ------
 H   _1:    0.000000
 H   _2:    1.910933    0.000000
 H   _3:    1.910933    1.910933    0.000000
 H   _4:    1.910933    1.910933    1.910933    0.000000


  Max    interatomic separation is    1.9109 Angstrom (    3.6111 Bohr)
  between atoms    3 and    2, "H   _2" and "H   _1".

  Min HX interatomic separation is    0.0000 Angstrom (    0.0000 Bohr)

  Min YX interatomic separation is    0.0000 Angstrom (    0.0000 Bohr)

WARNING: Number of short HX and YX bond lengths:    4    1
WARNING: If not intentional, maybe your coordinates were in Angstrom,
WARNING: but "Angstrom" was not specified in .mol file


  Bond distances (Angstrom):
  --------------------------

                  atom 1     atom 2       distance
                  ------     ------       --------
  bond distance:  H   _1     C            1.170203
  bond distance:  H   _2     C            1.170203
  bond distance:  H   _3     C            1.170203
  bond distance:  H   _4     C            1.170203


  Bond angles (degrees):
  ----------------------

                  atom 1     atom 2     atom 3         angle
                  ------     ------     ------         -----
  bond angle:     H   _1     C          H   _2       109.471
  bond angle:     H   _1     C          H   _3       109.471
  bond angle:     H   _1     C          H   _4       109.471
  bond angle:     H   _2     C          H   _3       109.471
  bond angle:     H   _2     C          H   _4       109.471
  bond angle:     H   _3     C          H   _4       109.471




 Principal moments of inertia (u*A**2) and principal axes
 --------------------------------------------------------

   IA       3.680240          1.000000    0.000000    0.000000
   IB       3.680240          0.000000    1.000000    0.000000
   IC       3.680240          0.000000    0.000000    1.000000


 Rotational constants
 --------------------

               A                   B                   C

         137322.2814         137322.2814         137322.2814 MHz
            4.580578            4.580578            4.580578 cm-1


@  Nuclear repulsion energy :   12.514560078913 Hartree


  Symmetry Orbitals
  -----------------

  Number of orbitals in each symmetry:          21   16   16   16

  Number of main orbitals in each symmetry:           8    6    6    6
  Number of auxiliary functions in each symmetry:    13   10   10   10


  Symmetry  A  ( 1)

    1     C    M   1s         1
    2     C    M   1s         2
    3     C    M   1s         3
    4     C    M   1s         4
    5     C    M   1s         5
    6     H    M   1s        15 +   16 +   17 +   18
    7     H    M   1s        19 +   20 +   21 +   22
    8     H    M   1s        23 +   24 +   25 +   26
    9     C    A   1s        27
   10     C    A   1s        28
   11     C    A   1s        29
   12     C    A   1s        30
   13     C    A   1s        31
   14     C    A   3d0       43
   15     C    A   3d2+      45
   16     H    A   1s        46 +   47 +   48 +   49
   17     H    A   1s        50 +   51 +   52 +   53
   18     H    A   1s        54 +   55 +   56 +   57
   19     H    A   2px       58 -   59 -   60 +   61
   20     H    A   2py       62 -   63 +   64 -   65
   21     H    A   2pz       66 +   67 -   68 -   69


  Symmetry  B2 ( 2)

   22     C    M   2py        7
   23     C    M   2py       10
   24     C    M   2py       13
   25     H    M   1s        15 -   16 +   17 -   18
   26     H    M   1s        19 -   20 +   21 -   22
   27     H    M   1s        23 -   24 +   25 -   26
   28     C    A   2py       33
   29     C    A   2py       36
   30     C    A   2py       39
   31     C    A   3d1+      44
   32     H    A   1s        46 -   47 +   48 -   49
   33     H    A   1s        50 -   51 +   52 -   53
   34     H    A   1s        54 -   55 +   56 -   57
   35     H    A   2px       58 +   59 -   60 -   61
   36     H    A   2py       62 +   63 +   64 +   65
   37     H    A   2pz       66 -   67 -   68 +   69


  Symmetry  B1 ( 3)

   38     C    M   2pz        8
   39     C    M   2pz       11
   40     C    M   2pz       14
   41     H    M   1s        15 +   16 -   17 -   18
   42     H    M   1s        19 +   20 -   21 -   22
   43     H    M   1s        23 +   24 -   25 -   26
   44     C    A   2pz       34
   45     C    A   2pz       37
   46     C    A   2pz       40
   47     C    A   3d2-      41
   48     H    A   1s        46 +   47 -   48 -   49
   49     H    A   1s        50 +   51 -   52 -   53
   50     H    A   1s        54 +   55 -   56 -   57
   51     H    A   2px       58 -   59 +   60 -   61
   52     H    A   2py       62 -   63 -   64 +   65
   53     H    A   2pz       66 +   67 +   68 +   69


  Symmetry  B3 ( 4)

   54     C    M   2px        6
   55     C    M   2px        9
   56     C    M   2px       12
   57     H    M   1s        15 -   16 -   17 +   18
   58     H    M   1s        19 -   20 -   21 +   22
   59     H    M   1s        23 -   24 -   25 +   26
   60     C    A   2px       32
   61     C    A   2px       35
   62     C    A   2px       38
   63     C    A   3d1-      42
   64     H    A   1s        46 -   47 -   48 +   49
   65     H    A   1s        50 -   51 -   52 +   53
   66     H    A   1s        54 -   55 -   56 +   57
   67     H    A   2px       58 +   59 +   60 +   61
   68     H    A   2py       62 +   63 -   64 -   65
   69     H    A   2pz       66 -   67 +   68 -   69

  Number of floating/multiple basis set orbitals :    5

  Symmetries of electric field:  B3 (4)  B2 (2)  B1 (3)

  Symmetries of magnetic field:  B3 (4)  B2 (2)  B1 (3)


                     .---------------------------------------.
                     | Starting in Integral Section (HERMIT) |
                     `---------------------------------------'



    *************************************************************************
    ****************** Output from HERMIT input processing ******************
    *************************************************************************


 Default print level:        1

 * Nuclear model: Point charge

 Calculation of one-electron Hamiltonian integrals.

 The following one-electron property integrals are calculated as requested:
          - overlap integrals
          - Cartesian multipole moment integrals of orders 2 and lower

 Center of mass  (bohr):      0.000000000000      0.000000000000      0.000000000000
 Operator center (bohr):      0.000000000000      0.000000000000      0.000000000000
 Gauge origin    (bohr):      0.000000000000      0.000000000000      0.000000000000
 Dipole origin   (bohr):      0.000000000000      0.000000000000      0.000000000000


     ************************************************************************
     ************************** Output from HERINT **************************
     ************************************************************************

 >>>> Total CPU  time used in HERMIT:   0.04 seconds
 >>>> Total wall time used in HERMIT:   0.07 seconds


                        .----------------------------------.
                        | End of Integral Section (HERMIT) |
                        `----------------------------------'



                   .--------------------------------------------.
                   | Starting in Wave Function Section (SIRIUS) |
                   `--------------------------------------------'


 >>>> Detected R12 input:
 Direct Fock matrix formation switched on!
 Scale factors for CC excitations manifolds:
 for bra states (projection manifold):   1.0000000000000000     
 for ket states (operator manifold)  :   1.0000000000000000     

 **********************************************************************
 *SIRIUS* a direct, restricted step, second order MCSCF program       *
 **********************************************************************

 
     Date and time (Linux)  : Sun Sep  8 21:00:01 2013
     Host name              : lpqlx131.ups-tlse.fr                    

 Title lines from ".mol" input file:
     Direct MP2-R12/B calculation using symmetry                             
                                                                             

 Print level on unit LUPRI =   2 is   0
 Print level on unit LUW4  =   2 is   5

@    (Integral direct) CC calculation.

@    This is a combination run starting with
@              a restricted, closed shell Hartree-Fock calculation

 Fock matrices are calculated directly without use of integrals on disk.

 Initial molecular orbitals are obtained according to
 ".MOSTART H1DIAG" input option

     Wave function specification
     ============================

     For the specification of the Coupled Cluster: see later.

@    For the wave function of type :      >>> CC <<<
@    Number of closed shell electrons          10
@    Number of electrons in active shells       0
@    Total charge of the molecule               0

@    Spin multiplicity and 2 M_S                1         0
     Total number of symmetries                 4
@    Reference state symmetry                   1

     Orbital specifications
     ======================
     Abelian symmetry species          All |    1    2    3    4
                                       --- |  ---  ---  ---  ---
     Total number of orbitals           26 |    8    6    6    6
     Number of basis functions          69 |   21   16   16   16

      ** Automatic occupation of RHF orbitals **

      -- Initial occupation of symmetries is determined from diagonal of H1 matrix.           
      -- Initial occupation of symmetries is :
@    Occupied SCF orbitals               5 |    2    1    1    1

     Maximum number of Fock   iterations      0
     Maximum number of DIIS   iterations     60
     Maximum number of QC-SCF iterations     60
     Threshold for SCF convergence     1.00D-10


 Changes of defaults for CC:
 ---------------------------


 -This is a direct atomic orbital integral based
  calculation for coupled cluster wave function

 -Implicit frozen core calculation
  


 >>>>> DIIS optimization of Hartree-Fock <<<<<

 C1-DIIS algorithm; max error vectors =   10

 Automatic occupation of symmetries with  10 electrons.

 Iter     Total energy    Error norm  Delta(E)    SCF occupation
 -----------------------------------------------------------------------------
   1  Screening settings (-IFTHRS, DIFDEN)   -7    T
@  1  -29.2237640129       1.33D+01  -2.92D+01     2   1   1   1
      Virial theorem: -V/T =      1.454438
@      MULPOP C      -4.22; H   _1  1.05; H   _2  1.05; H   _3  1.05; H   _4  1.05; 
 -----------------------------------------------------------------------------
   2  Screening settings (-IFTHRS, DIFDEN)   -7    T
@  2  -34.8133409941       5.65D+00  -5.59D+00     2   1   1   1
      Virial theorem: -V/T =      2.081911
@      MULPOP C       9.91; H   _1 -2.48; H   _2 -2.48; H   _3 -2.48; H   _4 -2.48; 
 -----------------------------------------------------------------------------
   3  Screening settings (-IFTHRS, DIFDEN)   -7    T
@  3  -39.2350220366       4.09D+00  -4.42D+00     2   1   1   1
      Virial theorem: -V/T =      1.896390
@      MULPOP C      -1.67; H   _1  0.42; H   _2  0.42; H   _3  0.42; H   _4  0.42; 
 -----------------------------------------------------------------------------
   4  Screening settings (-IFTHRS, DIFDEN)   -7    T
@  4  -40.0919660086       1.09D+00  -8.57D-01     2   1   1   1
      Virial theorem: -V/T =      1.985113
@      MULPOP C      -0.74; H   _1  0.18; H   _2  0.18; H   _3  0.18; H   _4  0.18; 
 -----------------------------------------------------------------------------
   5  Screening settings (-IFTHRS, DIFDEN)   -7    T
@  5  -40.1716432169       5.01D-02  -7.97D-02     2   1   1   1
      Virial theorem: -V/T =      2.011824
@      MULPOP C      -0.48; H   _1  0.12; H   _2  0.12; H   _3  0.12; H   _4  0.12; 
 -----------------------------------------------------------------------------
   6  Screening settings (-IFTHRS, DIFDEN)   -9    F
@  6  -40.1718284304       1.75D-02  -1.85D-04     2   1   1   1
      Virial theorem: -V/T =      2.011418
@      MULPOP C      -0.51; H   _1  0.13; H   _2  0.13; H   _3  0.13; H   _4  0.13; 
 -----------------------------------------------------------------------------
   7  Screening settings (-IFTHRS, DIFDEN)   -9    T
@  7  -40.1718499949       1.25D-03  -2.16D-05     2   1   1   1
      Virial theorem: -V/T =      2.010919
@      MULPOP C      -0.51; H   _1  0.13; H   _2  0.13; H   _3  0.13; H   _4  0.13; 
 -----------------------------------------------------------------------------
   8  Screening settings (-IFTHRS, DIFDEN)   -9    T
@  8  -40.1718502095       1.69D-04  -2.15D-07     2   1   1   1
      Virial theorem: -V/T =      2.010877
@      MULPOP C      -0.51; H   _1  0.13; H   _2  0.13; H   _3  0.13; H   _4  0.13; 
 -----------------------------------------------------------------------------
   9  Screening settings (-IFTHRS, DIFDEN)  -11    F
@  9  -40.1718502132       7.41D-06  -3.67D-09     2   1   1   1
      Virial theorem: -V/T =      2.010880
@      MULPOP C      -0.51; H   _1  0.13; H   _2  0.13; H   _3  0.13; H   _4  0.13; 
 -----------------------------------------------------------------------------
  10  Screening settings (-IFTHRS, DIFDEN)  -13    F
@ 10  -40.1718502132       1.07D-06  -4.87D-12     2   1   1   1
      Virial theorem: -V/T =      2.010880
@      MULPOP C      -0.51; H   _1  0.13; H   _2  0.13; H   _3  0.13; H   _4  0.13; 
 -----------------------------------------------------------------------------
  11  Screening settings (-IFTHRS, DIFDEN)  -16    F
@ 11  -40.1718502132       5.54D-08  -1.56D-13     2   1   1   1
      Virial theorem: -V/T =      2.010880
@      MULPOP C      -0.51; H   _1  0.13; H   _2  0.13; H   _3  0.13; H   _4  0.13; 
 -----------------------------------------------------------------------------
  12  Screening settings (-IFTHRS, DIFDEN)  -16    T
@ 12  -40.1718502132       4.65D-09   0.00D+00     2   1   1   1
      Virial theorem: -V/T =      2.010880
@      MULPOP C      -0.51; H   _1  0.13; H   _2  0.13; H   _3  0.13; H   _4  0.13; 
 -----------------------------------------------------------------------------
  13  Screening settings (-IFTHRS, DIFDEN)  -16    T
@ 13  -40.1718502132       1.43D-10  -1.42D-14     2   1   1   1
      Virial theorem: -V/T =      2.010880
@      MULPOP C      -0.51; H   _1  0.13; H   _2  0.13; H   _3  0.13; H   _4  0.13; 
 -----------------------------------------------------------------------------
  14  Screening settings (-IFTHRS, DIFDEN)  -16    T
@ 14  -40.1718502132       6.04D-12   1.42D-14     2   1   1   1

@ *** DIIS converged in  14 iterations !
@     Converged SCF energy, gradient:    -40.171850213220    6.04D-12
    - total time used in SIRFCK :              0.00 seconds


 *** SCF orbital energy analysis ***

 Only the five lowest virtual orbital energies printed in each symmetry.

 Number of electrons :   10
 Orbital occupations :    2    1    1    1

 Sym       Hartree-Fock orbital energies

  1    -11.24961569    -0.91566290     0.14348326     0.50797652     0.65725202
         1.81612152     2.53162008

  2     -0.52460189     0.22612728     0.32245767     0.62488594     1.81810760
         2.67814645

  3     -0.52460189     0.22612728     0.32245767     0.62488594     1.81810760
         2.67814645

  4     -0.52460189     0.22612728     0.32245767     0.62488594     1.81810760
         2.67814645

    E(LUMO) :     0.14348326 au (symmetry 1)
  - E(HOMO) :    -0.52460189 au (symmetry 2)
  ------------------------------------------
    gap     :     0.66808515 au

 >>> Writing SIRIFC interface file <<<

  Canonical primary and secondary basis sets
  ISYM       NORB1 MBAS1       NORB2 MBAS2
     1           8     8          13    13
     2           6     6          10    10
     3           6     6          10    10
     4           6     6          10    10


@ Auxiliary orbitals are deleted during canonical orthonormalization
@   because of detected numerical linear dependence.
@ Eigenvalue threshold for num. lin. dep. =  1.00D-06

@   8 MO components are deleted in symmetry    1
 Overlap eigenvalues of the deleted orbitals:
  2.88D-14  1.03D-14  3.73D-15  1.26D-18 -2.48D-17
 -3.55D-16 -4.00D-16 -1.31D-15

@   6 MO components are deleted in symmetry    2
 Overlap eigenvalues of the deleted orbitals:
  1.19D-15  3.72D-16  4.99D-17  4.96D-17 -8.85D-16
 -3.71D-15

@   6 MO components are deleted in symmetry    3
 Overlap eigenvalues of the deleted orbitals:
  6.87D-15  8.46D-16  3.71D-16  5.61D-18 -8.36D-18
 -2.01D-15

@   6 MO components are deleted in symmetry    4
 Overlap eigenvalues of the deleted orbitals:
  1.35D-15  3.00D-16  2.09D-16  1.38D-16 -5.32D-18
 -2.28D-15

  Canonical primary and secondary basis sets
  ISYM       NORB1 MBAS1       NORB2 MBAS2
     1           8     8           5    13
     2           6     6           4    10
     3           6     6           4    10
     4           6     6           4    10

 Computation of exchange matrix done [5]

 AUXILIARY BASIS LOW EIGENVALUES
 ISYM         EIGENVALUE
   1      0.000000000000
   2      0.000000000000
   3      0.000000000000
   4      0.000000000000

 >>>> CPU and wall time for SCF :       0.245       0.491


                       .-----------------------------------.
                       | >>> Final results from SIRIUS <<< |
                       `-----------------------------------'


@    Spin multiplicity:           1
@    Spatial symmetry:            1
@    Total charge of molecule:    0

@    Final HF energy:             -40.171850213220                 
@    Nuclear repulsion:            12.514560078913
@    Electronic energy:           -52.686410292133

@    Final gradient norm:           0.000000000006

 
     Date and time (Linux)  : Sun Sep  8 21:00:02 2013
     Host name              : lpqlx131.ups-tlse.fr                    

 (Only coefficients >0.0100 are printed.)

 Molecular orbitals for symmetry species  1
 ------------------------------------------

    Orbital         1        2        3        4        5
   1 C   :1s     0.4677   0.0897   0.0449  -0.0492   0.0594
   2 C   :1s     0.6127   0.2006   0.1064  -0.0875   0.1407
   3 C   :1s     0.0191  -0.2864  -0.2306  -0.3605  -0.1103
   4 C   :1s    -0.0096  -0.4604   0.0780   3.8384  -1.1975
   5 C   :1s     0.0084  -0.0012  -4.3821 -12.3728  -0.0787
   6 H   :1s     0.0001  -0.0791   0.0225  -0.0094   0.0594
   7 H   :1s     0.0007  -0.0786  -0.0882   0.0162   1.0402
   8 H   :1s    -0.0017  -0.0327   1.5805   2.8637  -0.3862

 Molecular orbitals for symmetry species  2
 ------------------------------------------

    Orbital         1        2        3        4
   1 C   :2py    0.2999   0.1925  -0.0972  -0.3066
   2 C   :2py    0.2916   0.1501  -0.4129  -1.2175
   3 C   :2py    0.0945   1.7722   1.6945   1.8202
   4 H   :1s     0.0969  -0.0323  -0.0232   0.0485
   5 H   :1s     0.1566   0.0602  -0.3687   0.8458
   6 H   :1s     0.0732  -1.6408  -0.1808  -1.5223

 Molecular orbitals for symmetry species  3
 ------------------------------------------

    Orbital         1        2        3        4
   1 C   :2pz    0.2999   0.1925  -0.0972  -0.3066
   2 C   :2pz    0.2916   0.1501  -0.4129  -1.2175
   3 C   :2pz    0.0945   1.7722   1.6945   1.8202
   4 H   :1s     0.0969  -0.0323  -0.0232   0.0485
   5 H   :1s     0.1566   0.0602  -0.3687   0.8458
   6 H   :1s     0.0732  -1.6408  -0.1808  -1.5223

 Molecular orbitals for symmetry species  4
 ------------------------------------------

    Orbital         1        2        3        4
   1 C   :2px    0.2999   0.1925  -0.0972  -0.3066
   2 C   :2px    0.2916   0.1501  -0.4129  -1.2175
   3 C   :2px    0.0945   1.7722   1.6945   1.8202
   4 H   :1s     0.0969  -0.0323  -0.0232   0.0485
   5 H   :1s     0.1566   0.0602  -0.3687   0.8458
   6 H   :1s     0.0732  -1.6408  -0.1808  -1.5223



 >>>> Total CPU  time used in SIRIUS :      0.25 seconds
 >>>> Total wall time used in SIRIUS :      0.50 seconds

 
     Date and time (Linux)  : Sun Sep  8 21:00:02 2013
     Host name              : lpqlx131.ups-tlse.fr                    


                     .---------------------------------------.
                     | End of Wave Function Section (SIRIUS) |
                     `---------------------------------------'



                    .------------------------------------------.
                    | Starting in Coupled Cluster Section (CC) |
                    `------------------------------------------'

  

 *******************************************************************************
 *******************************************************************************
 *                                                                             *
 *                                                                             *
 *                    START OF COUPLED CLUSTER CALCULATION                     *
 *                                                                             *
 *                                                                             *
 *******************************************************************************
 *******************************************************************************



 CCR12 ANSATZ =   0

 CCR12 APPROX =   0

   NRHF   :       2       3       3       3
   NRHFS  :       3       3       3       3
   NORB1  :       8       6       6       6
   NORB2  :       5       4       4       4

 Number of primary orbitals             :           26
 Number of secondary orbitals           :           17
 Total number of orbitals               :           43
 Total number of basis functions        :           69
 Number of (i|p') integrals             :          116
 Number of (i|u') integrals             :          186
 Number of (Ip'|1/r12|jL) integrals     :          116
 Number of (ip'|1/r12|jq') integrals    :        28206
 Number of (ip'|r12|jq') integrals      :        28206
 Number of (ip'|[T1,r12]|jq') integrals :        55939
 Threshold for R12 contributions            =  0.00000    
 Threshold for singular value decomposition = 0.100000E-11

 Calculation with Gaussian-damped linear-r12 terms
 Expansion coefficients and exponents:
    1        0.388000000000000        0.066750000000000
    2        0.318400000000000        0.375750000000000
    3        0.176800000000000        1.982000000000000
 The B matrix is transformed into an orthogonal basis
 and inverted by diagonalization

 ******************************************************************************
 The MP2-R12/A and MP2-R12/B energies are computed as described in:
 W. Klopper, J. Chem. Phys. 120, 10890-10895 (2004).
 To avoid the hybride scheme, the keyword '.NO HYB'
 must be specified in the Dalton input file.
 ------------------------------------------------------------------------------
 Ansaetze 1, 2, 3 are used and results are printed for approximations A and B.
------------------------------------------------------------------------------
 The Gaussian-damped R12 integrals are computed as described in:
 C. C. M. Samson, W. Klopper and T. Helgaker,
 Comp. Phys. Commun. 149, 1-10 (2002).
 ******************************************************************************

 Core memory required by CCSD_R12 :         333149  (double words)


 Number of two-electron spin-orbit integrals written:     12285 ( 1.5%)

 Number of two-electron spin-orbit integrals written:     21357 ( 1.4%)

 Number of two-electron spin-orbit integrals written:     30186 ( 1.5%)
 >>>  Time used in TWOINT     is   0.14 seconds

 Number of two-electron spin-orbit integrals written:      1170 ( 0.1%)

 Number of two-electron spin-orbit integrals written:      2106 ( 0.1%)

 Number of two-electron spin-orbit integrals written:      1162 ( 0.1%)

 Number of two-electron spin-orbit integrals written:      2808 ( 0.1%)

 Number of two-electron spin-orbit integrals written:      2808 ( 0.1%)
 Computation of (ik|[[f12,T1],f12]|jl) integrals done
 >>>  Time used in #6 [4]     is   0.40 seconds

 Number of two-electron spin-orbit integrals written:     12285 ( 1.5%)

 Number of two-electron spin-orbit integrals written:     21357 ( 1.4%)

 Number of two-electron spin-orbit integrals written:     30186 ( 1.5%)
 >>>  Time used in TWOINT     is   0.12 seconds

 Number of two-electron spin-orbit integrals written:      1170 ( 0.1%)

 Number of two-electron spin-orbit integrals written:      2106 ( 0.1%)

 Number of two-electron spin-orbit integrals written:      1162 ( 0.1%)

 Number of two-electron spin-orbit integrals written:      2808 ( 0.1%)

 Number of two-electron spin-orbit integrals written:      2808 ( 0.1%)
 Computation of (ik|f12**2|jl) integrals done
 >>>  Time used in #4 [4]     is   0.35 seconds

 Number of two-electron spin-orbit integrals written:     12285 ( 1.5%)

 Number of two-electron spin-orbit integrals written:     21357 ( 1.4%)

 Number of two-electron spin-orbit integrals written:     30186 ( 1.5%)

 Number of two-electron spin-orbit integrals written:      1170 ( 0.1%)

 Number of two-electron spin-orbit integrals written:      2106 ( 0.1%)

 Number of two-electron spin-orbit integrals written:      1162 ( 0.1%)

 Number of two-electron spin-orbit integrals written:      2808 ( 0.1%)

 Number of two-electron spin-orbit integrals written:      2808 ( 0.1%)
 Computation of (ik|f12/r12|jl) integrals done
 >>>  Time used in #2 [4]     is   0.18 seconds

 Number of two-electron spin-orbit integrals written:     64525 ( 7.7%)
 >>>  Time used in TWOINT     is   0.27 seconds

 Number of two-electron spin-orbit integrals written:    114714 ( 7.6%)
 >>>  Time used in TWOINT     is   0.31 seconds

 Number of two-electron spin-orbit integrals written:    161394 ( 8.1%)
 >>>  Time used in TWOINT     is   0.47 seconds

 Number of two-electron spin-orbit integrals written:     12285 ( 1.5%)

 Number of two-electron spin-orbit integrals written:     21357 ( 1.4%)

 Number of two-electron spin-orbit integrals written:     10669 ( 1.3%)

 Number of two-electron spin-orbit integrals written:     30186 ( 1.5%)
 >>>  Time used in TWOINT     is   0.11 seconds

 Number of two-electron spin-orbit integrals written:     30186 ( 1.5%)
 Computation of (ip'|f12|jq') integrals done
 >>>  Time used in #3 [5]     is   1.46 seconds

 Number of two-electron spin-orbit integrals written:     64525 ( 7.7%)

 Number of two-electron spin-orbit integrals written:    114714 ( 7.6%)

 Number of two-electron spin-orbit integrals written:    161394 ( 8.1%)

 Number of two-electron spin-orbit integrals written:     12285 ( 1.5%)

 Number of two-electron spin-orbit integrals written:     21357 ( 1.4%)

 Number of two-electron spin-orbit integrals written:     10669 ( 1.3%)

 Number of two-electron spin-orbit integrals written:     30186 ( 1.5%)

 Number of two-electron spin-orbit integrals written:     30186 ( 1.5%)
 Computation of (ip'|1/r12|jq') integrals done
 >>>  Time used in #1 [5]     is   0.30 seconds

 Number of two-electron spin-orbit integrals written:     12285 ( 1.5%)

 Number of two-electron spin-orbit integrals written:     21357 ( 1.4%)

 Number of two-electron spin-orbit integrals written:     30186 ( 1.5%)
 >>>  Time used in TWOINT     is   0.12 seconds

 Number of two-electron spin-orbit integrals written:      1170 ( 0.1%)

 Number of two-electron spin-orbit integrals written:      2106 ( 0.1%)

 Number of two-electron spin-orbit integrals written:      1162 ( 0.1%)

 Number of two-electron spin-orbit integrals written:      2808 ( 0.1%)

 Number of two-electron spin-orbit integrals written:      2808 ( 0.1%)
 >>>  Time used in #4 [4]     is   0.35 seconds

 Number of two-electron spin-orbit integrals written:     64525 ( 7.7%)
 >>>  Time used in TWOINT     is   0.27 seconds

 Number of two-electron spin-orbit integrals written:    114714 ( 7.6%)
 >>>  Time used in TWOINT     is   0.31 seconds

 Number of two-electron spin-orbit integrals written:    161394 ( 8.1%)
 >>>  Time used in TWOINT     is   0.49 seconds

 Number of two-electron spin-orbit integrals written:     12285 ( 1.5%)

 Number of two-electron spin-orbit integrals written:     21357 ( 1.4%)

 Number of two-electron spin-orbit integrals written:     10669 ( 1.3%)

 Number of two-electron spin-orbit integrals written:     30186 ( 1.5%)
 >>>  Time used in TWOINT     is   0.12 seconds

 Number of two-electron spin-orbit integrals written:     30186 ( 1.5%)
 Computation of (i* p'|f12|jq') integrals done
 >>>  Time used in #3 [5]     is   1.61 seconds

 Number of two-electron spin-orbit integrals written:     64525 ( 7.7%)
 >>>  Time used in TWOINT     is   0.29 seconds

 Number of two-electron spin-orbit integrals written:    114714 ( 7.6%)
 >>>  Time used in TWOINT     is   0.27 seconds

 Number of two-electron spin-orbit integrals written:    161394 ( 8.1%)
 >>>  Time used in TWOINT     is   0.46 seconds

 Number of two-electron spin-orbit integrals written:     12285 ( 1.5%)

 Number of two-electron spin-orbit integrals written:     21357 ( 1.4%)

 Number of two-electron spin-orbit integrals written:     10669 ( 1.3%)

 Number of two-electron spin-orbit integrals written:     30186 ( 1.5%)
 >>>  Time used in TWOINT     is   0.11 seconds

 Number of two-electron spin-orbit integrals written:     30186 ( 1.5%)
 Computation of (i'p|f12|jq') integrals done
 >>>  Time used in #3 [5]     is   1.41 seconds

 Number of two-electron spin-orbit integrals written:     62240 ( 7.5%)
 >>>  Time used in TWOINT     is   0.88 seconds

 Number of two-electron spin-orbit integrals written:    103767 ( 6.9%)
 >>>  Time used in TWOINT     is   0.91 seconds

 Number of two-electron spin-orbit integrals written:    150966 ( 7.5%)
 >>>  Time used in TWOINT     is   1.48 seconds

 Number of two-electron spin-orbit integrals written:     11790 ( 1.4%)
 >>>  Time used in TWOINT     is   0.23 seconds

 Number of two-electron spin-orbit integrals written:     19224 ( 1.3%)
 >>>  Time used in TWOINT     is   0.25 seconds

 Number of two-electron spin-orbit integrals written:     10669 ( 1.3%)

 Number of two-electron spin-orbit integrals written:     27918 ( 1.4%)
 >>>  Time used in TWOINT     is   0.39 seconds

 Number of two-electron spin-orbit integrals written:     29778 ( 1.5%)
 >>>  Time used in TWOINT     is   0.15 seconds
 Computation of (ip'|[T,f12]|jq') integrals done
 >>>  Time used in #5 [5]     is   4.46 seconds


                 +-----------------------------------------------+
                 ! MP2-R12 ansatz := (1 - P1 - P2 + P1*P2) * R12 !
                 +-----------------------------------------------+


 SECOND-ORDER PAIR ENERGIES:

                    1   -0.005748138    0.000000000
                    2   -0.007417895   -0.003320678
                    3   -0.009199263    0.000000000
                    4   -0.007417895   -0.003320678
                    5   -0.008947548   -0.005684684
                    6   -0.009199263    0.000000000
                    7   -0.007417895   -0.003320678
                    8   -0.008947548   -0.005684684
                    9   -0.008947548   -0.005684684
                   10   -0.009199263    0.000000000

 MP2 =   -0.109458345   -0.082442259   -0.027016086


                            +-------------------------+
                            ! Original MP2-R12 method !
                            +-------------------------+


 SECOND-ORDER NONINVARIANT R12/0 PAIR ENERGIES WITH FIXED R12-COEFFICIENTS:

   1   -0.005748138   -0.011698239    0.000000000    0.000000000
   2   -0.007417895   -0.018604064   -0.003320678   -0.002787367
   3   -0.009199263   -0.012372537    0.000000000    0.000000000
   4   -0.007417895   -0.018604064   -0.003320678   -0.002787367
   5   -0.008947548   -0.015853711   -0.005684684   -0.002614011
   6   -0.009199263   -0.012372537    0.000000000    0.000000000
   7   -0.007417895   -0.018604064   -0.003320678   -0.002787367
   8   -0.008947548   -0.015853711   -0.005684684   -0.002614011
   9   -0.008947548   -0.015853711   -0.005684684   -0.002614011
  10   -0.009199263   -0.012372537    0.000000000    0.000000000

       -0.082442259   -0.152189178   -0.027016086   -0.016204132

 Noninvariant MP2-R12/0   correlation energy =   -0.168393310

  IJ    V(IJ)       U(IJ)       C(IJ)       V(IJ)       U(IJ)       C(IJ)   

   1 -0.5070E-02 -0.4191E-02  0.1000E+01  0.0000E+00  0.0000E+00  0.0000E+00  0.6094E+01  0.0000E+00
   2 -0.8869E-02 -0.6552E-02  0.1000E+01 -0.6795E-03 -0.4851E-02  0.5000E+00  0.4983E+01  0.2631E+01
   3 -0.4049E-02 -0.4924E-02  0.1000E+01  0.0000E+00  0.0000E+00  0.0000E+00  0.3054E+01  0.0000E+00
   4 -0.8869E-02 -0.6552E-02  0.1000E+01 -0.6795E-03 -0.4851E-02  0.5000E+00  0.4983E+01  0.2631E+01
   5 -0.5925E-02 -0.4943E-02  0.1000E+01  0.1254E-02 -0.7266E-02  0.5000E+00  0.3941E+01  0.1958E+01
   6 -0.4049E-02 -0.4924E-02  0.1000E+01  0.0000E+00  0.0000E+00  0.0000E+00  0.3054E+01  0.0000E+00
   7 -0.8869E-02 -0.6552E-02  0.1000E+01 -0.6795E-03 -0.4851E-02  0.5000E+00  0.4983E+01  0.2631E+01
   8 -0.5925E-02 -0.4943E-02  0.1000E+01  0.1254E-02 -0.7266E-02  0.5000E+00  0.3941E+01  0.1958E+01
   9 -0.5925E-02 -0.4943E-02  0.1000E+01  0.1254E-02 -0.7266E-02  0.5000E+00  0.3941E+01  0.1958E+01
  10 -0.4049E-02 -0.4924E-02  0.1000E+01  0.0000E+00  0.0000E+00  0.0000E+00  0.3054E+01  0.0000E+00

 SECOND-ORDER NONINVARIANT R12/A PAIR ENERGIES:

   1   -0.005748138   -0.011882886    0.000000000    0.000000000
   2   -0.007417895   -0.019423531   -0.003320678   -0.003415850
   3   -0.009199263   -0.012528129    0.000000000    0.000000000
   4   -0.007417895   -0.019423531   -0.003320678   -0.003415850
   5   -0.008947548   -0.016048595   -0.005684684   -0.005901201
   6   -0.009199263   -0.012528129    0.000000000    0.000000000
   7   -0.007417895   -0.019423531   -0.003320678   -0.003415850
   8   -0.008947548   -0.016048595   -0.005684684   -0.005901201
   9   -0.008947548   -0.016048595   -0.005684684   -0.005901201
  10   -0.009199263   -0.012528129    0.000000000    0.000000000

       -0.082442259   -0.155883650   -0.027016086   -0.027951153

 Noninvariant MP2-R12/A   correlation energy =   -0.183834803

  IJ    V(IJ)       U(IJ)       C(IJ)       V(IJ)       U(IJ)       C(IJ)   

   1 -0.5070E-02 -0.4191E-02  0.1210E+01  0.0000E+00  0.0000E+00  0.0000E+00  0.6094E+01  0.0000E+00
   2 -0.8869E-02 -0.6552E-02  0.1354E+01 -0.6795E-03 -0.4851E-02  0.1401E+00  0.4983E+01  0.2631E+01
   3 -0.4049E-02 -0.4924E-02  0.8222E+00  0.0000E+00  0.0000E+00  0.0000E+00  0.3054E+01  0.0000E+00
   4 -0.8869E-02 -0.6552E-02  0.1354E+01 -0.6795E-03 -0.4851E-02  0.1401E+00  0.4983E+01  0.2631E+01
   5 -0.5925E-02 -0.4943E-02  0.1199E+01  0.1254E-02 -0.7266E-02 -0.1726E+00  0.3941E+01  0.1958E+01
   6 -0.4049E-02 -0.4924E-02  0.8222E+00  0.0000E+00  0.0000E+00  0.0000E+00  0.3054E+01  0.0000E+00
   7 -0.8869E-02 -0.6552E-02  0.1354E+01 -0.6795E-03 -0.4851E-02  0.1401E+00  0.4983E+01  0.2631E+01
   8 -0.5925E-02 -0.4943E-02  0.1199E+01  0.1254E-02 -0.7266E-02 -0.1726E+00  0.3941E+01  0.1958E+01
   9 -0.5925E-02 -0.4943E-02  0.1199E+01  0.1254E-02 -0.7266E-02 -0.1726E+00  0.3941E+01  0.1958E+01
  10 -0.4049E-02 -0.4924E-02  0.8222E+00  0.0000E+00  0.0000E+00  0.0000E+00  0.3054E+01  0.0000E+00

 SECOND-ORDER R12/A PAIR ENERGIES:

   1   -0.005748138   -0.012265438    0.000000000   -0.000000000    0.232844        0.302998    
   2   -0.007417895   -0.020924546   -0.003320678   -0.004266220    0.232844        0.302998    
   3   -0.009199263   -0.016001710    0.000000000   -0.000000000    0.232844        0.302998    
   4   -0.007417895   -0.020924546   -0.003320678   -0.004266220    0.232844        0.302998    
   5   -0.008947548   -0.017805427   -0.005684684   -0.007514446    0.232844        0.302998    
   6   -0.009199263   -0.016001710    0.000000000   -0.000000000    0.232844        0.302998    
   7   -0.007417895   -0.020924546   -0.003320678   -0.004266220    0.232844        0.302998    
   8   -0.008947548   -0.017805427   -0.005684684   -0.007514446    0.232844        0.302998    
   9   -0.008947548   -0.017805427   -0.005684684   -0.007514446    0.232844        0.302998    
  10   -0.009199263   -0.016001710    0.000000000   -0.000000000    0.232844        0.302998    

       -0.082442259   -0.176460487   -0.027016086   -0.035341999

              MP2-R12/A   correlation energy =   -0.211802486

 SECOND-ORDER R12/A' PAIR ENERGIES:

   1   -0.005748138   -0.011936552    0.000000000   -0.000000000     1.70825         1.68781    
   2   -0.007417895   -0.020009143   -0.003320678   -0.003786826     1.31719         1.29675    
   3   -0.009199263   -0.015471475    0.000000000   -0.000000000    0.926125        0.905690    
   4   -0.007417895   -0.020009143   -0.003320678   -0.003786826     1.31719         1.29675    
   5   -0.008947548   -0.017330154   -0.005684684   -0.006489497    0.926125        0.905690    
   6   -0.009199263   -0.015471475    0.000000000   -0.000000000    0.926125        0.905690    
   7   -0.007417895   -0.020009143   -0.003320678   -0.003786826     1.31719         1.29675    
   8   -0.008947548   -0.017330154   -0.005684684   -0.006489497    0.926125        0.905690    
   9   -0.008947548   -0.017330154   -0.005684684   -0.006489497    0.926125        0.905690    
  10   -0.009199263   -0.015471475    0.000000000   -0.000000000    0.926125        0.905690    

       -0.082442259   -0.170368868   -0.027016086   -0.030828971

              MP2-R12/A'  correlation energy =   -0.201197839

 SECOND-ORDER NONINVARIANT R12/B PAIR ENERGIES:

   1   -0.005748138   -0.010535715    0.000000000    0.000000000
   2   -0.007417895   -0.016652742   -0.003320678   -0.003382534
   3   -0.009199263   -0.011576611    0.000000000    0.000000000
   4   -0.007417895   -0.016652742   -0.003320678   -0.003382534
   5   -0.008947548   -0.014259518   -0.005684684   -0.005820225
   6   -0.009199263   -0.011576611    0.000000000    0.000000000
   7   -0.007417895   -0.016652742   -0.003320678   -0.003382534
   8   -0.008947548   -0.014259518   -0.005684684   -0.005820225
   9   -0.008947548   -0.014259518   -0.005684684   -0.005820225
  10   -0.009199263   -0.011576611    0.000000000    0.000000000

       -0.082442259   -0.138002327   -0.027016086   -0.027608280

 Noninvariant MP2-R12/B   correlation energy =   -0.165610607

  IJ    V(IJ)       U(IJ)       C(IJ)       V(IJ)       U(IJ)       C(IJ)   

   1 -0.5070E-02 -0.5370E-02  0.9442E+00  0.0000E+00  0.0000E+00  0.0000E+00
   2 -0.8869E-02 -0.8518E-02  0.1041E+01 -0.6795E-03 -0.7464E-02  0.9103E-01
   3 -0.4049E-02 -0.6895E-02  0.5872E+00  0.0000E+00  0.0000E+00  0.0000E+00
   4 -0.8869E-02 -0.8518E-02  0.1041E+01 -0.6795E-03 -0.7464E-02  0.9103E-01
   5 -0.5925E-02 -0.6608E-02  0.8966E+00  0.1254E-02 -0.1161E-01 -0.1081E+00
   6 -0.4049E-02 -0.6895E-02  0.5872E+00  0.0000E+00  0.0000E+00  0.0000E+00
   7 -0.8869E-02 -0.8518E-02  0.1041E+01 -0.6795E-03 -0.7464E-02  0.9103E-01
   8 -0.5925E-02 -0.6608E-02  0.8966E+00  0.1254E-02 -0.1161E-01 -0.1081E+00
   9 -0.5925E-02 -0.6608E-02  0.8966E+00  0.1254E-02 -0.1161E-01 -0.1081E+00
  10 -0.4049E-02 -0.6895E-02  0.5872E+00  0.0000E+00  0.0000E+00  0.0000E+00

 SECOND-ORDER R12/B PAIR ENERGIES:

   1   -0.005748138   -0.010669996    0.000000000   -0.000000000     2.43363         2.40254    
   2   -0.007417895   -0.017252075   -0.003320678   -0.003667436     2.04257         2.01148    
   3   -0.009199263   -0.014022781    0.000000000   -0.000000000     1.65151         1.62042    
   4   -0.007417895   -0.017252075   -0.003320678   -0.003667436     2.04257         2.01148    
   5   -0.008947548   -0.015261408   -0.005684684   -0.006204341     1.65151         1.62042    
   6   -0.009199263   -0.014022781    0.000000000   -0.000000000     1.65151         1.62042    
   7   -0.007417895   -0.017252075   -0.003320678   -0.003667436     2.04257         2.01148    
   8   -0.008947548   -0.015261408   -0.005684684   -0.006204341     1.65151         1.62042    
   9   -0.008947548   -0.015261408   -0.005684684   -0.006204341     1.65151         1.62042    
  10   -0.009199263   -0.014022781    0.000000000   -0.000000000     1.65151         1.62042    

       -0.082442259   -0.150278786   -0.027016086   -0.029615330

              MP2-R12/B   correlation energy =   -0.179894117


                         +--------------------------------+
                         ! Auxiliary-basis MP2-R12 method !
                         +--------------------------------+


 SECOND-ORDER NONINVARIANT R12/0 PAIR ENERGIES WITH FIXED R12-COEFFICIENTS:

   1   -0.005748138   -0.011134895    0.000000000    0.000000000
   2   -0.007417895   -0.014125071   -0.003320678   -0.003926240
   3   -0.009199263   -0.013580820    0.000000000    0.000000000
   4   -0.007417895   -0.014125071   -0.003320678   -0.003926240
   5   -0.008947548   -0.014504641   -0.005684684   -0.006504298
   6   -0.009199263   -0.013580820    0.000000000    0.000000000
   7   -0.007417895   -0.014125071   -0.003320678   -0.003926240
   8   -0.008947548   -0.014504641   -0.005684684   -0.006504298
   9   -0.008947548   -0.014504641   -0.005684684   -0.006504298
  10   -0.009199263   -0.013580820    0.000000000    0.000000000

       -0.082442259   -0.137766489   -0.027016086   -0.031291615

 Noninvariant MP2-R12/0   correlation energy =   -0.169058104

  IJ    V(IJ)       U(IJ)       C(IJ)       V(IJ)       U(IJ)       C(IJ)   

   1 -0.4625E-02 -0.3862E-02  0.1000E+01  0.0000E+00  0.0000E+00  0.0000E+00  0.7124E+01  0.0000E+00
   2 -0.5959E-02 -0.5210E-02  0.1000E+01 -0.1330E-02 -0.2896E-02  0.5000E+00  0.6544E+01  0.3863E+01
   3 -0.4172E-02 -0.3962E-02  0.1000E+01  0.0000E+00  0.0000E+00  0.0000E+00  0.4130E+01  0.0000E+00
   4 -0.5959E-02 -0.5210E-02  0.1000E+01 -0.1330E-02 -0.2896E-02  0.5000E+00  0.6544E+01  0.3863E+01
   5 -0.4777E-02 -0.3997E-02  0.1000E+01 -0.1933E-02 -0.4455E-02  0.5000E+00  0.5381E+01  0.2684E+01
   6 -0.4172E-02 -0.3962E-02  0.1000E+01  0.0000E+00  0.0000E+00  0.0000E+00  0.4130E+01  0.0000E+00
   7 -0.5959E-02 -0.5210E-02  0.1000E+01 -0.1330E-02 -0.2896E-02  0.5000E+00  0.6544E+01  0.3863E+01
   8 -0.4777E-02 -0.3997E-02  0.1000E+01 -0.1933E-02 -0.4455E-02  0.5000E+00  0.5381E+01  0.2684E+01
   9 -0.4777E-02 -0.3997E-02  0.1000E+01 -0.1933E-02 -0.4455E-02  0.5000E+00  0.5381E+01  0.2684E+01
  10 -0.4172E-02 -0.3962E-02  0.1000E+01  0.0000E+00  0.0000E+00  0.0000E+00  0.4130E+01  0.0000E+00

 SECOND-ORDER NONINVARIANT R12/A PAIR ENERGIES:

   1   -0.005748138   -0.011285284    0.000000000    0.000000000
   2   -0.007417895   -0.014232581   -0.003320678   -0.003931085
   3   -0.009199263   -0.013591919    0.000000000    0.000000000
   4   -0.007417895   -0.014232581   -0.003320678   -0.003931085
   5   -0.008947548   -0.014656905   -0.005684684   -0.006523731
   6   -0.009199263   -0.013591919    0.000000000    0.000000000
   7   -0.007417895   -0.014232581   -0.003320678   -0.003931085
   8   -0.008947548   -0.014656905   -0.005684684   -0.006523731
   9   -0.008947548   -0.014656905   -0.005684684   -0.006523731
  10   -0.009199263   -0.013591919    0.000000000    0.000000000

       -0.082442259   -0.138729497   -0.027016086   -0.031364445

 Noninvariant MP2-R12/A   correlation energy =   -0.170093942

  IJ    V(IJ)       U(IJ)       C(IJ)       V(IJ)       U(IJ)       C(IJ)   

   1 -0.4625E-02 -0.3862E-02  0.1197E+01  0.0000E+00  0.0000E+00  0.0000E+00  0.7124E+01  0.0000E+00
   2 -0.5959E-02 -0.5210E-02  0.1144E+01 -0.1330E-02 -0.2896E-02  0.4591E+00  0.6544E+01  0.3863E+01
   3 -0.4172E-02 -0.3962E-02  0.1053E+01  0.0000E+00  0.0000E+00  0.0000E+00  0.4130E+01  0.0000E+00
   4 -0.5959E-02 -0.5210E-02  0.1144E+01 -0.1330E-02 -0.2896E-02  0.4591E+00  0.6544E+01  0.3863E+01
   5 -0.4777E-02 -0.3997E-02  0.1195E+01 -0.1933E-02 -0.4455E-02  0.4340E+00  0.5381E+01  0.2684E+01
   6 -0.4172E-02 -0.3962E-02  0.1053E+01  0.0000E+00  0.0000E+00  0.0000E+00  0.4130E+01  0.0000E+00
   7 -0.5959E-02 -0.5210E-02  0.1144E+01 -0.1330E-02 -0.2896E-02  0.4591E+00  0.6544E+01  0.3863E+01
   8 -0.4777E-02 -0.3997E-02  0.1195E+01 -0.1933E-02 -0.4455E-02  0.4340E+00  0.5381E+01  0.2684E+01
   9 -0.4777E-02 -0.3997E-02  0.1195E+01 -0.1933E-02 -0.4455E-02  0.4340E+00  0.5381E+01  0.2684E+01
  10 -0.4172E-02 -0.3962E-02  0.1053E+01  0.0000E+00  0.0000E+00  0.0000E+00  0.4130E+01  0.0000E+00

 SECOND-ORDER R12/A PAIR ENERGIES:

   1   -0.005748138   -0.011472474    0.000000000   -0.000000000    0.237765        0.279287    
   2   -0.007417895   -0.014434589   -0.003320678   -0.004399080    0.237765        0.279287    
   3   -0.009199263   -0.015076693    0.000000000   -0.000000000    0.237765        0.279287    
   4   -0.007417895   -0.014434589   -0.003320678   -0.004399080    0.237765        0.279287    
   5   -0.008947548   -0.014830862   -0.005684684   -0.007457067    0.237765        0.279287    
   6   -0.009199263   -0.015076693    0.000000000   -0.000000000    0.237765        0.279287    
   7   -0.007417895   -0.014434589   -0.003320678   -0.004399080    0.237765        0.279287    
   8   -0.008947548   -0.014830862   -0.005684684   -0.007457067    0.237765        0.279287    
   9   -0.008947548   -0.014830862   -0.005684684   -0.007457067    0.237765        0.279287    
  10   -0.009199263   -0.015076693    0.000000000   -0.000000000    0.237765        0.279287    

       -0.082442259   -0.144498903   -0.027016086   -0.035568441

              MP2-R12/A   correlation energy =   -0.180067345

 SECOND-ORDER R12/A' PAIR ENERGIES:

   1   -0.005748138   -0.011306771    0.000000000   -0.000000000     1.66176         1.63036    
   2   -0.007417895   -0.014332780   -0.003320678   -0.004148526     1.27070         1.23930    
   3   -0.009199263   -0.014853743    0.000000000   -0.000000000    0.879635        0.848240    
   4   -0.007417895   -0.014332780   -0.003320678   -0.004148526     1.27070         1.23930    
   5   -0.008947548   -0.014800684   -0.005684684   -0.007012397    0.879635        0.848240    
   6   -0.009199263   -0.014853743    0.000000000   -0.000000000    0.879635        0.848240    
   7   -0.007417895   -0.014332780   -0.003320678   -0.004148526     1.27070         1.23930    
   8   -0.008947548   -0.014800684   -0.005684684   -0.007012397    0.879635        0.848240    
   9   -0.008947548   -0.014800684   -0.005684684   -0.007012397    0.879635        0.848240    
  10   -0.009199263   -0.014853743    0.000000000   -0.000000000    0.879635        0.848240    

       -0.082442259   -0.143268389   -0.027016086   -0.033482768

              MP2-R12/A'  correlation energy =   -0.176751157

 SECOND-ORDER NONINVARIANT R12/B PAIR ENERGIES:

   1   -0.005748138   -0.010211275    0.000000000    0.000000000
   2   -0.007417895   -0.012979868   -0.003320678   -0.003771925
   3   -0.009199263   -0.012602419    0.000000000    0.000000000
   4   -0.007417895   -0.012979868   -0.003320678   -0.003771925
   5   -0.008947548   -0.013540637   -0.005684684   -0.006278323
   6   -0.009199263   -0.012602419    0.000000000    0.000000000
   7   -0.007417895   -0.012979868   -0.003320678   -0.003771925
   8   -0.008947548   -0.013540637   -0.005684684   -0.006278323
   9   -0.008947548   -0.013540637   -0.005684684   -0.006278323
  10   -0.009199263   -0.012602419    0.000000000    0.000000000

       -0.082442259   -0.127580045   -0.027016086   -0.030150745

 Noninvariant MP2-R12/B   correlation energy =   -0.157730789

  IJ    V(IJ)       U(IJ)       C(IJ)       V(IJ)       U(IJ)       C(IJ)   

   1 -0.4625E-02 -0.4792E-02  0.9651E+00  0.0000E+00  0.0000E+00  0.0000E+00
   2 -0.5959E-02 -0.6384E-02  0.9334E+00 -0.1330E-02 -0.3918E-02  0.3394E+00
   3 -0.4172E-02 -0.5114E-02  0.8157E+00  0.0000E+00  0.0000E+00  0.0000E+00
   4 -0.5959E-02 -0.6384E-02  0.9334E+00 -0.1330E-02 -0.3918E-02  0.3394E+00
   5 -0.4777E-02 -0.4968E-02  0.9615E+00 -0.1933E-02 -0.6297E-02  0.3070E+00
   6 -0.4172E-02 -0.5114E-02  0.8157E+00  0.0000E+00  0.0000E+00  0.0000E+00
   7 -0.5959E-02 -0.6384E-02  0.9334E+00 -0.1330E-02 -0.3918E-02  0.3394E+00
   8 -0.4777E-02 -0.4968E-02  0.9615E+00 -0.1933E-02 -0.6297E-02  0.3070E+00
   9 -0.4777E-02 -0.4968E-02  0.9615E+00 -0.1933E-02 -0.6297E-02  0.3070E+00
  10 -0.4172E-02 -0.5114E-02  0.8157E+00  0.0000E+00  0.0000E+00  0.0000E+00

 SECOND-ORDER R12/B PAIR ENERGIES:

   1   -0.005748138   -0.010247832    0.000000000   -0.000000000     2.38233         2.33916    
   2   -0.007417895   -0.013095677   -0.003320678   -0.003957726     1.99127         1.94809    
   3   -0.009199263   -0.013696070    0.000000000   -0.000000000     1.60021         1.55703    
   4   -0.007417895   -0.013095677   -0.003320678   -0.003957726     1.99127         1.94809    
   5   -0.008947548   -0.013686400   -0.005684684   -0.006725496     1.60021         1.55703    
   6   -0.009199263   -0.013696070    0.000000000   -0.000000000     1.60021         1.55703    
   7   -0.007417895   -0.013095677   -0.003320678   -0.003957726     1.99127         1.94809    
   8   -0.008947548   -0.013686400   -0.005684684   -0.006725496     1.60021         1.55703    
   9   -0.008947548   -0.013686400   -0.005684684   -0.006725496     1.60021         1.55703    
  10   -0.009199263   -0.013696070    0.000000000   -0.000000000     1.60021         1.55703    

       -0.082442259   -0.131682273   -0.027016086   -0.032049666

              MP2-R12/B   correlation energy =   -0.163731939


                 +-----------------------------------------------+
                 ! MP2-R12 ansatz := (1 - O1 - O2 + O1*O2) * R12 !
                 +-----------------------------------------------+



                         +--------------------------------+
                         ! Auxiliary-basis MP2-R12 method !
                         +--------------------------------+


 SECOND-ORDER R12/0 PAIR ENERGIES:

   1   -0.005748138   -0.011708706    0.000000000    0.000000000
   2   -0.007417895   -0.016917373   -0.003320678   -0.004651453
   3   -0.009199263   -0.013525472    0.000000000    0.000000000
   4   -0.007417895   -0.016917373   -0.003320678   -0.004651453
   5   -0.008947548   -0.014636608   -0.005684684   -0.004162509
   6   -0.009199263   -0.013525472    0.000000000    0.000000000
   7   -0.007417895   -0.016917373   -0.003320678   -0.004651453
   8   -0.008947548   -0.014636608   -0.005684684   -0.004162509
   9   -0.008947548   -0.014636608   -0.005684684   -0.004162509
  10   -0.009199263   -0.013525472    0.000000000    0.000000000

       -0.082442259   -0.146947064   -0.027016086   -0.026441888

 Noninvariant MP2-R12/0   correlation energy =   -0.173388952

  IJ    V(IJ)       U(IJ)       C(IJ)       V(IJ)       U(IJ)       C(IJ)   

   1 -0.4997E-02 -0.4034E-02  0.1000E+01  0.0000E+00  0.0000E+00  0.0000E+00  0.4028E+01  0.0000E+00
   2 -0.7810E-02 -0.6120E-02  0.1000E+01 -0.2305E-02 -0.3899E-02  0.5000E+00  0.3857E+01  0.2231E+01
   3 -0.4479E-02 -0.4631E-02  0.1000E+01  0.0000E+00  0.0000E+00  0.0000E+00  0.2414E+01  0.0000E+00
   4 -0.7810E-02 -0.6120E-02  0.1000E+01 -0.2305E-02 -0.3899E-02  0.5000E+00  0.3857E+01  0.2231E+01
   5 -0.5192E-02 -0.4694E-02  0.1000E+01 -0.9099E-04 -0.6453E-02  0.5000E+00  0.2522E+01  0.1583E+01
   6 -0.4479E-02 -0.4631E-02  0.1000E+01  0.0000E+00  0.0000E+00  0.0000E+00  0.2414E+01  0.0000E+00
   7 -0.7810E-02 -0.6120E-02  0.1000E+01 -0.2305E-02 -0.3899E-02  0.5000E+00  0.3857E+01  0.2231E+01
   8 -0.5192E-02 -0.4694E-02  0.1000E+01 -0.9099E-04 -0.6453E-02  0.5000E+00  0.2522E+01  0.1583E+01
   9 -0.5192E-02 -0.4694E-02  0.1000E+01 -0.9099E-04 -0.6453E-02  0.5000E+00  0.2522E+01  0.1583E+01
  10 -0.4479E-02 -0.4631E-02  0.1000E+01  0.0000E+00  0.0000E+00  0.0000E+00  0.2414E+01  0.0000E+00

 SECOND-ORDER NONINVARIANT R12/A   PAIR ENERGIES:

   1   -0.005748138   -0.011938750    0.000000000    0.000000000
   2   -0.007417895   -0.017383831   -0.003320678   -0.004683972
   3   -0.009199263   -0.013530485    0.000000000    0.000000000
   4   -0.007417895   -0.017383831   -0.003320678   -0.004683972
   5   -0.008947548   -0.014689323   -0.005684684   -0.005685967
   6   -0.009199263   -0.013530485    0.000000000    0.000000000
   7   -0.007417895   -0.017383831   -0.003320678   -0.004683972
   8   -0.008947548   -0.014689323   -0.005684684   -0.005685967
   9   -0.008947548   -0.014689323   -0.005684684   -0.005685967
  10   -0.009199263   -0.013530485    0.000000000    0.000000000

       -0.082442259   -0.148749670   -0.027016086   -0.031109817

 Noninvariant MP2-R12/A   correlation energy =   -0.179859487

  IJ    V(IJ)       U(IJ)       C(IJ)       V(IJ)       U(IJ)       C(IJ)   

   1 -0.4997E-02 -0.4034E-02  0.1239E+01  0.0000E+00  0.0000E+00  0.0000E+00  0.4028E+01  0.0000E+00
   2 -0.7810E-02 -0.6120E-02  0.1276E+01 -0.2305E-02 -0.3899E-02  0.5913E+00  0.3857E+01  0.2231E+01
   3 -0.4479E-02 -0.4631E-02  0.9671E+00  0.0000E+00  0.0000E+00  0.0000E+00  0.2414E+01  0.0000E+00
   4 -0.7810E-02 -0.6120E-02  0.1276E+01 -0.2305E-02 -0.3899E-02  0.5913E+00  0.3857E+01  0.2231E+01
   5 -0.5192E-02 -0.4694E-02  0.1106E+01 -0.9099E-04 -0.6453E-02  0.1410E-01  0.2522E+01  0.1583E+01
   6 -0.4479E-02 -0.4631E-02  0.9671E+00  0.0000E+00  0.0000E+00  0.0000E+00  0.2414E+01  0.0000E+00
   7 -0.7810E-02 -0.6120E-02  0.1276E+01 -0.2305E-02 -0.3899E-02  0.5913E+00  0.3857E+01  0.2231E+01
   8 -0.5192E-02 -0.4694E-02  0.1106E+01 -0.9099E-04 -0.6453E-02  0.1410E-01  0.2522E+01  0.1583E+01
   9 -0.5192E-02 -0.4694E-02  0.1106E+01 -0.9099E-04 -0.6453E-02  0.1410E-01  0.2522E+01  0.1583E+01
  10 -0.4479E-02 -0.4631E-02  0.9671E+00  0.0000E+00  0.0000E+00  0.0000E+00  0.2414E+01  0.0000E+00

 SECOND-ORDER R12/A   PAIR ENERGIES:

   1   -0.005748138   -0.012209577    0.000000000   -0.000000000    0.387868E-01    0.729272E-01
   2   -0.007417895   -0.017989647   -0.003320678   -0.005195928    0.393221E-01    0.731977E-01
   3   -0.009199263   -0.015684261    0.000000000   -0.000000000    0.400405E-01    0.735421E-01
   4   -0.007417895   -0.017989647   -0.003320678   -0.005195928    0.393221E-01    0.731977E-01
   5   -0.008947548   -0.015333693   -0.005684684   -0.007144009    0.400405E-01    0.735421E-01
   6   -0.009199263   -0.015684261    0.000000000   -0.000000000    0.400405E-01    0.735421E-01
   7   -0.007417895   -0.017989647   -0.003320678   -0.005195928    0.393221E-01    0.731977E-01
   8   -0.008947548   -0.015333693   -0.005684684   -0.007144009    0.400405E-01    0.735421E-01
   9   -0.008947548   -0.015333693   -0.005684684   -0.007144009    0.400405E-01    0.735421E-01
  10   -0.009199263   -0.015684261    0.000000000   -0.000000000    0.400405E-01    0.735421E-01

       -0.082442259   -0.159232381   -0.027016086   -0.037019812

              MP2-R12/A   correlation energy =   -0.196252193

 SECOND-ORDER R12/A'  PAIR ENERGIES:

   1   -0.005748138   -0.011997371    0.000000000   -0.000000000    0.188160        0.365516    
   2   -0.007417895   -0.017611296   -0.003320678   -0.004931548    0.163804        0.319681    
   3   -0.009199263   -0.015533103    0.000000000   -0.000000000    0.139069        0.273397    
   4   -0.007417895   -0.017611296   -0.003320678   -0.004931548    0.163804        0.319681    
   5   -0.008947548   -0.015187937   -0.005684684   -0.006222727    0.139069        0.273397    
   6   -0.009199263   -0.015533103    0.000000000   -0.000000000    0.139069        0.273397    
   7   -0.007417895   -0.017611296   -0.003320678   -0.004931548    0.163804        0.319681    
   8   -0.008947548   -0.015187937   -0.005684684   -0.006222727    0.139069        0.273397    
   9   -0.008947548   -0.015187937   -0.005684684   -0.006222727    0.139069        0.273397    
  10   -0.009199263   -0.015533103    0.000000000   -0.000000000    0.139069        0.273397    

       -0.082442259   -0.156994379   -0.027016086   -0.033462824

              MP2-R12/A'  correlation energy =   -0.190457203

 SECOND-ORDER NONINVARIANT R12/A*  PAIR ENERGIES:

   1   -0.005748138   -0.011742043    0.000000000    0.000000000
   2   -0.007417895   -0.017220136   -0.003320678   -0.004717415
   3   -0.009199263   -0.013561593    0.000000000    0.000000000
   4   -0.007417895   -0.017220136   -0.003320678   -0.004717415
   5   -0.008947548   -0.014864856   -0.005684684   -0.005687209
   6   -0.009199263   -0.013561593    0.000000000    0.000000000
   7   -0.007417895   -0.017220136   -0.003320678   -0.004717415
   8   -0.008947548   -0.014864856   -0.005684684   -0.005687209
   9   -0.008947548   -0.014864856   -0.005684684   -0.005687209
  10   -0.009199263   -0.013561593    0.000000000    0.000000000

       -0.082442259   -0.148681798   -0.027016086   -0.031213874

 Noninvariant MP2-R12/A*  correlation energy =   -0.179895672

  IJ    V(IJ)       U(IJ)       C(IJ)       V(IJ)       U(IJ)       C(IJ)   

   1 -0.4886E-02 -0.3982E-02  0.1227E+01  0.0000E+00  0.0000E+00  0.0000E+00  0.3976E+01  0.0000E+00
   2 -0.7723E-02 -0.6084E-02  0.1269E+01 -0.2318E-02 -0.3847E-02  0.6025E+00  0.3835E+01  0.2202E+01
   3 -0.4474E-02 -0.4588E-02  0.9751E+00  0.0000E+00  0.0000E+00  0.0000E+00  0.2392E+01  0.0000E+00
   4 -0.7723E-02 -0.6084E-02  0.1269E+01 -0.2318E-02 -0.3847E-02  0.6025E+00  0.3835E+01  0.2202E+01
   5 -0.5239E-02 -0.4638E-02  0.1129E+01 -0.1274E-03 -0.6423E-02  0.1983E-01  0.2492E+01  0.1576E+01
   6 -0.4474E-02 -0.4588E-02  0.9751E+00  0.0000E+00  0.0000E+00  0.0000E+00  0.2392E+01  0.0000E+00
   7 -0.7723E-02 -0.6084E-02  0.1269E+01 -0.2318E-02 -0.3847E-02  0.6025E+00  0.3835E+01  0.2202E+01
   8 -0.5239E-02 -0.4638E-02  0.1129E+01 -0.1274E-03 -0.6423E-02  0.1983E-01  0.2492E+01  0.1576E+01
   9 -0.5239E-02 -0.4638E-02  0.1129E+01 -0.1274E-03 -0.6423E-02  0.1983E-01  0.2492E+01  0.1576E+01
  10 -0.4474E-02 -0.4588E-02  0.9751E+00  0.0000E+00  0.0000E+00  0.0000E+00  0.2392E+01  0.0000E+00

 SECOND-ORDER R12/A*  PAIR ENERGIES:

   1   -0.005748138   -0.012005634    0.000000000   -0.000000000    0.343474E-01    0.676111E-01
   2   -0.007417895   -0.017678877   -0.003320678   -0.005215660    0.343474E-01    0.676111E-01
   3   -0.009199263   -0.015424412    0.000000000   -0.000000000    0.343474E-01    0.676111E-01
   4   -0.007417895   -0.017678877   -0.003320678   -0.005215660    0.343474E-01    0.676111E-01
   5   -0.008947548   -0.015348697   -0.005684684   -0.007139768    0.343474E-01    0.676111E-01
   6   -0.009199263   -0.015424412    0.000000000   -0.000000000    0.343474E-01    0.676111E-01
   7   -0.007417895   -0.017678877   -0.003320678   -0.005215660    0.343474E-01    0.676111E-01
   8   -0.008947548   -0.015348697   -0.005684684   -0.007139768    0.343474E-01    0.676111E-01
   9   -0.008947548   -0.015348697   -0.005684684   -0.007139768    0.343474E-01    0.676111E-01
  10   -0.009199263   -0.015424412    0.000000000   -0.000000000    0.343474E-01    0.676111E-01

       -0.082442259   -0.157361591   -0.027016086   -0.037066282

              MP2-R12/A*  correlation energy =   -0.194427873

 SECOND-ORDER R12/A*' PAIR ENERGIES:

   1   -0.005748138   -0.011773658    0.000000000   -0.000000000    0.168280        0.332885    
   2   -0.007417895   -0.017407273   -0.003320678   -0.004969322    0.143956        0.287687    
   3   -0.009199263   -0.015251992    0.000000000   -0.000000000    0.119311        0.242116    
   4   -0.007417895   -0.017407273   -0.003320678   -0.004969322    0.143956        0.287687    
   5   -0.008947548   -0.015281760   -0.005684684   -0.006303710    0.119311        0.242116    
   6   -0.009199263   -0.015251992    0.000000000   -0.000000000    0.119311        0.242116    
   7   -0.007417895   -0.017407273   -0.003320678   -0.004969322    0.143956        0.287687    
   8   -0.008947548   -0.015281760   -0.005684684   -0.006303710    0.119311        0.242116    
   9   -0.008947548   -0.015281760   -0.005684684   -0.006303710    0.119311        0.242116    
  10   -0.009199263   -0.015251992    0.000000000   -0.000000000    0.119311        0.242116    

       -0.082442259   -0.155596730   -0.027016086   -0.033819095

              MP2-R12/A*' correlation energy =   -0.189415825

 SECOND-ORDER NONINVARIANT R12/B   PAIR ENERGIES:

   1   -0.005748138   -0.010673320    0.000000000    0.000000000
   2   -0.007417895   -0.015251133   -0.003320678   -0.004294164
   3   -0.009199263   -0.012403998    0.000000000    0.000000000
   4   -0.007417895   -0.015251133   -0.003320678   -0.004294164
   5   -0.008947548   -0.013363962   -0.005684684   -0.005685522
   6   -0.009199263   -0.012403998    0.000000000    0.000000000
   7   -0.007417895   -0.015251133   -0.003320678   -0.004294164
   8   -0.008947548   -0.013363962   -0.005684684   -0.005685522
   9   -0.008947548   -0.013363962   -0.005684684   -0.005685522
  10   -0.009199263   -0.012403998    0.000000000    0.000000000

       -0.082442259   -0.133730599   -0.027016086   -0.029939056

 Noninvariant MP2-R12/B   correlation energy =   -0.163669656

  IJ    V(IJ)       U(IJ)       C(IJ)       V(IJ)       U(IJ)       C(IJ)   

   1 -0.4997E-02 -0.5070E-02  0.9856E+00  0.0000E+00  0.0000E+00  0.0000E+00  0.5063E+01  0.0000E+00
   2 -0.7810E-02 -0.7787E-02  0.1003E+01 -0.2305E-02 -0.5460E-02  0.4222E+00  0.4908E+01  0.3125E+01
   3 -0.4479E-02 -0.6259E-02  0.7156E+00  0.0000E+00  0.0000E+00  0.0000E+00  0.3263E+01  0.0000E+00
   4 -0.7810E-02 -0.7787E-02  0.1003E+01 -0.2305E-02 -0.5460E-02  0.4222E+00  0.4908E+01  0.3125E+01
   5 -0.5192E-02 -0.6103E-02  0.8507E+00 -0.9099E-04 -0.9879E-02  0.9211E-02  0.3278E+01  0.2424E+01
   6 -0.4479E-02 -0.6259E-02  0.7156E+00  0.0000E+00  0.0000E+00  0.0000E+00  0.3263E+01  0.0000E+00
   7 -0.7810E-02 -0.7787E-02  0.1003E+01 -0.2305E-02 -0.5460E-02  0.4222E+00  0.4908E+01  0.3125E+01
   8 -0.5192E-02 -0.6103E-02  0.8507E+00 -0.9099E-04 -0.9879E-02  0.9211E-02  0.3278E+01  0.2424E+01
   9 -0.5192E-02 -0.6103E-02  0.8507E+00 -0.9099E-04 -0.9879E-02  0.9211E-02  0.3278E+01  0.2424E+01
  10 -0.4479E-02 -0.6259E-02  0.7156E+00  0.0000E+00  0.0000E+00  0.0000E+00  0.3263E+01  0.0000E+00

 SECOND-ORDER R12/B   PAIR ENERGIES:

   1   -0.005748138   -0.010707135    0.000000000   -0.000000000    0.199674        0.404797    
   2   -0.007417895   -0.015420957   -0.003320678   -0.004496390    0.175748        0.359175    
   3   -0.009199263   -0.014072738    0.000000000   -0.000000000    0.151719        0.313169    
   4   -0.007417895   -0.015420957   -0.003320678   -0.004496390    0.175748        0.359175    
   5   -0.008947548   -0.013857054   -0.005684684   -0.006091200    0.151719        0.313169    
   6   -0.009199263   -0.014072738    0.000000000   -0.000000000    0.151719        0.313169    
   7   -0.007417895   -0.015420957   -0.003320678   -0.004496390    0.175748        0.359175    
   8   -0.008947548   -0.013857054   -0.005684684   -0.006091200    0.151719        0.313169    
   9   -0.008947548   -0.013857054   -0.005684684   -0.006091200    0.151719        0.313169    
  10   -0.009199263   -0.014072738    0.000000000   -0.000000000    0.151719        0.313169    

       -0.082442259   -0.140759382   -0.027016086   -0.031762770

              MP2-R12/B   correlation energy =   -0.172522152

 SECOND-ORDER NONINVARIANT R12/B*  PAIR ENERGIES:

   1   -0.005748138   -0.010529909    0.000000000    0.000000000
   2   -0.007417895   -0.015141044   -0.003320678   -0.004317716
   3   -0.009199263   -0.012435683    0.000000000    0.000000000
   4   -0.007417895   -0.015141044   -0.003320678   -0.004317716
   5   -0.008947548   -0.013521929   -0.005684684   -0.005686339
   6   -0.009199263   -0.012435683    0.000000000    0.000000000
   7   -0.007417895   -0.015141044   -0.003320678   -0.004317716
   8   -0.008947548   -0.013521929   -0.005684684   -0.005686339
   9   -0.008947548   -0.013521929   -0.005684684   -0.005686339
  10   -0.009199263   -0.012435683    0.000000000    0.000000000

       -0.082442259   -0.133825879   -0.027016086   -0.030012166

 Noninvariant MP2-R12/B*  correlation energy =   -0.163838045

  IJ    V(IJ)       U(IJ)       C(IJ)       V(IJ)       U(IJ)       C(IJ)   

   1 -0.4886E-02 -0.4992E-02  0.9788E+00  0.0000E+00  0.0000E+00  0.0000E+00  0.4984E+01  0.0000E+00
   2 -0.7723E-02 -0.7722E-02  0.1000E+01 -0.2318E-02 -0.5390E-02  0.4301E+00  0.4867E+01  0.3085E+01
   3 -0.4474E-02 -0.6185E-02  0.7234E+00  0.0000E+00  0.0000E+00  0.0000E+00  0.3224E+01  0.0000E+00
   4 -0.7723E-02 -0.7722E-02  0.1000E+01 -0.2318E-02 -0.5390E-02  0.4301E+00  0.4867E+01  0.3085E+01
   5 -0.5239E-02 -0.6000E-02  0.8731E+00 -0.1274E-03 -0.9802E-02  0.1299E-01  0.3223E+01  0.2405E+01
   6 -0.4474E-02 -0.6185E-02  0.7234E+00  0.0000E+00  0.0000E+00  0.0000E+00  0.3224E+01  0.0000E+00
   7 -0.7723E-02 -0.7722E-02  0.1000E+01 -0.2318E-02 -0.5390E-02  0.4301E+00  0.4867E+01  0.3085E+01
   8 -0.5239E-02 -0.6000E-02  0.8731E+00 -0.1274E-03 -0.9802E-02  0.1299E-01  0.3223E+01  0.2405E+01
   9 -0.5239E-02 -0.6000E-02  0.8731E+00 -0.1274E-03 -0.9802E-02  0.1299E-01  0.3223E+01  0.2405E+01
  10 -0.4474E-02 -0.6185E-02  0.7234E+00  0.0000E+00  0.0000E+00  0.0000E+00  0.3224E+01  0.0000E+00

 SECOND-ORDER R12/B*  PAIR ENERGIES:

   1   -0.005748138   -0.010567478    0.000000000   -0.000000000    0.177773        0.367318    
   2   -0.007417895   -0.015295934   -0.003320678   -0.004523626    0.153644        0.322072    
   3   -0.009199263   -0.013920304    0.000000000   -0.000000000    0.129336        0.276603    
   4   -0.007417895   -0.015295934   -0.003320678   -0.004523626    0.153644        0.322072    
   5   -0.008947548   -0.013949330   -0.005684684   -0.006140806    0.129336        0.276603    
   6   -0.009199263   -0.013920304    0.000000000   -0.000000000    0.129336        0.276603    
   7   -0.007417895   -0.015295934   -0.003320678   -0.004523626    0.153644        0.322072    
   8   -0.008947548   -0.013949330   -0.005684684   -0.006140806    0.129336        0.276603    
   9   -0.008947548   -0.013949330   -0.005684684   -0.006140806    0.129336        0.276603    
  10   -0.009199263   -0.013920304    0.000000000   -0.000000000    0.129336        0.276603    

       -0.082442259   -0.140064181   -0.027016086   -0.031993295

              MP2-R12/B*  correlation energy =   -0.172057476


          +-------------------------------------------------------------+
          ! MP2-R12 ansatz := (1 - V1*V2) * (1 - O1 - O2 + O1*O2) * R12 !
          +-------------------------------------------------------------+



                         +--------------------------------+
                         ! Auxiliary-basis MP2-R12 method !
                         +--------------------------------+


 SECOND-ORDER NONINVARIANT R12/B   PAIR ENERGIES:

   1   -0.005748138   -0.010673320    0.000000000    0.000000000
   2   -0.007417895   -0.015251133   -0.003320678   -0.004294164
   3   -0.009199263   -0.012403998    0.000000000    0.000000000
   4   -0.007417895   -0.015251133   -0.003320678   -0.004294164
   5   -0.008947548   -0.013363962   -0.005684684   -0.005685522
   6   -0.009199263   -0.012403998    0.000000000    0.000000000
   7   -0.007417895   -0.015251133   -0.003320678   -0.004294164
   8   -0.008947548   -0.013363962   -0.005684684   -0.005685522
   9   -0.008947548   -0.013363962   -0.005684684   -0.005685522
  10   -0.009199263   -0.012403998    0.000000000    0.000000000

       -0.082442259   -0.133730599   -0.027016086   -0.029939056

 Noninvariant MP2-R12/B   correlation energy =   -0.163669656

  IJ    V(IJ)       U(IJ)       C(IJ)       V(IJ)       U(IJ)       C(IJ)   

   1 -0.4997E-02 -0.5070E-02  0.9856E+00  0.0000E+00  0.0000E+00  0.0000E+00  0.8689E+01  0.0000E+00
   2 -0.7810E-02 -0.7787E-02  0.1003E+01 -0.2305E-02 -0.5460E-02  0.4222E+00  0.7140E+01  0.4939E+01
   3 -0.4479E-02 -0.6259E-02  0.7156E+00  0.0000E+00  0.0000E+00  0.0000E+00  0.4780E+01  0.0000E+00
   4 -0.7810E-02 -0.7787E-02  0.1003E+01 -0.2305E-02 -0.5460E-02  0.4222E+00  0.7140E+01  0.4939E+01
   5 -0.5192E-02 -0.6103E-02  0.8507E+00 -0.9099E-04 -0.9879E-02  0.9211E-02  0.5962E+01  0.3353E+01
   6 -0.4479E-02 -0.6259E-02  0.7156E+00  0.0000E+00  0.0000E+00  0.0000E+00  0.4780E+01  0.0000E+00
   7 -0.7810E-02 -0.7787E-02  0.1003E+01 -0.2305E-02 -0.5460E-02  0.4222E+00  0.7140E+01  0.4939E+01
   8 -0.5192E-02 -0.6103E-02  0.8507E+00 -0.9099E-04 -0.9879E-02  0.9211E-02  0.5962E+01  0.3353E+01
   9 -0.5192E-02 -0.6103E-02  0.8507E+00 -0.9099E-04 -0.9879E-02  0.9211E-02  0.5962E+01  0.3353E+01
  10 -0.4479E-02 -0.6259E-02  0.7156E+00  0.0000E+00  0.0000E+00  0.0000E+00  0.4780E+01  0.0000E+00

 SECOND-ORDER R12/B   PAIR ENERGIES:

   1   -0.005748138   -0.010707135    0.000000000   -0.000000000     2.42027         2.41425    
   2   -0.007417895   -0.015420957   -0.003320678   -0.004496390     2.02732         2.02146    
   3   -0.009199263   -0.014072738    0.000000000   -0.000000000     1.63367         1.62823    
   4   -0.007417895   -0.015420957   -0.003320678   -0.004496390     2.02732         2.02146    
   5   -0.008947548   -0.013857054   -0.005684684   -0.006091200     1.63367         1.62823    
   6   -0.009199263   -0.014072738    0.000000000   -0.000000000     1.63367         1.62823    
   7   -0.007417895   -0.015420957   -0.003320678   -0.004496390     2.02732         2.02146    
   8   -0.008947548   -0.013857054   -0.005684684   -0.006091200     1.63367         1.62823    
   9   -0.008947548   -0.013857054   -0.005684684   -0.006091200     1.63367         1.62823    
  10   -0.009199263   -0.014072738    0.000000000   -0.000000000     1.63367         1.62823    

       -0.082442259   -0.140759382   -0.027016086   -0.031762770

              MP2-R12/B   correlation energy =   -0.172522152
 >>>  Time used in E(R12)     is   9.15 seconds
 Time for MP2-R12 part cpu :   19.679000000000002     
 Time for MP2-R12 part wall:   20.941000014543533     

NOAUXB with HERDIR not implemented


 *******************************************************************

 Ground state energy is target 

 Ecorr =                      0.00000000000000000000

 *******************************************************************

 requested model not yet implemented
  

 *******************************************************************************
 *******************************************************************************
 *                                                                             *
 *                                                                             *
 *                   SUMMARY OF COUPLED CLUSTER CALCULATION                    *
 *                                                                             *
 *                                                                             *
 *******************************************************************************
 *******************************************************************************

  

 *******************************************************************************
 *******************************************************************************
 *                                                                             *
 *                                                                             *
 *                      END OF COUPLED CLUSTER CALCULATION                     *
 *                                                                             *
 *                                                                             *
 *******************************************************************************
 *******************************************************************************


 >>>> CPU and wall time for CC :      19.679      20.941

 
     Date and time (Linux)  : Sun Sep  8 21:00:23 2013
     Host name              : lpqlx131.ups-tlse.fr                    


                      .-------------------------------------.
                      | End of Coupled Cluster Section (CC) |
                      `-------------------------------------'

 >>>> Total CPU  time used in DALTON:  19.98 seconds
 >>>> Total wall time used in DALTON:  21.52 seconds

 
     Date and time (Linux)  : Sun Sep  8 21:00:23 2013
     Host name              : lpqlx131.ups-tlse.fr                    
