

     ************************************************************************
     *************** Dalton - An Electronic Structure Program ***************
     ************************************************************************

    This is output from DALTON (Release Dalton2013 patch 0)
   ----------------------------------------------------------------------------
    NOTE:
     
    Dalton is an experimental code for the evaluation of molecular
    properties using (MC)SCF, DFT, CI, and CC wave functions.
    The authors accept no responsibility for the performance of
    the code or for the correctness of the results.
     
    The code (in whole or part) is provided under a licence and
    is not to be reproduced for further distribution without
    the written permission of the authors or their representatives.
     
    See the home page "http://daltonprogram.org" for further information.
     
    If results obtained with this code are published,
    the appropriate citations would be both of:
     
       K. Aidas, C. Angeli, K. L. Bak, V. Bakken, R. Bast,
       L. Boman, O. Christiansen, R. Cimiraglia, S. Coriani,
       P. Dahle, E. K. Dalskov, U. Ekstroem, T. Enevoldsen,
       J. J. Eriksen, P. Ettenhuber, B. Fernandez, L. Ferrighi,
       H. Fliegl, L. Frediani, K. Hald, A. Halkier, C. Haettig,
       H. Heiberg, T. Helgaker, A. C. Hennum, H. Hettema,
       E. Hjertenaes, S. Hoest, I.-M. Hoeyvik, M. F. Iozzi,
       B. Jansik, H. J. Aa. Jensen, D. Jonsson, P. Joergensen,
       J. Kauczor, S. Kirpekar, T. Kjaergaard, W. Klopper,
       S. Knecht, R. Kobayashi, H. Koch, J. Kongsted, A. Krapp,
       K. Kristensen, A. Ligabue, O. B. Lutnaes, J. I. Melo,
       K. V. Mikkelsen, R. H. Myhre, C. Neiss, C. B. Nielsen,
       P. Norman, J. Olsen, J. M. H. Olsen, A. Osted,
       M. J. Packer, F. Pawlowski, T. B. Pedersen, P. F. Provasi,
       S. Reine, Z. Rinkevicius, T. A. Ruden, K. Ruud, V. Rybkin,
       P. Salek, C. C. M. Samson, A. Sanchez de Meras, T. Saue,
       S. P. A. Sauer, B. Schimmelpfennig, K. Sneskov,
       A. H. Steindal, K. O. Sylvester-Hvid, P. R. Taylor,
       A. M. Teale, E. I. Tellgren, D. P. Tew, A. J. Thorvaldsen,
       L. Thoegersen, O. Vahtras, M. A. Watson, D. J. D. Wilson,
       M. Ziolkowski and H. Agren.
       The Dalton quantum chemistry program system.
       WIREs Comput. Mol. Sci. 2013. doi: 10.1002/wcms.1172
    
    and
    
       Dalton, a Molecular Electronic Structure Program,
       Release DALTON2013.0 (2013), see http://daltonprogram.org
   ----------------------------------------------------------------------------

    Authors in alphabetical order (major contribution(s) in parenthesis):

  Kestutis Aidas,           Vilnius University,           Lithuania   (QM/MM)
  Celestino Angeli,         University of Ferrara,        Italy       (NEVPT2)
  Keld L. Bak,              UNI-C,                        Denmark     (AOSOPPA, non-adiabatic coupling, magnetic properties)
  Vebjoern Bakken,          University of Oslo,           Norway      (DALTON; geometry optimizer, symmetry detection)
  Radovan Bast,             KTH Stockholm                 Sweden      (DALTON installation and execution frameworks)
  Linus Boman,              NTNU,                         Norway      (Cholesky decomposition and subsystems)
  Ove Christiansen,         Aarhus University,            Denmark     (CC module)
  Renzo Cimiraglia,         University of Ferrara,        Italy       (NEVPT2)
  Sonia Coriani,            University of Trieste,        Italy       (CC module, MCD in RESPONS)
  Paal Dahle,               University of Oslo,           Norway      (Parallelization)
  Erik K. Dalskov,          UNI-C,                        Denmark     (SOPPA)
  Thomas Enevoldsen,        Univ. of Southern Denmark,    Denmark     (SOPPA)
  Janus J. Eriksen,         Aarhus University,            Denmark     (PE-MP2/SOPPA, TDA)
  Berta Fernandez,          U. of Santiago de Compostela, Spain       (doublet spin, ESR in RESPONS)
  Lara Ferrighi,            Aarhus University,            Denmark     (PCM Cubic response)
  Heike Fliegl,             University of Oslo,           Norway      (CCSD(R12))
  Luca Frediani,            UiT The Arctic U. of Norway,  Norway      (PCM)
  Bin Gao,                  UiT The Arctic U. of Norway,  Norway      (Gen1Int library)
  Christof Haettig,         Ruhr-University Bochum,       Germany     (CC module)
  Kasper Hald,              Aarhus University,            Denmark     (CC module)
  Asger Halkier,            Aarhus University,            Denmark     (CC module)
  Hanne Heiberg,            University of Oslo,           Norway      (geometry analysis, selected one-electron integrals)
  Trygve Helgaker,          University of Oslo,           Norway      (DALTON; ABACUS, ERI, DFT modules, London, and much more)
  Alf Christian Hennum,     University of Oslo,           Norway      (Parity violation)
  Hinne Hettema,            University of Auckland,       New Zealand (quadratic response in RESPONS; SIRIUS supersymmetry)
  Eirik Hjertenaes,         NTNU,                         Norway      (Cholesky decomposition)
  Maria Francesca Iozzi,    University of Oslo,           Norway      (RPA)
  Brano Jansik              Technical Univ. of Ostrava    Czech Rep.  (DFT cubic response)
  Hans Joergen Aa. Jensen,  Univ. of Southern Denmark,    Denmark     (DALTON; SIRIUS, RESPONS, ABACUS modules, London, and much more)
  Dan Jonsson,              UiT The Arctic U. of Norway,  Norway      (cubic response in RESPONS module)
  Poul Joergensen,          Aarhus University,            Denmark     (RESPONS, ABACUS, and CC modules)
  Joanna Kauczor,           Linkoeping University,        Sweden      (Complex polarization propagator (CPP) module)
  Sheela Kirpekar,          Univ. of Southern Denmark,    Denmark     (Mass-velocity & Darwin integrals)
  Wim Klopper,              KIT Karlsruhe,                Germany     (R12 code in CC, SIRIUS, and ABACUS modules)
  Stefan Knecht,            ETH Zurich,                   Switzerland (Parallel CI and MCSCF)
  Rika Kobayashi,           Australian National Univ.,    Australia   (DIIS in CC, London in MCSCF)
  Henrik Koch,              NTNU,                         Norway      (CC module, Cholesky decomposition)
  Jacob Kongsted,           Univ. of Southern Denmark,    Denmark     (Polarizable embedding, QM/MM)
  Andrea Ligabue,           University of Modena,         Italy       (CTOCD, AOSOPPA)
  Ola B. Lutnaes,           University of Oslo,           Norway      (DFT Hessian)
  Juan I. Melo,             University of Buenos Aires,   Argentina   (LRESC, Relativistic Effects on NMR Shieldings)
  Kurt V. Mikkelsen,        University of Copenhagen,     Denmark     (MC-SCRF and QM/MM)
  Rolf H. Myhre,            NTNU,                         Norway      (Cholesky, subsystems and ECC2)
  Christian Neiss,          Univ. Erlangen-Nuernberg,     Germany     (CCSD(R12))
  Christian B. Nielsen,     University of Copenhagen,     Denmark     (QM/MM)
  Patrick Norman,           Linkoeping University,        Sweden      (Cubic response and complex response in RESPONS)
  Jeppe Olsen,              Aarhus University,            Denmark     (SIRIUS CI/density modules)
  Jogvan Magnus H. Olsen,   Univ. of Southern Denmark,    Denmark     (Polarizable embedding, PE library, QM/MM)
  Anders Osted,             Copenhagen University,        Denmark     (QM/MM)
  Martin J. Packer,         University of Sheffield,      UK          (SOPPA)
  Filip Pawlowski,          Kazimierz Wielki University   Poland      (CC3)
  Thomas B. Pedersen,       University of Oslo,           Norway      (Cholesky decomposition)
  Patricio F. Provasi,      University of Northeastern,   Argentina   (Analysis of coupling constants in localized orbitals)
  Zilvinas Rinkevicius,     KTH Stockholm,                Sweden      (open-shell DFT, ESR)
  Elias Rudberg,            KTH Stockholm,                Sweden      (DFT grid and basis info)
  Torgeir A. Ruden,         University of Oslo,           Norway      (Numerical derivatives in ABACUS)
  Kenneth Ruud,             UiT The Arctic U. of Norway,  Norway      (DALTON; ABACUS magnetic properties and  much more)
  Pawel Salek,              KTH Stockholm,                Sweden      (DALTON; DFT code)
  Claire C. M. Samson       University of Karlsruhe       Germany     (Boys localization, r12 integrals in ERI)
  Alfredo Sanchez de Meras, University of Valencia,       Spain       (CC module, Cholesky decomposition)
  Trond Saue,               Paul Sabatier University,     France      (direct Fock matrix construction)
  Stephan P. A. Sauer,      University of Copenhagen,     Denmark     (SOPPA(CCSD), SOPPA prop., AOSOPPA, vibrational g-factors)
  Bernd Schimmelpfennig,    Forschungszentrum Karlsruhe,  Germany     (AMFI module)
  Kristian Sneskov,         Aarhus University,            Denmark     (QM/MM, PE-CC)
  Arnfinn H. Steindal,      UiT The Arctic U. of Norway,  Norway      (parallel QM/MM)
  K. O. Sylvester-Hvid,     University of Copenhagen,     Denmark     (MC-SCRF)
  Peter R. Taylor,          VLSCI/Univ. of Melbourne,     Australia   (Symmetry handling ABACUS, integral transformation)
  Andrew M. Teale,          University of Nottingham,     England     (DFT-AC, DFT-D)
  David P. Tew,             University of Bristol,        England     (CCSD(R12))
  Olav Vahtras,             KTH Stockholm,                Sweden      (triplet response, spin-orbit, ESR, TDDFT, open-shell DFT)
  David J. Wilson,          La Trobe University,          Australia   (DFT Hessian and DFT magnetizabilities)
  Hans Agren,               KTH Stockholm,                Sweden      (SIRIUS module, RESPONS, MC-SCRF solvation model)
 --------------------------------------------------------------------------------

     Date and time (Linux)  : Sun Sep  8 20:58:56 2013
     Host name              : lpqlx131.ups-tlse.fr                    

 * Work memory size             :    64000000 =  488.28 megabytes.

 * Directories for basis set searches:
   1) /home/bast/DALTON-2013.0-Source/build/test_r12_fc_aux_nosym
   2) /home/bast/DALTON-2013.0-Source/build/basis


Compilation information
-----------------------

 Who compiled             | bast
 Host                     | lpqlx131.ups-tlse.fr
 System                   | Linux-3.8.5-201.fc18.x86_64
 CMake generator          | Unix Makefiles
 Processor                | x86_64
 64-bit integers          | OFF
 MPI                      | OFF
 Fortran compiler         | /usr/bin/gfortran
 Fortran compiler version | GNU Fortran (GCC) 4.7.2 20121109 (Red Hat 4.7.2-8)
 C compiler               | /usr/bin/gcc
 C compiler version       | gcc (GCC) 4.7.2 20121109 (Red Hat 4.7.2-8)
 C++ compiler             | /usr/bin/g++
 C++ compiler version     | g++ (GCC) 4.7.2 20121109 (Red Hat 4.7.2-8)
 Static linking           | OFF
 Last Git revision        | f34203295a86316e27f9e7b44f9b6769c4a046c0
 Configuration time       | 2013-09-08 20:31:27.952056


   Content of the .dal input file
 ----------------------------------

**DALTON INPUT                                    
.RUN WAVE FUNCTION                                
.DIRECT                                           
**INTEGRALS                                       
.R12                                              
**WAVE FUNCTIONS                                  
.CC                                               
*SCF INPUT                                        
.THRESHOLD                                        
 1D-10                                            
*CC INPUT                                         
.MP2                                              
.PRINT                                            
 3                                                
.FROIMP                                           
 2 0 0 0 0 0 0 0                                  
 0 0 0 0 0 0 0 0                                  
*ORBITALS                                         
.MOSTART                                          
 H1DIAG                                           
**END OF DALTON INPUT                             


   Content of the .mol file
 ----------------------------

BASIS                                                                          
cc-pVTZ cc-pCVQZ                                                               
Direct MP2-R12 calculation without symmetry                                    
                                                                               
    2    0                                                                     
 1      7.    2                                                                
N      1.090000000000000  -0.120000000000000   7.289010000000000       *       
N      2.776457581697181   1.089166769279464   7.289010000000000       *       
 2      7.    2                                                                
N      1.090000000000000  -0.120000000000000   7.289010000000000       *       
N      2.776457581697181   1.089166769279464   7.289010000000000       *       


       *******************************************************************
       *********** Output from DALTON general input processing ***********
       *******************************************************************

 --------------------------------------------------------------------------------
   Overall default print level:    0
   Print level for DALTON.STAT:    1

    AO-direct calculation (in sections where implemented)
    HERMIT 1- and 2-electron integral sections will be executed
    "Old" integral transformation used (limited to max 255 basis functions)
    Wave function sections will be executed (SIRIUS module)
 --------------------------------------------------------------------------------


   ****************************************************************************
   *************** Output of molecule and basis set information ***************
   ****************************************************************************


 INFO: basis set line contains more than one basis set:
     cc-pVTZ cc-pCVQZ
 INFO: ".R12AUX" activated automatically.

    The two title cards from your ".mol" input:
    ------------------------------------------------------------------------
 1: Direct MP2-R12 calculation without symmetry                             
 2:                                                                         
    ------------------------------------------------------------------------

  Atomic type no.    1
  --------------------
  Nuclear charge:   7.00000
  Number of symmetry independent centers:    2
  Number of basis sets to read;    1
  Basis set file used for this atomic type with Z =   7 :
     "/home/bast/DALTON-2013.0-Source/build/basis/cc-pVTZ"

  Atomic type no.    2
  --------------------
  Nuclear charge:   7.00000
  Number of symmetry independent centers:    2
  This is an auxiliary basis for R12, MBSI:    2
  Basis set file used for this atomic type with Z =   7 :
     "/home/bast/DALTON-2013.0-Source/build/basis/cc-pCVQZ"


                         SYMGRP: Point group information
                         -------------------------------

Point group: C1 


                                 Isotopic Masses
                                 ---------------

                           N          14.003074
                           N          14.003074
                           N           0.000000
                           N           0.000000

                       Total mass:    28.006148 amu
                       Natural abundance:   0.000 %

 Center-of-mass coordinates (a.u.):    1.933229    0.484583    7.289010


  Atoms and basis sets
  --------------------

  Number of atom types :    2
  Total number of atoms:    4

  Basis set 1 refers to the basis "cc-pVTZ" from the basis set library.

  Basis set 2 refers to the basis "cc-pCVQZ" from the basis set library.

  label  basis   atoms  charge   prim  cont     basis
  ------------------------------------------------------------------------------
  N        1       2    7.0000    42    30      [10s5p2d1f|4s3p2d1f]                               
  N        2       2    0.0000    97    84      [15s9p5d3f1g|8s7p5d3f1g]                           
  ------------------------------------------------------------------------------
  total:           4   14.0000   278   228
  ------------------------------------------------------------------------------
  Spherical harmonic basis used.

  Threshold for neglecting AO integrals:  1.00D-12


  Cartesian Coordinates (a.u.)
  ----------------------------

  Total number of coordinates:   12
  N       :     1  x   1.0900000000    2  y  -0.1200000000    3  z   7.2890100000
  N       :     4  x   2.7764575817    5  y   1.0891667693    6  z   7.2890100000
  N       :     7  x   1.0900000000    8  y  -0.1200000000    9  z   7.2890100000
  N       :    10  x   2.7764575817   11  y   1.0891667693   12  z   7.2890100000


   Interatomic separations (in Angstrom):
   --------------------------------------

            N           N           N           N     
            ------      ------      ------      ------
 N     :    0.000000
 N     :    1.098119    0.000000
 N     :    0.000000    1.098119    0.000000
 N     :    1.098119    0.000000    1.098119    0.000000


  Max    interatomic separation is    1.0981 Angstrom (    2.0751 Bohr)
  between atoms    2 and    1, "N     " and "N     ".

  Min YX interatomic separation is    0.0000 Angstrom (    0.0000 Bohr)

WARNING: Number of short HX and YX bond lengths:    0    2
WARNING: If not intentional, maybe your coordinates were in Angstrom,
WARNING: but "Angstrom" was not specified in .mol file


  Bond distances (Angstrom):
  --------------------------

                  atom 1     atom 2       distance
                  ------     ------       --------
  bond distance:  N          N            1.098119


  Bond angles (degrees):
  ----------------------

                  atom 1     atom 2     atom 3         angle
                  ------     ------     ------         -----
     No angles found




 Principal moments of inertia (u*A**2) and principal axes
 --------------------------------------------------------

   IA       0.000000          0.812694    0.582690    0.000000
   IB       8.442911         -0.582690    0.812694    0.000000
   IC       8.442911          0.000000    0.000000    1.000000


 Rotational constants
 --------------------

 The molecule is linear.

               B =        59858.38 MHz     (    1.996661 cm-1)


@  Nuclear repulsion energy :   23.612816882798 Hartree

  Number of main orbitals in each symmetry:          60
  Number of auxiliary functions in each symmetry:   168

  Number of floating/multiple basis set orbitals :    2


                     .---------------------------------------.
                     | Starting in Integral Section (HERMIT) |
                     `---------------------------------------'



    *************************************************************************
    ****************** Output from HERMIT input processing ******************
    *************************************************************************


 Default print level:        1

 * Nuclear model: Point charge

 Calculation of one-electron Hamiltonian integrals.

 The following one-electron property integrals are calculated as requested:
          - overlap integrals
          - Cartesian multipole moment integrals of orders 2 and lower

 Center of mass  (bohr):      1.933228790849      0.484583384640      7.289010000000
 Operator center (bohr):      0.000000000000      0.000000000000      0.000000000000
 Gauge origin    (bohr):      0.000000000000      0.000000000000      0.000000000000
 Dipole origin   (bohr):      0.000000000000      0.000000000000      0.000000000000


     ************************************************************************
     ************************** Output from HERINT **************************
     ************************************************************************

 >>>  Time used in GABGEN     is   0.61 seconds
 >>>> Total CPU  time used in HERMIT:   0.94 seconds
 >>>> Total wall time used in HERMIT:   0.94 seconds


                        .----------------------------------.
                        | End of Integral Section (HERMIT) |
                        `----------------------------------'



                   .--------------------------------------------.
                   | Starting in Wave Function Section (SIRIUS) |
                   `--------------------------------------------'


 **********************************************************************
 *SIRIUS* a direct, restricted step, second order MCSCF program       *
 **********************************************************************

 
     Date and time (Linux)  : Sun Sep  8 20:58:57 2013
     Host name              : lpqlx131.ups-tlse.fr                    

 Title lines from ".mol" input file:
     Direct MP2-R12 calculation without symmetry                             
                                                                             

 Print level on unit LUPRI =   2 is   0
 Print level on unit LUW4  =   2 is   5

@    (Integral direct) CC calculation.

@    This is a combination run starting with
@              a restricted, closed shell Hartree-Fock calculation

 Fock matrices are calculated directly without use of integrals on disk.

 Initial molecular orbitals are obtained according to
 ".MOSTART H1DIAG" input option

     Wave function specification
     ============================

     For the specification of the Coupled Cluster: see later.

@    For the wave function of type :      >>> CC <<<
@    Number of closed shell electrons          14
@    Number of electrons in active shells       0
@    Total charge of the molecule               0

@    Spin multiplicity and 2 M_S                1         0
     Total number of symmetries                 1
@    Reference state symmetry                   1

     Orbital specifications
     ======================
     Abelian symmetry species          All |    1
                                       --- |  ---
@    Occupied SCF orbitals               7 |    7
     Secondary orbitals                 53 |   53
     Total number of orbitals           60 |   60
     Number of basis functions         228 |  228

     Optimization information
     ========================
@    Number of configurations                 1
@    Number of orbital rotations            371
     ------------------------------------------
@    Total number of variables              372

     Maximum number of Fock   iterations      0
     Maximum number of DIIS   iterations     60
     Maximum number of QC-SCF iterations     60
     Threshold for SCF convergence     1.00D-10


 Changes of defaults for CC:
 ---------------------------


 -This is a direct atomic orbital integral based
  calculation for coupled cluster wave function

 -Implicit frozen core calculation
  


 >>>>> DIIS optimization of Hartree-Fock <<<<<

 C1-DIIS algorithm; max error vectors =   10

 Iter      Total energy        Error norm    Delta(E)  DIIS dim.
 -----------------------------------------------------------------------------
   1  Screening settings (-IFTHRS, DIFDEN)   -8    T
@  1    -93.8908575151        1.80508D+01   -9.39D+01    1
      Virial theorem: -V/T =      1.607939
@      MULPOP N       0.00; N      -0.00; 
 -----------------------------------------------------------------------------
   2  Screening settings (-IFTHRS, DIFDEN)   -8    T
@  2    -101.989934042        9.31397D+00   -8.10D+00    2
      Virial theorem: -V/T =      2.098926
@      MULPOP N      -0.00; N       0.00; 
 -----------------------------------------------------------------------------
   3  Screening settings (-IFTHRS, DIFDEN)   -8    T
@  3    -108.798983885        2.03360D+00   -6.81D+00    3
      Virial theorem: -V/T =      1.973125
@      MULPOP N       0.00; N      -0.00; 
 -----------------------------------------------------------------------------
   4  Screening settings (-IFTHRS, DIFDEN)   -8    T
@  4    -108.978345521        2.84013D-01   -1.79D-01    4
      Virial theorem: -V/T =      1.998600
@      MULPOP N      -0.00; N       0.00; 
 -----------------------------------------------------------------------------
   5  Screening settings (-IFTHRS, DIFDEN)  -10    F
@  5    -108.983311274        3.26362D-02   -4.97D-03    5
      Virial theorem: -V/T =      2.002098
@      MULPOP N      -0.00; N       0.00; 
 -----------------------------------------------------------------------------
   6  Screening settings (-IFTHRS, DIFDEN)  -10    T
@  6    -108.983383704        6.98226D-03   -7.24D-05    6
      Virial theorem: -V/T =      2.002054
@      MULPOP N       0.00; N      -0.00; 
 -----------------------------------------------------------------------------
   7  Screening settings (-IFTHRS, DIFDEN)  -10    T
@  7    -108.983387980        9.92020D-04   -4.28D-06    7
      Virial theorem: -V/T =      2.001990
@      MULPOP N       0.00; N      -0.00; 
 -----------------------------------------------------------------------------
   8  Screening settings (-IFTHRS, DIFDEN)  -12    F
@  8    -108.983388058        1.60621D-04   -7.85D-08    8
      Virial theorem: -V/T =      2.001996
@      MULPOP N       0.00; N      -0.00; 
 -----------------------------------------------------------------------------
   9  Screening settings (-IFTHRS, DIFDEN)  -12    T
@  9    -108.983388060        1.56846D-05   -1.97D-09    9
      Virial theorem: -V/T =      2.001998
@      MULPOP N       0.00; N      -0.00; 
 -----------------------------------------------------------------------------
  10  Screening settings (-IFTHRS, DIFDEN)  -14    F
@ 10    -108.983388060        1.57325D-06   -2.38D-11   10
      Virial theorem: -V/T =      2.001998
@      MULPOP N       0.00; N      -0.00; 
 -----------------------------------------------------------------------------
  11  Screening settings (-IFTHRS, DIFDEN)  -17    F
@ 11    -108.983388060        1.13978D-07   -3.98D-13   10
      Virial theorem: -V/T =      2.001998
@      MULPOP N      -0.00; N       0.00; 
 -----------------------------------------------------------------------------
  12  Screening settings (-IFTHRS, DIFDEN)  -17    T
@ 12    -108.983388060        1.54431D-08    5.68D-14   10
      Virial theorem: -V/T =      2.001998
@      MULPOP N      -0.00; N       0.00; 
 -----------------------------------------------------------------------------
  13  Screening settings (-IFTHRS, DIFDEN)  -17    T
@ 13    -108.983388060        1.58524D-09    1.14D-13   10
      Virial theorem: -V/T =      2.001998
@      MULPOP N      -0.00; N       0.00; 
 -----------------------------------------------------------------------------
  14  Screening settings (-IFTHRS, DIFDEN)  -17    T
@ 14    -108.983388060        9.75060D-11   -1.14D-13   10

@ *** DIIS converged in  14 iterations !
@     Converged SCF energy, gradient:   -108.983388059985    9.75D-11
    - total time used in SIRFCK :              0.00 seconds


 *** SCF orbital energy analysis ***

 Only the five lowest virtual orbital energies printed in each symmetry.

 Number of electrons :   14
 Orbital occupations :    7

 Sym       Hartree-Fock orbital energies

  1    -15.68179216   -15.67826232    -1.46930735    -0.77757653    -0.63230464
        -0.61183589    -0.61183589     0.16172119     0.16172119     0.42543800
         0.56189714     0.56257272

    E(LUMO) :     0.16172119 au (symmetry 1)
  - E(HOMO) :    -0.61183589 au (symmetry 1)
  ------------------------------------------
    gap     :     0.77355708 au

 >>> Writing SIRIFC interface file <<<

  Canonical primary and secondary basis sets
  ISYM       NORB1 MBAS1       NORB2 MBAS2
     1          60    60         168   168

 Computation of exchange matrix done [5]

 AUXILIARY BASIS LOW EIGENVALUES
 ISYM         EIGENVALUE
   1      0.000000000000
 >>>  Time used in R12AUX     is   3.49 seconds

 >>>> CPU and wall time for SCF :       8.065       8.145


                       .-----------------------------------.
                       | >>> Final results from SIRIUS <<< |
                       `-----------------------------------'


@    Spin multiplicity:           1
@    Spatial symmetry:            1
@    Total charge of molecule:    0

@    Final HF energy:            -108.983388059985                 
@    Nuclear repulsion:            23.612816882798
@    Electronic energy:          -132.596204942783

@    Final gradient norm:           0.000000000098

 
     Date and time (Linux)  : Sun Sep  8 20:59:05 2013
     Host name              : lpqlx131.ups-tlse.fr                    

 (Only coefficients >0.0100 are printed.)

 Molecular orbitals for symmetry species  1
 ------------------------------------------

    Orbital         3        4        5        6        7        8        9
   1 N   :1s     0.0240   0.0044  -0.0023   0.0000   0.0000   0.0000   0.0000
   2 N   :1s    -0.6119   0.6574  -0.2348   0.0000   0.0000   0.0000   0.0000
   4 N   :1s     0.1392   0.0523  -0.1783  -0.0000   0.0000   0.0000   0.0000
   5 N   :2px   -0.2780  -0.2604   0.5680  -0.3656   0.0000   0.3666   0.0000
   6 N   :2py   -0.1993  -0.1867   0.4073   0.5100   0.0000  -0.5113   0.0000
   7 N   :2pz    0.0000   0.0000   0.0000   0.0000   0.6275   0.0000   0.6291
   8 N   :2px    0.0336   0.0087  -0.0389   0.0044   0.0000  -0.0080   0.0000
   9 N   :2py    0.0241   0.0062  -0.0279  -0.0061   0.0000   0.0112   0.0000
  10 N   :2pz    0.0000   0.0000   0.0000   0.0000  -0.0076   0.0000  -0.0138
  11 N   :2px    0.0801   0.0261  -0.0698   0.0192   0.0000   0.2933   0.0000
  12 N   :2py    0.0574   0.0187  -0.0501  -0.0268   0.0000  -0.4090   0.0000
  13 N   :2pz    0.0000   0.0000   0.0000   0.0000  -0.0329   0.0000   0.5033
  14 N   :3d2-  -0.0164  -0.0028   0.0149   0.0063   0.0000   0.0043   0.0000
  15 N   :3d1-   0.0000   0.0000   0.0000   0.0000   0.0115   0.0000  -0.0079
  16 N   :3d0    0.0100   0.0017  -0.0091   0.0000   0.0000   0.0000   0.0000
  17 N   :3d1+   0.0000   0.0000   0.0000   0.0000   0.0160   0.0000  -0.0110
  18 N   :3d2+  -0.0056  -0.0010   0.0050  -0.0187   0.0000  -0.0128   0.0000
  19 N   :3d2-  -0.0154  -0.0065   0.0132   0.0123   0.0000  -0.0028   0.0000
  20 N   :3d1-   0.0000   0.0000   0.0000   0.0000   0.0224   0.0000   0.0052
  22 N   :3d1+   0.0000   0.0000   0.0000   0.0000   0.0312   0.0000   0.0072
  23 N   :3d2+  -0.0052  -0.0022   0.0045  -0.0363   0.0000   0.0084   0.0000
  31 N   :1s     0.0240  -0.0044  -0.0023  -0.0000   0.0000   0.0000   0.0000
  32 N   :1s    -0.6119  -0.6574  -0.2348   0.0000   0.0000   0.0000   0.0000
  34 N   :1s     0.1392  -0.0523  -0.1783   0.0000   0.0000  -0.0000   0.0000
  35 N   :2px    0.2780  -0.2604  -0.5680  -0.3656   0.0000  -0.3666   0.0000
  36 N   :2py    0.1993  -0.1867  -0.4073   0.5100   0.0000   0.5113   0.0000
  37 N   :2pz    0.0000   0.0000   0.0000   0.0000   0.6275   0.0000  -0.6291
  38 N   :2px   -0.0336   0.0087   0.0389   0.0044   0.0000   0.0080   0.0000
  39 N   :2py   -0.0241   0.0062   0.0279  -0.0061   0.0000  -0.0112   0.0000
  40 N   :2pz    0.0000   0.0000   0.0000   0.0000  -0.0076   0.0000   0.0138
  41 N   :2px   -0.0801   0.0261   0.0698   0.0192   0.0000  -0.2933   0.0000
  42 N   :2py   -0.0574   0.0187   0.0501  -0.0268   0.0000   0.4090   0.0000
  43 N   :2pz    0.0000   0.0000   0.0000   0.0000  -0.0329   0.0000  -0.5033
  44 N   :3d2-  -0.0164   0.0028   0.0149  -0.0063   0.0000   0.0043   0.0000
  45 N   :3d1-   0.0000   0.0000   0.0000   0.0000  -0.0115   0.0000  -0.0079
  46 N   :3d0    0.0100  -0.0017  -0.0091   0.0000   0.0000  -0.0000   0.0000
  47 N   :3d1+   0.0000   0.0000   0.0000   0.0000  -0.0160   0.0000  -0.0110
  48 N   :3d2+  -0.0056   0.0010   0.0050   0.0187   0.0000  -0.0128   0.0000
  49 N   :3d2-  -0.0154   0.0065   0.0132  -0.0123   0.0000  -0.0028   0.0000
  50 N   :3d1-   0.0000   0.0000   0.0000   0.0000  -0.0224   0.0000   0.0052
  52 N   :3d1+   0.0000   0.0000   0.0000   0.0000  -0.0312   0.0000   0.0072
  53 N   :3d2+  -0.0052   0.0022   0.0045   0.0363   0.0000   0.0084   0.0000



 >>>> Total CPU  time used in SIRIUS :      8.15 seconds
 >>>> Total wall time used in SIRIUS :      8.23 seconds

 
     Date and time (Linux)  : Sun Sep  8 20:59:05 2013
     Host name              : lpqlx131.ups-tlse.fr                    


                     .---------------------------------------.
                     | End of Wave Function Section (SIRIUS) |
                     `---------------------------------------'



                    .------------------------------------------.
                    | Starting in Coupled Cluster Section (CC) |
                    `------------------------------------------'

  

 *******************************************************************************
 *******************************************************************************
 *                                                                             *
 *                                                                             *
 *                    START OF COUPLED CLUSTER CALCULATION                     *
 *                                                                             *
 *                                                                             *
 *******************************************************************************
 *******************************************************************************



 CCR12 ANSATZ =   0

 CCR12 APPROX =   0

   NRHF   :       5
   NRHFS  :       7
   NORB1  :      60
   NORB2  :     168

 Number of primary orbitals             :           60
 Number of secondary orbitals           :          168
 Total number of orbitals               :          228
 Total number of basis functions        :          228
 Number of (i|p) integrals              :          300
 Number of (i|p') integrals             :         1140
 Number of (i|u') integrals             :         1140
 Number of (Ip'|jL) integrals           :         4560
 Number of (ip'|jq) integrals           :       297150
 Threshold for R12 contributions            =  0.00000    
 Threshold for singular value decomposition = 0.100000E-11

 The B matrix is transformed into an orthogonal basis
 and inverted by diagonalization

 ******************************************************************************
 The MP2-R12/A and MP2-R12/B energies are computed as described in:
 W. Klopper, J. Chem. Phys. 120, 10890-10895 (2004).
 To avoid the hybride scheme, the keyword '.NO HYB'
 must be specified in the Dalton input file.
 ------------------------------------------------------------------------------
 Ansaetze 1, 2, 3 are used and results are printed for approximations A and B.
 ******************************************************************************

 Core memory required by CCSD_R12 :        1636973  (double words)

 Computation of (ip'|r12|jq) integrals done
 >>>  Time used in R  [5]     is  15.47 seconds
 Computation of (ip'|1/r12|jq) integrals done
 >>>  Time used in 1/R[5]     is  16.42 seconds
 Computation of (i* p'|r12|jq) integrals done
 >>>  Time used in R  [5]     is  17.77 seconds
 Computation of (i'p|r12|jq) integrals done
 >>>  Time used in R  [5]     is  25.60 seconds
 >>>  Time used in TWOINT     is   6.49 seconds
 >>>  Time used in TWOINT     is   7.75 seconds
 >>>  Time used in TWOINT     is   5.58 seconds
 >>>  Time used in TWOINT     is   5.12 seconds
 >>>  Time used in TWOINT     is   6.17 seconds
 >>>  Time used in TWOINT     is   7.05 seconds
 >>>  Time used in TWOINT     is   5.32 seconds
 >>>  Time used in TWOINT     is   4.88 seconds
 >>>  Time used in TWOINT     is   1.20 seconds
 >>>  Time used in TWOINT     is   1.77 seconds
 >>>  Time used in TWOINT     is   1.60 seconds
 >>>  Time used in TWOINT     is   1.66 seconds
 >>>  Time used in TWOINT     is   1.03 seconds
 >>>  Time used in TWOINT     is   1.23 seconds
 >>>  Time used in TWOINT     is   1.79 seconds
 >>>  Time used in TWOINT     is   1.64 seconds
 >>>  Time used in TWOINT     is   1.71 seconds
 >>>  Time used in TWOINT     is   1.04 seconds
 Computation of (ip'|[T,r12]|jq) integrals done
 >>>  Time used in T,R[5]     is  1 minute  15 seconds


                 +-----------------------------------------------+
                 ! MP2-R12 ansatz := (1 - P1 - P2 + P1*P2) * R12 !
                 +-----------------------------------------------+


 SECOND-ORDER PAIR ENERGIES:

                    1   -0.012761707    0.000000000
                    2   -0.004289503   -0.004710716
                    3   -0.015582469    0.000000000
                    4   -0.009413586   -0.004091875
                    5   -0.022531300   -0.003850627
                    6   -0.015621460    0.000000000
                    7   -0.014795911   -0.010896549
                    8   -0.011473727   -0.013661162
                    9   -0.009708268   -0.021620532
                   10   -0.028626667    0.000000000
                   11   -0.014795911   -0.010896549
                   12   -0.011473727   -0.013661162
                   13   -0.009708268   -0.021620532
                   14   -0.020659363   -0.038718532
                   15   -0.028626667    0.000000000

 MP2 =   -0.373796768   -0.230068532   -0.143728236


                         +--------------------------------+
                         ! Auxiliary-basis MP2-R12 method !
                         +--------------------------------+


 SECOND-ORDER R12/A PAIR ENERGIES:

   1   -0.012761707   -0.015063311    0.000000000   -0.000000000    0.272800        0.261093    
   2   -0.004289503   -0.004811326   -0.004710716   -0.004784891    0.272800        0.261093    
   3   -0.015582469   -0.016865230    0.000000000   -0.000000000    0.272800        0.261093    
   4   -0.009413586   -0.010735616   -0.004091875   -0.004166424    0.272800        0.261093    
   5   -0.022531300   -0.024751801   -0.003850627   -0.003873010    0.272800        0.261093    
   6   -0.015621460   -0.017213060    0.000000000   -0.000000000    0.272800        0.261093    
   7   -0.014795911   -0.016450617   -0.010896549   -0.011051414    0.272800        0.261093    
   8   -0.011473727   -0.012168862   -0.013661162   -0.013733194    0.272800        0.261093    
   9   -0.009708268   -0.010444168   -0.021620532   -0.021853933    0.272800        0.261093    
  10   -0.028626667   -0.030332974    0.000000000   -0.000000000    0.272800        0.261093    
  11   -0.014795911   -0.016450617   -0.010896549   -0.011051414    0.272800        0.261093    
  12   -0.011473727   -0.012168862   -0.013661162   -0.013733194    0.272800        0.261093    
  13   -0.009708268   -0.010444168   -0.021620532   -0.021853933    0.272800        0.261093    
  14   -0.020659363   -0.021812416   -0.038718532   -0.038976269    0.272800        0.261093    
  15   -0.028626667   -0.030332974    0.000000000   -0.000000000    0.272800        0.261093    

       -0.230068532   -0.250046003   -0.143728236   -0.145077676

              MP2-R12/A   correlation energy =   -0.395123679

 SECOND-ORDER R12/B PAIR ENERGIES:

   1   -0.012761707   -0.014731708    0.000000000   -0.000000000     2.95339         3.06774    
   2   -0.004289503   -0.004711691   -0.004710716   -0.004749584     2.26165         2.37601    
   3   -0.015582469   -0.016680905    0.000000000   -0.000000000     1.56992         1.68428    
   4   -0.009413586   -0.010521066   -0.004091875   -0.004129437     2.11638         2.23074    
   5   -0.022531300   -0.024431666   -0.003850627   -0.003866389     1.42465         1.53901    
   6   -0.015621460   -0.016991318    0.000000000   -0.000000000     1.27938         1.39374    
   7   -0.014795911   -0.016014291   -0.010896549   -0.010979231     2.09591         2.21027    
   8   -0.011473727   -0.011899805   -0.013661162   -0.013692080     1.40418         1.51854    
   9   -0.009708268   -0.010154397   -0.021620532   -0.021752435     1.25891         1.37327    
  10   -0.028626667   -0.029892972    0.000000000   -0.000000000     1.23844         1.35280    
  11   -0.014795911   -0.016014291   -0.010896549   -0.010979231     2.09591         2.21027    
  12   -0.011473727   -0.011899805   -0.013661162   -0.013692080     1.40418         1.51854    
  13   -0.009708268   -0.010154397   -0.021620532   -0.021752435     1.25891         1.37327    
  14   -0.020659363   -0.021263472   -0.038718532   -0.038862019     1.23844         1.35280    
  15   -0.028626667   -0.029892972    0.000000000   -0.000000000     1.23844         1.35280    

       -0.230068532   -0.245254755   -0.143728236   -0.144454921

              MP2-R12/B   correlation energy =   -0.389709677


                 +-----------------------------------------------+
                 ! MP2-R12 ansatz := (1 - O1 - O2 + O1*O2) * R12 !
                 +-----------------------------------------------+



                         +--------------------------------+
                         ! Auxiliary-basis MP2-R12 method !
                         +--------------------------------+


 SECOND-ORDER R12/A   PAIR ENERGIES:

   1   -0.012761707   -0.016034155    0.000000000   -0.000000000    0.716298E-01    0.850896E-01
   2   -0.004289503   -0.004845640   -0.004710716   -0.004943686    0.739884E-01    0.873000E-01
   3   -0.015582469   -0.017015740    0.000000000   -0.000000000    0.756794E-01    0.903924E-01
   4   -0.009413586   -0.011521152   -0.004091875   -0.004377140    0.746066E-01    0.878610E-01
   5   -0.022531300   -0.025395949   -0.003850627   -0.003990135    0.759750E-01    0.912058E-01
   6   -0.015621460   -0.017539187    0.000000000   -0.000000000    0.762964E-01    0.920939E-01
   7   -0.014795911   -0.017206733   -0.010896549   -0.011386972    0.746980E-01    0.879433E-01
   8   -0.011473727   -0.012562815   -0.013661162   -0.014052063    0.760186E-01    0.913262E-01
   9   -0.009708268   -0.010706977   -0.021620532   -0.022115273    0.763440E-01    0.922257E-01
  10   -0.028626667   -0.030636141    0.000000000   -0.000000000    0.763923E-01    0.923592E-01
  11   -0.014795911   -0.017206733   -0.010896549   -0.011386972    0.746980E-01    0.879433E-01
  12   -0.011473727   -0.012562815   -0.013661162   -0.014052063    0.760186E-01    0.913262E-01
  13   -0.009708268   -0.010706977   -0.021620532   -0.022115273    0.763440E-01    0.922257E-01
  14   -0.020659363   -0.022186706   -0.038718532   -0.039426853    0.763923E-01    0.923592E-01
  15   -0.028626667   -0.030636141    0.000000000   -0.000000000    0.763923E-01    0.923592E-01

       -0.230068532   -0.256763861   -0.143728236   -0.147846430

              MP2-R12/A   correlation energy =   -0.404610291

 SECOND-ORDER R12/B   PAIR ENERGIES:

   1   -0.012761707   -0.015476881    0.000000000   -0.000000000    0.155976        0.179112    
   2   -0.004289503   -0.004776795   -0.004710716   -0.004896244    0.141182        0.161810    
   3   -0.015582469   -0.016783097    0.000000000   -0.000000000    0.125417        0.144488    
   4   -0.009413586   -0.011205333   -0.004091875   -0.004327015    0.137960        0.158172    
   5   -0.022531300   -0.024946399   -0.003850627   -0.003965946    0.121959        0.140854    
   6   -0.015621460   -0.017158997    0.000000000   -0.000000000    0.118446        0.137223    
   7   -0.014795911   -0.016758571   -0.010896549   -0.011271752    0.137503        0.157660    
   8   -0.011473727   -0.012253075   -0.013661162   -0.013918696    0.121467        0.140342    
   9   -0.009708268   -0.010373752   -0.021620532   -0.021953223    0.117946        0.136712    
  10   -0.028626667   -0.030055223    0.000000000   -0.000000000    0.117445        0.136200    
  11   -0.014795911   -0.016758571   -0.010896549   -0.011271752    0.137503        0.157660    
  12   -0.011473727   -0.012253075   -0.013661162   -0.013918696    0.121467        0.140342    
  13   -0.009708268   -0.010373752   -0.021620532   -0.021953223    0.117946        0.136712    
  14   -0.020659363   -0.021604214   -0.038718532   -0.039154665    0.117445        0.136200    
  15   -0.028626667   -0.030055223    0.000000000   -0.000000000    0.117445        0.136200    

       -0.230068532   -0.250832959   -0.143728236   -0.146631212

              MP2-R12/B   correlation energy =   -0.397464171


          +-------------------------------------------------------------+
          ! MP2-R12 ansatz := (1 - V1*V2) * (1 - O1 - O2 + O1*O2) * R12 !
          +-------------------------------------------------------------+



                         +--------------------------------+
                         ! Auxiliary-basis MP2-R12 method !
                         +--------------------------------+


 SECOND-ORDER R12/B   PAIR ENERGIES:

   1   -0.012761707   -0.015476881    0.000000000   -0.000000000     4.94354         5.55332    
   2   -0.004289503   -0.004776795   -0.004710716   -0.004896244     4.24832         4.86292    
   3   -0.015582469   -0.016783097    0.000000000   -0.000000000     3.55551         4.17575    
   4   -0.009413586   -0.011205333   -0.004091875   -0.004327015     4.10254         4.71825    
   5   -0.022531300   -0.024946399   -0.003850627   -0.003965946     3.41063         4.03221    
   6   -0.015621460   -0.017158997    0.000000000   -0.000000000     3.26610         3.88910    
   7   -0.014795911   -0.016758571   -0.010896549   -0.011271752     4.08201         4.69787    
   8   -0.011473727   -0.012253075   -0.013661162   -0.013918696     3.39024         4.01202    
   9   -0.009708268   -0.010373752   -0.021620532   -0.021953223     3.24577         3.86897    
  10   -0.028626667   -0.030055223    0.000000000   -0.000000000     3.22545         3.84886    
  11   -0.014795911   -0.016758571   -0.010896549   -0.011271752     4.08201         4.69787    
  12   -0.011473727   -0.012253075   -0.013661162   -0.013918696     3.39024         4.01202    
  13   -0.009708268   -0.010373752   -0.021620532   -0.021953223     3.24577         3.86897    
  14   -0.020659363   -0.021604214   -0.038718532   -0.039154665     3.22545         3.84886    
  15   -0.028626667   -0.030055223    0.000000000   -0.000000000     3.22545         3.84886    

       -0.230068532   -0.250832959   -0.143728236   -0.146631212

              MP2-R12/B   correlation energy =   -0.397464171
 >>>  Time used in E(R12)     is  22.17 seconds
 Time for MP2-R12 part cpu :   172.50900000000001     
 Time for MP2-R12 part wall:   179.78300002217293     

 *******************************************************************

 Ground state energy is target 

 Ecorr =                      0.00000000000000000000

 *******************************************************************

 requested model not yet implemented
  

 *******************************************************************************
 *******************************************************************************
 *                                                                             *
 *                                                                             *
 *                   SUMMARY OF COUPLED CLUSTER CALCULATION                    *
 *                                                                             *
 *                                                                             *
 *******************************************************************************
 *******************************************************************************

  

 *******************************************************************************
 *******************************************************************************
 *                                                                             *
 *                                                                             *
 *                      END OF COUPLED CLUSTER CALCULATION                     *
 *                                                                             *
 *                                                                             *
 *******************************************************************************
 *******************************************************************************


 >>>> CPU and wall time for CC :     172.509     179.784

 
     Date and time (Linux)  : Sun Sep  8 21:02:05 2013
     Host name              : lpqlx131.ups-tlse.fr                    


                      .-------------------------------------.
                      | End of Coupled Cluster Section (CC) |
                      `-------------------------------------'

 >>>> Total CPU  time used in DALTON:  3 minutes  2 seconds
 >>>> Total wall time used in DALTON:  3 minutes  9 seconds

 
     Date and time (Linux)  : Sun Sep  8 21:02:05 2013
     Host name              : lpqlx131.ups-tlse.fr                    
