

     ************************************************************************
     *************** Dalton - An Electronic Structure Program ***************
     ************************************************************************

    This is output from DALTON (Release Dalton2013 patch 0)
   ----------------------------------------------------------------------------
    NOTE:
     
    Dalton is an experimental code for the evaluation of molecular
    properties using (MC)SCF, DFT, CI, and CC wave functions.
    The authors accept no responsibility for the performance of
    the code or for the correctness of the results.
     
    The code (in whole or part) is provided under a licence and
    is not to be reproduced for further distribution without
    the written permission of the authors or their representatives.
     
    See the home page "http://daltonprogram.org" for further information.
     
    If results obtained with this code are published,
    the appropriate citations would be both of:
     
       K. Aidas, C. Angeli, K. L. Bak, V. Bakken, R. Bast,
       L. Boman, O. Christiansen, R. Cimiraglia, S. Coriani,
       P. Dahle, E. K. Dalskov, U. Ekstroem, T. Enevoldsen,
       J. J. Eriksen, P. Ettenhuber, B. Fernandez, L. Ferrighi,
       H. Fliegl, L. Frediani, K. Hald, A. Halkier, C. Haettig,
       H. Heiberg, T. Helgaker, A. C. Hennum, H. Hettema,
       E. Hjertenaes, S. Hoest, I.-M. Hoeyvik, M. F. Iozzi,
       B. Jansik, H. J. Aa. Jensen, D. Jonsson, P. Joergensen,
       J. Kauczor, S. Kirpekar, T. Kjaergaard, W. Klopper,
       S. Knecht, R. Kobayashi, H. Koch, J. Kongsted, A. Krapp,
       K. Kristensen, A. Ligabue, O. B. Lutnaes, J. I. Melo,
       K. V. Mikkelsen, R. H. Myhre, C. Neiss, C. B. Nielsen,
       P. Norman, J. Olsen, J. M. H. Olsen, A. Osted,
       M. J. Packer, F. Pawlowski, T. B. Pedersen, P. F. Provasi,
       S. Reine, Z. Rinkevicius, T. A. Ruden, K. Ruud, V. Rybkin,
       P. Salek, C. C. M. Samson, A. Sanchez de Meras, T. Saue,
       S. P. A. Sauer, B. Schimmelpfennig, K. Sneskov,
       A. H. Steindal, K. O. Sylvester-Hvid, P. R. Taylor,
       A. M. Teale, E. I. Tellgren, D. P. Tew, A. J. Thorvaldsen,
       L. Thoegersen, O. Vahtras, M. A. Watson, D. J. D. Wilson,
       M. Ziolkowski and H. Agren.
       The Dalton quantum chemistry program system.
       WIREs Comput. Mol. Sci. 2013. doi: 10.1002/wcms.1172
    
    and
    
       Dalton, a Molecular Electronic Structure Program,
       Release DALTON2013.0 (2013), see http://daltonprogram.org
   ----------------------------------------------------------------------------

    Authors in alphabetical order (major contribution(s) in parenthesis):

  Kestutis Aidas,           Vilnius University,           Lithuania   (QM/MM)
  Celestino Angeli,         University of Ferrara,        Italy       (NEVPT2)
  Keld L. Bak,              UNI-C,                        Denmark     (AOSOPPA, non-adiabatic coupling, magnetic properties)
  Vebjoern Bakken,          University of Oslo,           Norway      (DALTON; geometry optimizer, symmetry detection)
  Radovan Bast,             KTH Stockholm                 Sweden      (DALTON installation and execution frameworks)
  Linus Boman,              NTNU,                         Norway      (Cholesky decomposition and subsystems)
  Ove Christiansen,         Aarhus University,            Denmark     (CC module)
  Renzo Cimiraglia,         University of Ferrara,        Italy       (NEVPT2)
  Sonia Coriani,            University of Trieste,        Italy       (CC module, MCD in RESPONS)
  Paal Dahle,               University of Oslo,           Norway      (Parallelization)
  Erik K. Dalskov,          UNI-C,                        Denmark     (SOPPA)
  Thomas Enevoldsen,        Univ. of Southern Denmark,    Denmark     (SOPPA)
  Janus J. Eriksen,         Aarhus University,            Denmark     (PE-MP2/SOPPA, TDA)
  Berta Fernandez,          U. of Santiago de Compostela, Spain       (doublet spin, ESR in RESPONS)
  Lara Ferrighi,            Aarhus University,            Denmark     (PCM Cubic response)
  Heike Fliegl,             University of Oslo,           Norway      (CCSD(R12))
  Luca Frediani,            UiT The Arctic U. of Norway,  Norway      (PCM)
  Bin Gao,                  UiT The Arctic U. of Norway,  Norway      (Gen1Int library)
  Christof Haettig,         Ruhr-University Bochum,       Germany     (CC module)
  Kasper Hald,              Aarhus University,            Denmark     (CC module)
  Asger Halkier,            Aarhus University,            Denmark     (CC module)
  Hanne Heiberg,            University of Oslo,           Norway      (geometry analysis, selected one-electron integrals)
  Trygve Helgaker,          University of Oslo,           Norway      (DALTON; ABACUS, ERI, DFT modules, London, and much more)
  Alf Christian Hennum,     University of Oslo,           Norway      (Parity violation)
  Hinne Hettema,            University of Auckland,       New Zealand (quadratic response in RESPONS; SIRIUS supersymmetry)
  Eirik Hjertenaes,         NTNU,                         Norway      (Cholesky decomposition)
  Maria Francesca Iozzi,    University of Oslo,           Norway      (RPA)
  Brano Jansik              Technical Univ. of Ostrava    Czech Rep.  (DFT cubic response)
  Hans Joergen Aa. Jensen,  Univ. of Southern Denmark,    Denmark     (DALTON; SIRIUS, RESPONS, ABACUS modules, London, and much more)
  Dan Jonsson,              UiT The Arctic U. of Norway,  Norway      (cubic response in RESPONS module)
  Poul Joergensen,          Aarhus University,            Denmark     (RESPONS, ABACUS, and CC modules)
  Joanna Kauczor,           Linkoeping University,        Sweden      (Complex polarization propagator (CPP) module)
  Sheela Kirpekar,          Univ. of Southern Denmark,    Denmark     (Mass-velocity & Darwin integrals)
  Wim Klopper,              KIT Karlsruhe,                Germany     (R12 code in CC, SIRIUS, and ABACUS modules)
  Stefan Knecht,            ETH Zurich,                   Switzerland (Parallel CI and MCSCF)
  Rika Kobayashi,           Australian National Univ.,    Australia   (DIIS in CC, London in MCSCF)
  Henrik Koch,              NTNU,                         Norway      (CC module, Cholesky decomposition)
  Jacob Kongsted,           Univ. of Southern Denmark,    Denmark     (Polarizable embedding, QM/MM)
  Andrea Ligabue,           University of Modena,         Italy       (CTOCD, AOSOPPA)
  Ola B. Lutnaes,           University of Oslo,           Norway      (DFT Hessian)
  Juan I. Melo,             University of Buenos Aires,   Argentina   (LRESC, Relativistic Effects on NMR Shieldings)
  Kurt V. Mikkelsen,        University of Copenhagen,     Denmark     (MC-SCRF and QM/MM)
  Rolf H. Myhre,            NTNU,                         Norway      (Cholesky, subsystems and ECC2)
  Christian Neiss,          Univ. Erlangen-Nuernberg,     Germany     (CCSD(R12))
  Christian B. Nielsen,     University of Copenhagen,     Denmark     (QM/MM)
  Patrick Norman,           Linkoeping University,        Sweden      (Cubic response and complex response in RESPONS)
  Jeppe Olsen,              Aarhus University,            Denmark     (SIRIUS CI/density modules)
  Jogvan Magnus H. Olsen,   Univ. of Southern Denmark,    Denmark     (Polarizable embedding, PE library, QM/MM)
  Anders Osted,             Copenhagen University,        Denmark     (QM/MM)
  Martin J. Packer,         University of Sheffield,      UK          (SOPPA)
  Filip Pawlowski,          Kazimierz Wielki University   Poland      (CC3)
  Thomas B. Pedersen,       University of Oslo,           Norway      (Cholesky decomposition)
  Patricio F. Provasi,      University of Northeastern,   Argentina   (Analysis of coupling constants in localized orbitals)
  Zilvinas Rinkevicius,     KTH Stockholm,                Sweden      (open-shell DFT, ESR)
  Elias Rudberg,            KTH Stockholm,                Sweden      (DFT grid and basis info)
  Torgeir A. Ruden,         University of Oslo,           Norway      (Numerical derivatives in ABACUS)
  Kenneth Ruud,             UiT The Arctic U. of Norway,  Norway      (DALTON; ABACUS magnetic properties and  much more)
  Pawel Salek,              KTH Stockholm,                Sweden      (DALTON; DFT code)
  Claire C. M. Samson       University of Karlsruhe       Germany     (Boys localization, r12 integrals in ERI)
  Alfredo Sanchez de Meras, University of Valencia,       Spain       (CC module, Cholesky decomposition)
  Trond Saue,               Paul Sabatier University,     France      (direct Fock matrix construction)
  Stephan P. A. Sauer,      University of Copenhagen,     Denmark     (SOPPA(CCSD), SOPPA prop., AOSOPPA, vibrational g-factors)
  Bernd Schimmelpfennig,    Forschungszentrum Karlsruhe,  Germany     (AMFI module)
  Kristian Sneskov,         Aarhus University,            Denmark     (QM/MM, PE-CC)
  Arnfinn H. Steindal,      UiT The Arctic U. of Norway,  Norway      (parallel QM/MM)
  K. O. Sylvester-Hvid,     University of Copenhagen,     Denmark     (MC-SCRF)
  Peter R. Taylor,          VLSCI/Univ. of Melbourne,     Australia   (Symmetry handling ABACUS, integral transformation)
  Andrew M. Teale,          University of Nottingham,     England     (DFT-AC, DFT-D)
  David P. Tew,             University of Bristol,        England     (CCSD(R12))
  Olav Vahtras,             KTH Stockholm,                Sweden      (triplet response, spin-orbit, ESR, TDDFT, open-shell DFT)
  David J. Wilson,          La Trobe University,          Australia   (DFT Hessian and DFT magnetizabilities)
  Hans Agren,               KTH Stockholm,                Sweden      (SIRIUS module, RESPONS, MC-SCRF solvation model)
 --------------------------------------------------------------------------------

     Date and time (Linux)  : Sun Sep  8 20:58:13 2013
     Host name              : lpqlx131.ups-tlse.fr                    

 * Work memory size             :    64000000 =  488.28 megabytes.

 * Directories for basis set searches:
   1) /home/bast/DALTON-2013.0-Source/build/test_r12_fc_aux_sym
   2) /home/bast/DALTON-2013.0-Source/build/basis


Compilation information
-----------------------

 Who compiled             | bast
 Host                     | lpqlx131.ups-tlse.fr
 System                   | Linux-3.8.5-201.fc18.x86_64
 CMake generator          | Unix Makefiles
 Processor                | x86_64
 64-bit integers          | OFF
 MPI                      | OFF
 Fortran compiler         | /usr/bin/gfortran
 Fortran compiler version | GNU Fortran (GCC) 4.7.2 20121109 (Red Hat 4.7.2-8)
 C compiler               | /usr/bin/gcc
 C compiler version       | gcc (GCC) 4.7.2 20121109 (Red Hat 4.7.2-8)
 C++ compiler             | /usr/bin/g++
 C++ compiler version     | g++ (GCC) 4.7.2 20121109 (Red Hat 4.7.2-8)
 Static linking           | OFF
 Last Git revision        | f34203295a86316e27f9e7b44f9b6769c4a046c0
 Configuration time       | 2013-09-08 20:31:27.952056


   Content of the .dal input file
 ----------------------------------

**DALTON INPUT                                    
.RUN WAVE FUNCTION                                
.DIRECT                                           
**INTEGRALS                                       
.R12                                              
**WAVE FUNCTIONS                                  
.CC                                               
*SCF INPUT                                        
.THRESHOLD                                        
 1D-10                                            
*CC INPUT                                         
.MP2                                              
.PRINT                                            
 3                                                
.FROIMP                                           
 1 0 0 0 1 0 0 0                                  
 0 0 0 0 0 0 0 0                                  
*ORBITALS                                         
.MOSTART                                          
 H1DIAG                                           
**END OF DALTON INPUT                             


   Content of the .mol file
 ----------------------------

BASIS                                                                          
cc-pVTZ cc-pCVQZ                                                               
Direct MP2-R12 calculation using symmetry                                      
                                                                               
    2    3  X  Y  Z                                                            
 1      7.    1                                                                
N      0.000000000000000   0.000000000000000   1.037572100000000       *       
 2      7.    1                                                                
N      0.000000000000000   0.000000000000000   1.037572100000000       *       


       *******************************************************************
       *********** Output from DALTON general input processing ***********
       *******************************************************************

 --------------------------------------------------------------------------------
   Overall default print level:    0
   Print level for DALTON.STAT:    1

    AO-direct calculation (in sections where implemented)
    HERMIT 1- and 2-electron integral sections will be executed
    "Old" integral transformation used (limited to max 255 basis functions)
    Wave function sections will be executed (SIRIUS module)
 --------------------------------------------------------------------------------


   ****************************************************************************
   *************** Output of molecule and basis set information ***************
   ****************************************************************************


 INFO: basis set line contains more than one basis set:
     cc-pVTZ cc-pCVQZ
 INFO: ".R12AUX" activated automatically.

    The two title cards from your ".mol" input:
    ------------------------------------------------------------------------
 1: Direct MP2-R12 calculation using symmetry                               
 2:                                                                         
    ------------------------------------------------------------------------

  Atomic type no.    1
  --------------------
  Nuclear charge:   7.00000
  Number of symmetry independent centers:    1
  Number of basis sets to read;    1
  Basis set file used for this atomic type with Z =   7 :
     "/home/bast/DALTON-2013.0-Source/build/basis/cc-pVTZ"

  Atomic type no.    2
  --------------------
  Nuclear charge:   7.00000
  Number of symmetry independent centers:    1
  This is an auxiliary basis for R12, MBSI:    2
  Basis set file used for this atomic type with Z =   7 :
     "/home/bast/DALTON-2013.0-Source/build/basis/cc-pCVQZ"


                         SYMGRP: Point group information
                         -------------------------------

Point group: D2h

   * The point group was generated by:

      Reflection in the yz-plane
      Reflection in the xz-plane
      Reflection in the xy-plane

   * Group multiplication table

        |  E   C2z  C2y  C2x   i   Oxy  Oxz  Oyz
   -----+----------------------------------------
     E  |  E   C2z  C2y  C2x   i   Oxy  Oxz  Oyz
    C2z | C2z   E   C2x  C2y  Oxy   i   Oyz  Oxz
    C2y | C2y  C2x   E   C2z  Oxz  Oyz   i   Oxy
    C2x | C2x  C2y  C2z   E   Oyz  Oxz  Oxy   i 
     i  |  i   Oxy  Oxz  Oyz   E   C2z  C2y  C2x
    Oxy | Oxy   i   Oyz  Oxz  C2z   E   C2x  C2y
    Oxz | Oxz  Oyz   i   Oxy  C2y  C2x   E   C2z
    Oyz | Oyz  Oxz  Oxy   i   C2x  C2y  C2z   E 

   * Character table

        |  E   C2z  C2y  C2x   i   Oxy  Oxz  Oyz
   -----+----------------------------------------
    Ag  |   1    1    1    1    1    1    1    1
    B3u |   1   -1   -1    1   -1    1    1   -1
    B2u |   1   -1    1   -1   -1    1   -1    1
    B1g |   1    1   -1   -1    1    1   -1   -1
    B1u |   1    1   -1   -1   -1   -1    1    1
    B2g |   1   -1    1   -1    1   -1    1   -1
    B3g |   1   -1   -1    1    1   -1   -1    1
    Au  |   1    1    1    1   -1   -1   -1   -1

   * Direct product table

        | Ag   B3u  B2u  B1g  B1u  B2g  B3g  Au 
   -----+----------------------------------------
    Ag  | Ag   B3u  B2u  B1g  B1u  B2g  B3g  Au 
    B3u | B3u  Ag   B1g  B2u  B2g  B1u  Au   B3g
    B2u | B2u  B1g  Ag   B3u  B3g  Au   B1u  B2g
    B1g | B1g  B2u  B3u  Ag   Au   B3g  B2g  B1u
    B1u | B1u  B2g  B3g  Au   Ag   B3u  B2u  B1g
    B2g | B2g  B1u  Au   B3g  B3u  Ag   B1g  B2u
    B3g | B3g  Au   B1u  B2g  B2u  B1g  Ag   B3u
    Au  | Au   B3g  B2g  B1u  B1g  B2u  B3u  Ag 


                                 Isotopic Masses
                                 ---------------

                           N   _1     14.003074
                           N   _2     14.003074
                           N   _1      0.000000
                           N   _2      0.000000

                       Total mass:    28.006148 amu
                       Natural abundance:   0.000 %

 Center-of-mass coordinates (a.u.):    0.000000    0.000000    0.000000


  Atoms and basis sets
  --------------------

  Number of atom types :    2
  Total number of atoms:    4

  Basis set 1 refers to the basis "cc-pVTZ" from the basis set library.

  Basis set 2 refers to the basis "cc-pCVQZ" from the basis set library.

  label  basis   atoms  charge   prim  cont     basis
  ------------------------------------------------------------------------------
  N        1       2    7.0000    42    30      [10s5p2d1f|4s3p2d1f]                               
  N        2       2    0.0000    97    84      [15s9p5d3f1g|8s7p5d3f1g]                           
  ------------------------------------------------------------------------------
  total:           4   14.0000   278   228
  ------------------------------------------------------------------------------
  Spherical harmonic basis used.

  Threshold for neglecting AO integrals:  1.00D-12


  Cartesian Coordinates (a.u.)
  ----------------------------

  Total number of coordinates:   12
  N   / 1 :     1  x   0.0000000000    2  y   0.0000000000    3  z   1.0375721000
  N   / 2 :     4  x   0.0000000000    5  y   0.0000000000    6  z  -1.0375721000
  N   / 1 :     7  x   0.0000000000    8  y   0.0000000000    9  z   1.0375721000
  N   / 2 :    10  x   0.0000000000   11  y   0.0000000000   12  z  -1.0375721000


  Symmetry Coordinates
  --------------------

  Number of coordinates in each symmetry:     2    2    2    0    2    2    2    0

  Symmetry  Ag  ( 1)

    1   N     z    [  3  -    6 ]/2
    2   N     z    [  9  -   12 ]/2

  Symmetry  B3u ( 2)

    3   N     x    [  1  +    4 ]/2
    4   N     x    [  7  +   10 ]/2

  Symmetry  B2u ( 3)

    5   N     y    [  2  +    5 ]/2
    6   N     y    [  8  +   11 ]/2

  Symmetry  B1u ( 5)

    7   N     z    [  3  +    6 ]/2
    8   N     z    [  9  +   12 ]/2

  Symmetry  B2g ( 6)

    9   N     x    [  1  -    4 ]/2
   10   N     x    [  7  -   10 ]/2

  Symmetry  B3g ( 7)

   11   N     y    [  2  -    5 ]/2
   12   N     y    [  8  -   11 ]/2


   Interatomic separations (in Angstrom):
   --------------------------------------

            N   _1      N   _2      N   _1      N   _2
            ------      ------      ------      ------
 N   _1:    0.000000
 N   _2:    1.098119    0.000000
 N   _1:    0.000000    1.098119    0.000000
 N   _2:    1.098119    0.000000    1.098119    0.000000


  Max    interatomic separation is    1.0981 Angstrom (    2.0751 Bohr)
  between atoms    2 and    1, "N   _2" and "N   _1".

  Min YX interatomic separation is    0.0000 Angstrom (    0.0000 Bohr)

WARNING: Number of short HX and YX bond lengths:    0    2
WARNING: If not intentional, maybe your coordinates were in Angstrom,
WARNING: but "Angstrom" was not specified in .mol file


  Bond distances (Angstrom):
  --------------------------

                  atom 1     atom 2       distance
                  ------     ------       --------
  bond distance:  N   _2     N   _1       1.098119


  Bond angles (degrees):
  ----------------------

                  atom 1     atom 2     atom 3         angle
                  ------     ------     ------         -----
     No angles found




 Principal moments of inertia (u*A**2) and principal axes
 --------------------------------------------------------

   IA       0.000000          0.000000    0.000000    1.000000
   IB       8.442911          0.000000    1.000000    0.000000
   IC       8.442911          1.000000    0.000000    0.000000


 Rotational constants
 --------------------

 The molecule is linear.

               B =        59858.38 MHz     (    1.996661 cm-1)


@  Nuclear repulsion energy :   23.612816882798 Hartree


  Symmetry Orbitals
  -----------------

  Number of orbitals in each symmetry:          47   27   27   13   47   27   27   13

  Number of main orbitals in each symmetry:          13    7    7    3   13    7    7    3
  Number of auxiliary functions in each symmetry:    34   20   20   10   34   20   20   10


  Symmetry  Ag ( 1)

    1     N    M   1s         1 +    2
    2     N    M   1s         3 +    4
    3     N    M   1s         5 +    6
    4     N    M   1s         7 +    8
    5     N    M   2pz       13 -   14
    6     N    M   2pz       19 -   20
    7     N    M   2pz       25 -   26
    8     N    M   3d0       31 +   32
    9     N    M   3d2+      35 +   36
   10     N    M   3d0       41 +   42
   11     N    M   3d2+      45 +   46
   12     N    M   4f0       53 -   54
   13     N    M   4f2+      57 -   58
   14     N    A   1s        61 +   62
   15     N    A   1s        63 +   64
   16     N    A   1s        65 +   66
   17     N    A   1s        67 +   68
   18     N    A   1s        69 +   70
   19     N    A   1s        71 +   72
   20     N    A   1s        73 +   74
   21     N    A   1s        75 +   76
   22     N    A   2pz       81 -   82
   23     N    A   2pz       87 -   88
   24     N    A   2pz       93 -   94
   25     N    A   2pz       99 -  100
   26     N    A   2pz      105 -  106
   27     N    A   2pz      111 -  112
   28     N    A   2pz      117 -  118
   29     N    A   3d0      123 +  124
   30     N    A   3d2+     127 +  128
   31     N    A   3d0      133 +  134
   32     N    A   3d2+     137 +  138
   33     N    A   3d0      143 +  144
   34     N    A   3d2+     147 +  148
   35     N    A   3d0      153 +  154
   36     N    A   3d2+     157 +  158
   37     N    A   3d0      163 +  164
   38     N    A   3d2+     167 +  168
   39     N    A   4f0      175 -  176
   40     N    A   4f2+     179 -  180
   41     N    A   4f0      189 -  190
   42     N    A   4f2+     193 -  194
   43     N    A   4f0      203 -  204
   44     N    A   4f2+     207 -  208
   45     N    A   5g0      219 +  220
   46     N    A   5g2+     223 +  224
   47     N    A   5g4+     227 +  228


  Symmetry  B3u( 2)

   48     N    M   2px        9 +   10
   49     N    M   2px       15 +   16
   50     N    M   2px       21 +   22
   51     N    M   3d1+      33 -   34
   52     N    M   3d1+      43 -   44
   53     N    M   4f1+      55 +   56
   54     N    M   4f3+      59 +   60
   55     N    A   2px       77 +   78
   56     N    A   2px       83 +   84
   57     N    A   2px       89 +   90
   58     N    A   2px       95 +   96
   59     N    A   2px      101 +  102
   60     N    A   2px      107 +  108
   61     N    A   2px      113 +  114
   62     N    A   3d1+     125 -  126
   63     N    A   3d1+     135 -  136
   64     N    A   3d1+     145 -  146
   65     N    A   3d1+     155 -  156
   66     N    A   3d1+     165 -  166
   67     N    A   4f1+     177 +  178
   68     N    A   4f3+     181 +  182
   69     N    A   4f1+     191 +  192
   70     N    A   4f3+     195 +  196
   71     N    A   4f1+     205 +  206
   72     N    A   4f3+     209 +  210
   73     N    A   5g1+     221 -  222
   74     N    A   5g3+     225 -  226


  Symmetry  B2u( 3)

   75     N    M   2py       11 +   12
   76     N    M   2py       17 +   18
   77     N    M   2py       23 +   24
   78     N    M   3d1-      29 -   30
   79     N    M   3d1-      39 -   40
   80     N    M   4f3-      47 +   48
   81     N    M   4f1-      51 +   52
   82     N    A   2py       79 +   80
   83     N    A   2py       85 +   86
   84     N    A   2py       91 +   92
   85     N    A   2py       97 +   98
   86     N    A   2py      103 +  104
   87     N    A   2py      109 +  110
   88     N    A   2py      115 +  116
   89     N    A   3d1-     121 -  122
   90     N    A   3d1-     131 -  132
   91     N    A   3d1-     141 -  142
   92     N    A   3d1-     151 -  152
   93     N    A   3d1-     161 -  162
   94     N    A   4f3-     169 +  170
   95     N    A   4f1-     173 +  174
   96     N    A   4f3-     183 +  184
   97     N    A   4f1-     187 +  188
   98     N    A   4f3-     197 +  198
   99     N    A   4f1-     201 +  202
  100     N    A   5g3-     213 -  214
  101     N    A   5g1-     217 -  218


  Symmetry  B1g( 4)

  102     N    M   3d2-      27 +   28
  103     N    M   3d2-      37 +   38
  104     N    M   4f2-      49 -   50
  105     N    A   3d2-     119 +  120
  106     N    A   3d2-     129 +  130
  107     N    A   3d2-     139 +  140
  108     N    A   3d2-     149 +  150
  109     N    A   3d2-     159 +  160
  110     N    A   4f2-     171 -  172
  111     N    A   4f2-     185 -  186
  112     N    A   4f2-     199 -  200
  113     N    A   5g4-     211 +  212
  114     N    A   5g2-     215 +  216


  Symmetry  B1u( 5)

  115     N    M   1s         1 -    2
  116     N    M   1s         3 -    4
  117     N    M   1s         5 -    6
  118     N    M   1s         7 -    8
  119     N    M   2pz       13 +   14
  120     N    M   2pz       19 +   20
  121     N    M   2pz       25 +   26
  122     N    M   3d0       31 -   32
  123     N    M   3d2+      35 -   36
  124     N    M   3d0       41 -   42
  125     N    M   3d2+      45 -   46
  126     N    M   4f0       53 +   54
  127     N    M   4f2+      57 +   58
  128     N    A   1s        61 -   62
  129     N    A   1s        63 -   64
  130     N    A   1s        65 -   66
  131     N    A   1s        67 -   68
  132     N    A   1s        69 -   70
  133     N    A   1s        71 -   72
  134     N    A   1s        73 -   74
  135     N    A   1s        75 -   76
  136     N    A   2pz       81 +   82
  137     N    A   2pz       87 +   88
  138     N    A   2pz       93 +   94
  139     N    A   2pz       99 +  100
  140     N    A   2pz      105 +  106
  141     N    A   2pz      111 +  112
  142     N    A   2pz      117 +  118
  143     N    A   3d0      123 -  124
  144     N    A   3d2+     127 -  128
  145     N    A   3d0      133 -  134
  146     N    A   3d2+     137 -  138
  147     N    A   3d0      143 -  144
  148     N    A   3d2+     147 -  148
  149     N    A   3d0      153 -  154
  150     N    A   3d2+     157 -  158
  151     N    A   3d0      163 -  164
  152     N    A   3d2+     167 -  168
  153     N    A   4f0      175 +  176
  154     N    A   4f2+     179 +  180
  155     N    A   4f0      189 +  190
  156     N    A   4f2+     193 +  194
  157     N    A   4f0      203 +  204
  158     N    A   4f2+     207 +  208
  159     N    A   5g0      219 -  220
  160     N    A   5g2+     223 -  224
  161     N    A   5g4+     227 -  228


  Symmetry  B2g( 6)

  162     N    M   2px        9 -   10
  163     N    M   2px       15 -   16
  164     N    M   2px       21 -   22
  165     N    M   3d1+      33 +   34
  166     N    M   3d1+      43 +   44
  167     N    M   4f1+      55 -   56
  168     N    M   4f3+      59 -   60
  169     N    A   2px       77 -   78
  170     N    A   2px       83 -   84
  171     N    A   2px       89 -   90
  172     N    A   2px       95 -   96
  173     N    A   2px      101 -  102
  174     N    A   2px      107 -  108
  175     N    A   2px      113 -  114
  176     N    A   3d1+     125 +  126
  177     N    A   3d1+     135 +  136
  178     N    A   3d1+     145 +  146
  179     N    A   3d1+     155 +  156
  180     N    A   3d1+     165 +  166
  181     N    A   4f1+     177 -  178
  182     N    A   4f3+     181 -  182
  183     N    A   4f1+     191 -  192
  184     N    A   4f3+     195 -  196
  185     N    A   4f1+     205 -  206
  186     N    A   4f3+     209 -  210
  187     N    A   5g1+     221 +  222
  188     N    A   5g3+     225 +  226


  Symmetry  B3g( 7)

  189     N    M   2py       11 -   12
  190     N    M   2py       17 -   18
  191     N    M   2py       23 -   24
  192     N    M   3d1-      29 +   30
  193     N    M   3d1-      39 +   40
  194     N    M   4f3-      47 -   48
  195     N    M   4f1-      51 -   52
  196     N    A   2py       79 -   80
  197     N    A   2py       85 -   86
  198     N    A   2py       91 -   92
  199     N    A   2py       97 -   98
  200     N    A   2py      103 -  104
  201     N    A   2py      109 -  110
  202     N    A   2py      115 -  116
  203     N    A   3d1-     121 +  122
  204     N    A   3d1-     131 +  132
  205     N    A   3d1-     141 +  142
  206     N    A   3d1-     151 +  152
  207     N    A   3d1-     161 +  162
  208     N    A   4f3-     169 -  170
  209     N    A   4f1-     173 -  174
  210     N    A   4f3-     183 -  184
  211     N    A   4f1-     187 -  188
  212     N    A   4f3-     197 -  198
  213     N    A   4f1-     201 -  202
  214     N    A   5g3-     213 +  214
  215     N    A   5g1-     217 +  218


  Symmetry  Au ( 8)

  216     N    M   3d2-      27 -   28
  217     N    M   3d2-      37 -   38
  218     N    M   4f2-      49 +   50
  219     N    A   3d2-     119 -  120
  220     N    A   3d2-     129 -  130
  221     N    A   3d2-     139 -  140
  222     N    A   3d2-     149 -  150
  223     N    A   3d2-     159 -  160
  224     N    A   4f2-     171 +  172
  225     N    A   4f2-     185 +  186
  226     N    A   4f2-     199 +  200
  227     N    A   5g4-     211 -  212
  228     N    A   5g2-     215 -  216

  Number of floating/multiple basis set orbitals :    2

  Symmetries of electric field:  B3u(2)  B2u(3)  B1u(5)

  Symmetries of magnetic field:  B3g(7)  B2g(6)  B1g(4)


                     .---------------------------------------.
                     | Starting in Integral Section (HERMIT) |
                     `---------------------------------------'



    *************************************************************************
    ****************** Output from HERMIT input processing ******************
    *************************************************************************


 Default print level:        1

 * Nuclear model: Point charge

 Calculation of one-electron Hamiltonian integrals.

 The following one-electron property integrals are calculated as requested:
          - overlap integrals
          - Cartesian multipole moment integrals of orders 2 and lower

 Center of mass  (bohr):      0.000000000000      0.000000000000      0.000000000000
 Operator center (bohr):      0.000000000000      0.000000000000      0.000000000000
 Gauge origin    (bohr):      0.000000000000      0.000000000000      0.000000000000
 Dipole origin   (bohr):      0.000000000000      0.000000000000      0.000000000000


     ************************************************************************
     ************************** Output from HERINT **************************
     ************************************************************************

 >>>  Time used in GABGEN     is   0.22 seconds
 >>>> Total CPU  time used in HERMIT:   0.39 seconds
 >>>> Total wall time used in HERMIT:   0.68 seconds


                        .----------------------------------.
                        | End of Integral Section (HERMIT) |
                        `----------------------------------'



                   .--------------------------------------------.
                   | Starting in Wave Function Section (SIRIUS) |
                   `--------------------------------------------'


 **********************************************************************
 *SIRIUS* a direct, restricted step, second order MCSCF program       *
 **********************************************************************

 
     Date and time (Linux)  : Sun Sep  8 20:58:14 2013
     Host name              : lpqlx131.ups-tlse.fr                    

 Title lines from ".mol" input file:
     Direct MP2-R12 calculation using symmetry                               
                                                                             

 Print level on unit LUPRI =   2 is   0
 Print level on unit LUW4  =   2 is   5

@    (Integral direct) CC calculation.

@    This is a combination run starting with
@              a restricted, closed shell Hartree-Fock calculation

 Fock matrices are calculated directly without use of integrals on disk.

 Initial molecular orbitals are obtained according to
 ".MOSTART H1DIAG" input option

     Wave function specification
     ============================

     For the specification of the Coupled Cluster: see later.

@    For the wave function of type :      >>> CC <<<
@    Number of closed shell electrons          14
@    Number of electrons in active shells       0
@    Total charge of the molecule               0

@    Spin multiplicity and 2 M_S                1         0
     Total number of symmetries                 8
@    Reference state symmetry                   1

     Orbital specifications
     ======================
     Abelian symmetry species          All |    1    2    3    4    5    6    7    8
                                       --- |  ---  ---  ---  ---  ---  ---  ---  ---
     Total number of orbitals           60 |   13    7    7    3   13    7    7    3
     Number of basis functions         228 |   47   27   27   13   47   27   27   13

      ** Automatic occupation of RHF orbitals **

      -- Initial occupation of symmetries is determined from diagonal of H1 matrix.           
      -- Initial occupation of symmetries is :
@    Occupied SCF orbitals               7 |    2    1    1    0    2    0    1    0

     Maximum number of Fock   iterations      0
     Maximum number of DIIS   iterations     60
     Maximum number of QC-SCF iterations     60
     Threshold for SCF convergence     1.00D-10


 Changes of defaults for CC:
 ---------------------------


 -This is a direct atomic orbital integral based
  calculation for coupled cluster wave function

 -Implicit frozen core calculation
  


 >>>>> DIIS optimization of Hartree-Fock <<<<<

 C1-DIIS algorithm; max error vectors =   10

 Automatic occupation of symmetries with  14 electrons.

 Iter     Total energy    Error norm  Delta(E)    SCF occupation
 -----------------------------------------------------------------------------
   1  Screening settings (-IFTHRS, DIFDEN)   -7    T
@  1  -93.8908574047       1.81D+01  -9.39D+01     2   1   1   0   2   0   1   0
      Virial theorem: -V/T =      1.607939
@      MULPOP N   _1 -0.00; N   _2 -0.00; 
 -----------------------------------------------------------------------------
   2  Screening settings (-IFTHRS, DIFDEN)   -7    T
@  2  -101.989934047       9.31D+00  -8.10D+00     3   1   1   0   2   0   0   0
      Virial theorem: -V/T =      2.098926
@      MULPOP N   _1 -0.00; N   _2 -0.00; 
 -----------------------------------------------------------------------------
   3  Screening settings (-IFTHRS, DIFDEN)   -7    T
@  3  -108.798983825       2.03D+00  -6.81D+00     3   1   1   0   2   0   0   0
      Virial theorem: -V/T =      1.973125
@      MULPOP N   _1  0.00; N   _2  0.00; 
 -----------------------------------------------------------------------------
   4  Screening settings (-IFTHRS, DIFDEN)   -7    T
@  4  -108.978345456       2.84D-01  -1.79D-01     3   1   1   0   2   0   0   0
      Virial theorem: -V/T =      1.998600
@      MULPOP N   _1  0.00; N   _2  0.00; 
 -----------------------------------------------------------------------------
   5  Screening settings (-IFTHRS, DIFDEN)   -9    F
@  5  -108.983311274       3.26D-02  -4.97D-03     3   1   1   0   2   0   0   0
      Virial theorem: -V/T =      2.002098
@      MULPOP N   _1  0.00; N   _2  0.00; 
 -----------------------------------------------------------------------------
   6  Screening settings (-IFTHRS, DIFDEN)   -9    T
@  6  -108.983383704       6.98D-03  -7.24D-05     3   1   1   0   2   0   0   0
      Virial theorem: -V/T =      2.002054
@      MULPOP N   _1  0.00; N   _2  0.00; 
 -----------------------------------------------------------------------------
   7  Screening settings (-IFTHRS, DIFDEN)  -11    F
@  7  -108.983387979       9.92D-04  -4.28D-06     3   1   1   0   2   0   0   0
      Virial theorem: -V/T =      2.001990
@      MULPOP N   _1  0.00; N   _2  0.00; 
 -----------------------------------------------------------------------------
   8  Screening settings (-IFTHRS, DIFDEN)  -11    T
@  8  -108.983388058       1.61D-04  -7.85D-08     3   1   1   0   2   0   0   0
      Virial theorem: -V/T =      2.001996
@      MULPOP N   _1  0.00; N   _2  0.00; 
 -----------------------------------------------------------------------------
   9  Screening settings (-IFTHRS, DIFDEN)  -11    T
@  9  -108.983388060       1.57D-05  -1.97D-09     3   1   1   0   2   0   0   0
      Virial theorem: -V/T =      2.001998
@      MULPOP N   _1  0.00; N   _2  0.00; 
 -----------------------------------------------------------------------------
  10  Screening settings (-IFTHRS, DIFDEN)  -13    F
@ 10  -108.983388060       1.57D-06  -2.46D-11     3   1   1   0   2   0   0   0
      Virial theorem: -V/T =      2.001998
@      MULPOP N   _1 -0.00; N   _2 -0.00; 
 -----------------------------------------------------------------------------
  11  Screening settings (-IFTHRS, DIFDEN)  -16    F
@ 11  -108.983388060       1.14D-07  -1.14D-13     3   1   1   0   2   0   0   0
      Virial theorem: -V/T =      2.001998
@      MULPOP N   _1 -0.00; N   _2 -0.00; 
 -----------------------------------------------------------------------------
  12  Screening settings (-IFTHRS, DIFDEN)  -16    T
@ 12  -108.983388060       1.54D-08  -2.84D-14     3   1   1   0   2   0   0   0
      Virial theorem: -V/T =      2.001998
@      MULPOP N   _1 -0.00; N   _2 -0.00; 
 -----------------------------------------------------------------------------
  13  Screening settings (-IFTHRS, DIFDEN)  -16    T
@ 13  -108.983388060       1.58D-09   0.00D+00     3   1   1   0   2   0   0   0
      Virial theorem: -V/T =      2.001998
@      MULPOP N   _1 -0.00; N   _2 -0.00; 
 -----------------------------------------------------------------------------
  14  Screening settings (-IFTHRS, DIFDEN)  -16    T
@ 14  -108.983388060       9.67D-11  -8.53D-14     3   1   1   0   2   0   0   0

@ *** DIIS converged in  14 iterations !
@     Converged SCF energy, gradient:   -108.983388059985    9.67D-11
    - total time used in SIRFCK :              0.00 seconds


 *** SCF orbital energy analysis ***

 Only the five lowest virtual orbital energies printed in each symmetry.

 Number of electrons :   14
 Orbital occupations :    3    1    1    0    2    0    0    0

 Sym       Hartree-Fock orbital energies

  1    -15.68179216    -1.46930735    -0.63230464     0.56189714     0.67245953
         1.04832307     1.93233335     3.30334791

  2     -0.61183589     0.56257272     1.34269776     3.16585065     3.95840166
         3.98730127

  3     -0.61183589     0.56257272     1.34269776     3.16585065     3.95840166
         3.98730127

  4      1.04832307     3.82859170     4.77212688

  5    -15.67826232    -0.77757653     0.42543800     0.92517451     1.08968756
         1.51275445     2.24846116

  6      0.16172119     0.73189720     1.94123280     3.50916118     4.44726495


  7      0.16172119     0.73189720     1.94123280     3.50916118     4.44726495


  8      1.51275445     4.90754656     5.30881623

    E(LUMO) :     0.16172119 au (symmetry 6)
  - E(HOMO) :    -0.61183589 au (symmetry 3)
  ------------------------------------------
    gap     :     0.77355708 au

 >>> Writing SIRIFC interface file <<<

  Canonical primary and secondary basis sets
  ISYM       NORB1 MBAS1       NORB2 MBAS2
     1          13    13          34    34
     2           7     7          20    20
     3           7     7          20    20
     4           3     3          10    10
     5          13    13          34    34
     6           7     7          20    20
     7           7     7          20    20
     8           3     3          10    10

 Computation of exchange matrix done [5]

 AUXILIARY BASIS LOW EIGENVALUES
 ISYM         EIGENVALUE
   1      0.000000000000
   2      0.000000000000
   3      0.000000000000
   4      0.000000000000
   5      0.000000000000
   6      0.000000000000
   7      0.000000000000
   8      0.000000000000
 >>>  Time used in R12AUX     is   1.16 seconds

 >>>> CPU and wall time for SCF :       3.048       3.177


                       .-----------------------------------.
                       | >>> Final results from SIRIUS <<< |
                       `-----------------------------------'


@    Spin multiplicity:           1
@    Spatial symmetry:            1
@    Total charge of molecule:    0

@    Final HF energy:            -108.983388059985                 
@    Nuclear repulsion:            23.612816882798
@    Electronic energy:          -132.596204942783

@    Final gradient norm:           0.000000000097

 
     Date and time (Linux)  : Sun Sep  8 20:58:17 2013
     Host name              : lpqlx131.ups-tlse.fr                    

 (Only coefficients >0.0100 are printed.)

 Molecular orbitals for symmetry species  1
 ------------------------------------------

    Orbital         1        2        3        4        5
   1 N   :1s     0.7070  -0.0240  -0.0023  -0.0619   0.3229
   2 N   :1s     0.0013   0.6119  -0.2348  -0.1578   1.5611
   3 N   :1s     0.0006  -0.0026  -0.0017  -0.0292  -0.0964
   4 N   :1s    -0.0010  -0.1392  -0.1783  -0.1979  -1.5225
   5 N   :2pz   -0.0050  -0.3421  -0.6990   0.3228   0.1400
   6 N   :2pz    0.0028   0.0413   0.0478   0.2646   0.0737
   7 N   :2pz    0.0016   0.0986   0.0859  -1.3451  -0.0103
   8 N   :3d0    0.0005   0.0200   0.0182  -0.0446   0.0073
  10 N   :3d0   -0.0004   0.0188   0.0161   0.1174   0.1378
  12 N   :4f0    0.0002  -0.0075  -0.0051  -0.0241   0.0037

 Molecular orbitals for symmetry species  2
 ------------------------------------------

    Orbital         1        2        3
   1 N   :2px    0.6275  -0.3759   0.1907
   2 N   :2px   -0.0076  -0.3328   0.2449
   3 N   :2px   -0.0329   0.8300  -0.1792
   4 N   :3d1+  -0.0197   0.0143   0.0037
   5 N   :3d1+  -0.0384   0.0722   0.6441
   6 N   :4f1+   0.0082   0.0018   0.0113

 Molecular orbitals for symmetry species  3
 ------------------------------------------

    Orbital         1        2        3
   1 N   :2py    0.6275  -0.3759   0.1907
   2 N   :2py   -0.0076  -0.3328   0.2449
   3 N   :2py   -0.0329   0.8300  -0.1792
   4 N   :3d1-  -0.0197   0.0143   0.0037
   5 N   :3d1-  -0.0384   0.0722   0.6441
   7 N   :4f1-   0.0082   0.0018   0.0113

 Molecular orbitals for symmetry species  4
 ------------------------------------------

    Orbital         1        2
   1 N   :3d2-  -0.0073  -0.1699
   2 N   :3d2-   0.6079   0.1844
   3 N   :4f2-  -0.0048   0.5995

 Molecular orbitals for symmetry species  5
 ------------------------------------------

    Orbital         1        2        3        4
   1 N   :1s     0.7067  -0.0044   0.0581  -0.0872
   2 N   :1s    -0.0010  -0.6574   0.5094  -0.3930
   3 N   :1s     0.0005  -0.0006  -0.0289  -0.0292
   4 N   :1s     0.0039  -0.0523   6.4404   6.7691
   5 N   :2pz   -0.0034  -0.3204   0.0483  -0.4747
   6 N   :2pz    0.0023   0.0107  -0.3239  -1.0584
   7 N   :2pz   -0.0004   0.0321  -3.6578  -2.1489
   8 N   :3d0    0.0006   0.0034  -0.0187   0.0187
  10 N   :3d0    0.0002   0.0079   0.3047   0.2461
  12 N   :4f0   -0.0004   0.0002  -0.0224  -0.0620

 Molecular orbitals for symmetry species  6
 ------------------------------------------

    Orbital         1        2
   1 N   :2px    0.6291  -0.5800
   2 N   :2px   -0.0138  -0.2515
   3 N   :2px    0.5033   1.7186
   4 N   :3d1+   0.0135   0.0142
   5 N   :3d1+  -0.0088  -0.2599
   6 N   :4f1+   0.0005   0.0383

 Molecular orbitals for symmetry species  7
 ------------------------------------------

    Orbital         1        2
   1 N   :2py   -0.6291  -0.5800
   2 N   :2py    0.0138  -0.2515
   3 N   :2py   -0.5033   1.7186
   4 N   :3d1-  -0.0135   0.0142
   5 N   :3d1-   0.0088  -0.2599
   7 N   :4f1-  -0.0005   0.0383

 Molecular orbitals for symmetry species  8
 ------------------------------------------

    Orbital         1        2
   1 N   :3d2-  -0.0208  -0.8359
   2 N   :3d2-   0.9019   0.5686
   3 N   :4f2-  -0.0051  -0.1318



 >>>> Total CPU  time used in SIRIUS :      3.06 seconds
 >>>> Total wall time used in SIRIUS :      3.19 seconds

 
     Date and time (Linux)  : Sun Sep  8 20:58:17 2013
     Host name              : lpqlx131.ups-tlse.fr                    


                     .---------------------------------------.
                     | End of Wave Function Section (SIRIUS) |
                     `---------------------------------------'



                    .------------------------------------------.
                    | Starting in Coupled Cluster Section (CC) |
                    `------------------------------------------'

  

 *******************************************************************************
 *******************************************************************************
 *                                                                             *
 *                                                                             *
 *                    START OF COUPLED CLUSTER CALCULATION                     *
 *                                                                             *
 *                                                                             *
 *******************************************************************************
 *******************************************************************************



 CCR12 ANSATZ =   0

 CCR12 APPROX =   0

   NRHF   :       2       1       1       0       1       0       0       0
   NRHFS  :       3       1       1       0       2       0       0       0
   NORB1  :      13       7       7       3      13       7       7       3
   NORB2  :      34      20      20      10      34      20      20      10

 Number of primary orbitals             :           60
 Number of secondary orbitals           :          168
 Total number of orbitals               :          228
 Total number of basis functions        :          228
 Number of (i|p) integrals              :           53
 Number of (i|p') integrals             :          195
 Number of (i|u') integrals             :          195
 Number of (Ip'|jL) integrals           :          780
 Number of (ip'|jq) integrals           :        39890
 Threshold for R12 contributions            =  0.00000    
 Threshold for singular value decomposition = 0.100000E-11

 The B matrix is transformed into an orthogonal basis
 and inverted by diagonalization

 ******************************************************************************
 The MP2-R12/A and MP2-R12/B energies are computed as described in:
 W. Klopper, J. Chem. Phys. 120, 10890-10895 (2004).
 To avoid the hybride scheme, the keyword '.NO HYB'
 must be specified in the Dalton input file.
 ------------------------------------------------------------------------------
 Ansaetze 1, 2, 3 are used and results are printed for approximations A and B.
 ******************************************************************************

 Core memory required by CCSD_R12 :         248525  (double words)

 Computation of (ip'|r12|jq) integrals done
 >>>  Time used in R  [5]     is   2.83 seconds
 Computation of (ip'|1/r12|jq) integrals done
 >>>  Time used in 1/R[5]     is   2.64 seconds
 Computation of (i* p'|r12|jq) integrals done
 >>>  Time used in R  [5]     is   2.80 seconds
 Computation of (i'p|r12|jq) integrals done
 >>>  Time used in R  [5]     is   4.76 seconds
 >>>  Time used in TWOINT     is   4.17 seconds
 >>>  Time used in TWOINT     is   4.61 seconds
 >>>  Time used in TWOINT     is   3.71 seconds
 >>>  Time used in TWOINT     is   3.06 seconds
 >>>  Time used in TWOINT     is   0.91 seconds
 >>>  Time used in TWOINT     is   1.23 seconds
 >>>  Time used in TWOINT     is   1.17 seconds
 >>>  Time used in TWOINT     is   1.17 seconds
 >>>  Time used in TWOINT     is   0.72 seconds
 Computation of (ip'|[T,r12]|jq) integrals done
 >>>  Time used in T,R[5]     is  22.10 seconds


                 +-----------------------------------------------+
                 ! MP2-R12 ansatz := (1 - P1 - P2 + P1*P2) * R12 !
                 +-----------------------------------------------+


 SECOND-ORDER PAIR ENERGIES:

                    1   -0.012761707    0.000000000
                    2   -0.009413586   -0.004091875
                    3   -0.015621460    0.000000000
                    4   -0.014795911   -0.010896549
                    5   -0.009708268   -0.021620532
                    6   -0.028626667    0.000000000
                    7   -0.014795911   -0.010896549
                    8   -0.009708268   -0.021620532
                    9   -0.020659363   -0.038718532
                   10   -0.028626667    0.000000000
                   11   -0.004289503   -0.004710716
                   12   -0.022531300   -0.003850627
                   13   -0.011473727   -0.013661162
                   14   -0.011473727   -0.013661162
                   15   -0.015582469    0.000000000

 MP2 =   -0.373796768   -0.230068532   -0.143728236


                         +--------------------------------+
                         ! Auxiliary-basis MP2-R12 method !
                         +--------------------------------+


 SECOND-ORDER R12/A PAIR ENERGIES:

   1   -0.012761707   -0.015063311    0.000000000   -0.000000000    0.272800        0.261093    
   2   -0.009413586   -0.010735616   -0.004091875   -0.004166424    0.272800        0.261093    
   3   -0.015621460   -0.017213060    0.000000000   -0.000000000    0.272800        0.261093    
   4   -0.014795911   -0.016450617   -0.010896549   -0.011051414    0.272800        0.261093    
   5   -0.009708268   -0.010444168   -0.021620532   -0.021853933    0.272800        0.261093    
   6   -0.028626667   -0.030332974    0.000000000   -0.000000000    0.272800        0.261093    
   7   -0.014795911   -0.016450617   -0.010896549   -0.011051414    0.272800        0.261093    
   8   -0.009708268   -0.010444168   -0.021620532   -0.021853933    0.272800        0.261093    
   9   -0.020659363   -0.021812416   -0.038718532   -0.038976269    0.272800        0.261093    
  10   -0.028626667   -0.030332974    0.000000000   -0.000000000    0.272800        0.261093    
  11   -0.004289503   -0.004811326   -0.004710716   -0.004784891    0.272800        0.261093    
  12   -0.022531300   -0.024751801   -0.003850627   -0.003873010    0.272800        0.261093    
  13   -0.011473727   -0.012168862   -0.013661162   -0.013733194    0.272800        0.261093    
  14   -0.011473727   -0.012168862   -0.013661162   -0.013733194    0.272800        0.261093    
  15   -0.015582469   -0.016865230    0.000000000   -0.000000000    0.272800        0.261093    

       -0.230068532   -0.250046003   -0.143728236   -0.145077676

              MP2-R12/A   correlation energy =   -0.395123679

 SECOND-ORDER R12/B PAIR ENERGIES:

   1   -0.012761707   -0.014731708    0.000000000   -0.000000000     2.95339         3.06774    
   2   -0.009413586   -0.010521066   -0.004091875   -0.004129437     2.11638         2.23074    
   3   -0.015621460   -0.016991318    0.000000000   -0.000000000     1.27938         1.39374    
   4   -0.014795911   -0.016014291   -0.010896549   -0.010979231     2.09591         2.21027    
   5   -0.009708268   -0.010154397   -0.021620532   -0.021752435     1.25891         1.37327    
   6   -0.028626667   -0.029892972    0.000000000   -0.000000000     1.23844         1.35280    
   7   -0.014795911   -0.016014291   -0.010896549   -0.010979231     2.09591         2.21027    
   8   -0.009708268   -0.010154397   -0.021620532   -0.021752435     1.25891         1.37327    
   9   -0.020659363   -0.021263472   -0.038718532   -0.038862019     1.23844         1.35280    
  10   -0.028626667   -0.029892972    0.000000000   -0.000000000     1.23844         1.35280    
  11   -0.004289503   -0.004711691   -0.004710716   -0.004749584     2.26165         2.37601    
  12   -0.022531300   -0.024431666   -0.003850627   -0.003866389     1.42465         1.53901    
  13   -0.011473727   -0.011899805   -0.013661162   -0.013692080     1.40418         1.51854    
  14   -0.011473727   -0.011899805   -0.013661162   -0.013692080     1.40418         1.51854    
  15   -0.015582469   -0.016680905    0.000000000   -0.000000000     1.56992         1.68428    

       -0.230068532   -0.245254755   -0.143728236   -0.144454921

              MP2-R12/B   correlation energy =   -0.389709677


                 +-----------------------------------------------+
                 ! MP2-R12 ansatz := (1 - O1 - O2 + O1*O2) * R12 !
                 +-----------------------------------------------+



                         +--------------------------------+
                         ! Auxiliary-basis MP2-R12 method !
                         +--------------------------------+


 SECOND-ORDER R12/A   PAIR ENERGIES:

   1   -0.012761707   -0.016034155    0.000000000   -0.000000000    0.716298E-01    0.850896E-01
   2   -0.009413586   -0.011521152   -0.004091875   -0.004377140    0.746066E-01    0.878610E-01
   3   -0.015621460   -0.017539187    0.000000000   -0.000000000    0.762964E-01    0.920939E-01
   4   -0.014795911   -0.017206733   -0.010896549   -0.011386972    0.746980E-01    0.879433E-01
   5   -0.009708268   -0.010706977   -0.021620532   -0.022115273    0.763440E-01    0.922257E-01
   6   -0.028626667   -0.030636141    0.000000000   -0.000000000    0.763923E-01    0.923592E-01
   7   -0.014795911   -0.017206733   -0.010896549   -0.011386972    0.746980E-01    0.879433E-01
   8   -0.009708268   -0.010706977   -0.021620532   -0.022115273    0.763440E-01    0.922257E-01
   9   -0.020659363   -0.022186706   -0.038718532   -0.039426853    0.763923E-01    0.923592E-01
  10   -0.028626667   -0.030636141    0.000000000   -0.000000000    0.763923E-01    0.923592E-01
  11   -0.004289503   -0.004845640   -0.004710716   -0.004943686    0.739884E-01    0.873000E-01
  12   -0.022531300   -0.025395949   -0.003850627   -0.003990135    0.759750E-01    0.912058E-01
  13   -0.011473727   -0.012562815   -0.013661162   -0.014052063    0.760186E-01    0.913262E-01
  14   -0.011473727   -0.012562815   -0.013661162   -0.014052063    0.760186E-01    0.913262E-01
  15   -0.015582469   -0.017015740    0.000000000   -0.000000000    0.756794E-01    0.903924E-01

       -0.230068532   -0.256763861   -0.143728236   -0.147846430

              MP2-R12/A   correlation energy =   -0.404610291

 SECOND-ORDER R12/B   PAIR ENERGIES:

   1   -0.012761707   -0.015476881    0.000000000   -0.000000000    0.155976        0.179112    
   2   -0.009413586   -0.011205333   -0.004091875   -0.004327015    0.137960        0.158172    
   3   -0.015621460   -0.017158997    0.000000000   -0.000000000    0.118446        0.137223    
   4   -0.014795911   -0.016758571   -0.010896549   -0.011271752    0.137503        0.157660    
   5   -0.009708268   -0.010373752   -0.021620532   -0.021953223    0.117946        0.136712    
   6   -0.028626667   -0.030055223    0.000000000   -0.000000000    0.117445        0.136200    
   7   -0.014795911   -0.016758571   -0.010896549   -0.011271752    0.137503        0.157660    
   8   -0.009708268   -0.010373752   -0.021620532   -0.021953223    0.117946        0.136712    
   9   -0.020659363   -0.021604214   -0.038718532   -0.039154665    0.117445        0.136200    
  10   -0.028626667   -0.030055223    0.000000000   -0.000000000    0.117445        0.136200    
  11   -0.004289503   -0.004776795   -0.004710716   -0.004896244    0.141182        0.161810    
  12   -0.022531300   -0.024946399   -0.003850627   -0.003965946    0.121959        0.140854    
  13   -0.011473727   -0.012253075   -0.013661162   -0.013918696    0.121467        0.140342    
  14   -0.011473727   -0.012253075   -0.013661162   -0.013918696    0.121467        0.140342    
  15   -0.015582469   -0.016783097    0.000000000   -0.000000000    0.125417        0.144488    

       -0.230068532   -0.250832959   -0.143728236   -0.146631212

              MP2-R12/B   correlation energy =   -0.397464171


          +-------------------------------------------------------------+
          ! MP2-R12 ansatz := (1 - V1*V2) * (1 - O1 - O2 + O1*O2) * R12 !
          +-------------------------------------------------------------+



                         +--------------------------------+
                         ! Auxiliary-basis MP2-R12 method !
                         +--------------------------------+


 SECOND-ORDER R12/B   PAIR ENERGIES:

   1   -0.012761707   -0.015476881    0.000000000   -0.000000000     4.94354         5.55332    
   2   -0.009413586   -0.011205333   -0.004091875   -0.004327015     4.10254         4.71825    
   3   -0.015621460   -0.017158997    0.000000000   -0.000000000     3.26610         3.88910    
   4   -0.014795911   -0.016758571   -0.010896549   -0.011271752     4.08201         4.69787    
   5   -0.009708268   -0.010373752   -0.021620532   -0.021953223     3.24577         3.86897    
   6   -0.028626667   -0.030055223    0.000000000   -0.000000000     3.22545         3.84886    
   7   -0.014795911   -0.016758571   -0.010896549   -0.011271752     4.08201         4.69787    
   8   -0.009708268   -0.010373752   -0.021620532   -0.021953223     3.24577         3.86897    
   9   -0.020659363   -0.021604214   -0.038718532   -0.039154665     3.22545         3.84886    
  10   -0.028626667   -0.030055223    0.000000000   -0.000000000     3.22545         3.84886    
  11   -0.004289503   -0.004776795   -0.004710716   -0.004896244     4.24832         4.86292    
  12   -0.022531300   -0.024946399   -0.003850627   -0.003965946     3.41063         4.03221    
  13   -0.011473727   -0.012253075   -0.013661162   -0.013918696     3.39024         4.01202    
  14   -0.011473727   -0.012253075   -0.013661162   -0.013918696     3.39024         4.01202    
  15   -0.015582469   -0.016783097    0.000000000   -0.000000000     3.55551         4.17575    

       -0.230068532   -0.250832959   -0.143728236   -0.146631212

              MP2-R12/B   correlation energy =   -0.397464171
 >>>  Time used in E(R12)     is   0.56 seconds
 Time for MP2-R12 part cpu :   35.692000000000000     
 Time for MP2-R12 part wall:   38.245000004768372     

 *******************************************************************

 Ground state energy is target 

 Ecorr =                      0.00000000000000000000

 *******************************************************************

 requested model not yet implemented
  

 *******************************************************************************
 *******************************************************************************
 *                                                                             *
 *                                                                             *
 *                   SUMMARY OF COUPLED CLUSTER CALCULATION                    *
 *                                                                             *
 *                                                                             *
 *******************************************************************************
 *******************************************************************************

  

 *******************************************************************************
 *******************************************************************************
 *                                                                             *
 *                                                                             *
 *                      END OF COUPLED CLUSTER CALCULATION                     *
 *                                                                             *
 *                                                                             *
 *******************************************************************************
 *******************************************************************************


 >>>> CPU and wall time for CC :      35.692      38.246

 
     Date and time (Linux)  : Sun Sep  8 20:58:55 2013
     Host name              : lpqlx131.ups-tlse.fr                    


                      .-------------------------------------.
                      | End of Coupled Cluster Section (CC) |
                      `-------------------------------------'

 >>>> Total CPU  time used in DALTON:  39.15 seconds
 >>>> Total wall time used in DALTON:  42.13 seconds

 
     Date and time (Linux)  : Sun Sep  8 20:58:55 2013
     Host name              : lpqlx131.ups-tlse.fr                    
