

     ************************************************************************
     *************** Dalton - An Electronic Structure Program ***************
     ************************************************************************

    This is output from DALTON (Release Dalton2013 patch 0)
   ----------------------------------------------------------------------------
    NOTE:
     
    Dalton is an experimental code for the evaluation of molecular
    properties using (MC)SCF, DFT, CI, and CC wave functions.
    The authors accept no responsibility for the performance of
    the code or for the correctness of the results.
     
    The code (in whole or part) is provided under a licence and
    is not to be reproduced for further distribution without
    the written permission of the authors or their representatives.
     
    See the home page "http://daltonprogram.org" for further information.
     
    If results obtained with this code are published,
    the appropriate citations would be both of:
     
       K. Aidas, C. Angeli, K. L. Bak, V. Bakken, R. Bast,
       L. Boman, O. Christiansen, R. Cimiraglia, S. Coriani,
       P. Dahle, E. K. Dalskov, U. Ekstroem, T. Enevoldsen,
       J. J. Eriksen, P. Ettenhuber, B. Fernandez, L. Ferrighi,
       H. Fliegl, L. Frediani, K. Hald, A. Halkier, C. Haettig,
       H. Heiberg, T. Helgaker, A. C. Hennum, H. Hettema,
       E. Hjertenaes, S. Hoest, I.-M. Hoeyvik, M. F. Iozzi,
       B. Jansik, H. J. Aa. Jensen, D. Jonsson, P. Joergensen,
       J. Kauczor, S. Kirpekar, T. Kjaergaard, W. Klopper,
       S. Knecht, R. Kobayashi, H. Koch, J. Kongsted, A. Krapp,
       K. Kristensen, A. Ligabue, O. B. Lutnaes, J. I. Melo,
       K. V. Mikkelsen, R. H. Myhre, C. Neiss, C. B. Nielsen,
       P. Norman, J. Olsen, J. M. H. Olsen, A. Osted,
       M. J. Packer, F. Pawlowski, T. B. Pedersen, P. F. Provasi,
       S. Reine, Z. Rinkevicius, T. A. Ruden, K. Ruud, V. Rybkin,
       P. Salek, C. C. M. Samson, A. Sanchez de Meras, T. Saue,
       S. P. A. Sauer, B. Schimmelpfennig, K. Sneskov,
       A. H. Steindal, K. O. Sylvester-Hvid, P. R. Taylor,
       A. M. Teale, E. I. Tellgren, D. P. Tew, A. J. Thorvaldsen,
       L. Thoegersen, O. Vahtras, M. A. Watson, D. J. D. Wilson,
       M. Ziolkowski and H. Aagren.
       The Dalton quantum chemistry program system.
       WIREs Comput. Mol. Sci. 2013. doi: 10.1002/wcms.1172
    
    and
    
       Dalton, a Molecular Electronic Structure Program,
       Release DALTON2013.0 (2013), see http://daltonprogram.org
   ----------------------------------------------------------------------------

    Authors in alphabetical order (major contribution(s) in parenthesis):

  Kestutis Aidas,           Vilnius University,           Lithuania   (QM/MM)
  Celestino Angeli,         University of Ferrara,        Italy       (NEVPT2)
  Keld L. Bak,              UNI-C,                        Denmark     (AOSOPPA, non-adiabatic coupling, magnetic properties)
  Vebjoern Bakken,          University of Oslo,           Norway      (DALTON; geometry optimizer, symmetry detection)
  Radovan Bast,             KTH Stockholm                 Sweden      (DALTON installation and execution frameworks)
  Linus Boman,              NTNU,                         Norway      (Cholesky decomposition and subsystems)
  Ove Christiansen,         Aarhus University,            Denmark     (CC module)
  Renzo Cimiraglia,         University of Ferrara,        Italy       (NEVPT2)
  Sonia Coriani,            University of Trieste,        Italy       (CC module, MCD in RESPONS)
  Paal Dahle,               University of Oslo,           Norway      (Parallelization)
  Erik K. Dalskov,          UNI-C,                        Denmark     (SOPPA)
  Thomas Enevoldsen,        Univ. of Southern Denmark,    Denmark     (SOPPA)
  Janus J. Eriksen,         Aarhus University,            Denmark     (PE-MP2/SOPPA, TDA)
  Berta Fernandez,          U. of Santiago de Compostela, Spain       (doublet spin, ESR in RESPONS)
  Lara Ferrighi,            Aarhus University,            Denmark     (PCM Cubic response)
  Heike Fliegl,             University of Oslo,           Norway      (CCSD(R12))
  Luca Frediani,            UiT The Arctic U. of Norway,  Norway      (PCM)
  Bin Gao,                  UiT The Arctic U. of Norway,  Norway      (Gen1Int library)
  Christof Haettig,         Ruhr-University Bochum,       Germany     (CC module)
  Kasper Hald,              Aarhus University,            Denmark     (CC module)
  Asger Halkier,            Aarhus University,            Denmark     (CC module)
  Hanne Heiberg,            University of Oslo,           Norway      (geometry analysis, selected one-electron integrals)
  Trygve Helgaker,          University of Oslo,           Norway      (DALTON; ABACUS, ERI, DFT modules, London, and much more)
  Alf Christian Hennum,     University of Oslo,           Norway      (Parity violation)
  Hinne Hettema,            University of Auckland,       New Zealand (quadratic response in RESPONS; SIRIUS supersymmetry)
  Eirik Hjertenaes,         NTNU,                         Norway      (Cholesky decomposition)
  Maria Francesca Iozzi,    University of Oslo,           Norway      (RPA)
  Brano Jansik              Technical Univ. of Ostrava    Czech Rep.  (DFT cubic response)
  Hans Joergen Aa. Jensen,  Univ. of Southern Denmark,    Denmark     (DALTON; SIRIUS, RESPONS, ABACUS modules, London, and much more)
  Dan Jonsson,              UiT The Arctic U. of Norway,  Norway      (cubic response in RESPONS module)
  Poul Joergensen,          Aarhus University,            Denmark     (RESPONS, ABACUS, and CC modules)
  Joanna Kauczor,           Linkoeping University,        Sweden      (Complex polarization propagator (CPP) module)
  Sheela Kirpekar,          Univ. of Southern Denmark,    Denmark     (Mass-velocity & Darwin integrals)
  Wim Klopper,              KIT Karlsruhe,                Germany     (R12 code in CC, SIRIUS, and ABACUS modules)
  Stefan Knecht,            ETH Zurich,                   Switzerland (Parallel CI and MCSCF)
  Rika Kobayashi,           Australian National Univ.,    Australia   (DIIS in CC, London in MCSCF)
  Henrik Koch,              NTNU,                         Norway      (CC module, Cholesky decomposition)
  Jacob Kongsted,           Univ. of Southern Denmark,    Denmark     (Polarizable embedding, QM/MM)
  Andrea Ligabue,           University of Modena,         Italy       (CTOCD, AOSOPPA)
  Ola B. Lutnaes,           University of Oslo,           Norway      (DFT Hessian)
  Juan I. Melo,             University of Buenos Aires,   Argentina   (LRESC, Relativistic Effects on NMR Shieldings)
  Kurt V. Mikkelsen,        University of Copenhagen,     Denmark     (MC-SCRF and QM/MM)
  Rolf H. Myhre,            NTNU,                         Norway      (Cholesky, subsystems and ECC2)
  Christian Neiss,          Univ. Erlangen-Nuernberg,     Germany     (CCSD(R12))
  Christian B. Nielsen,     University of Copenhagen,     Denmark     (QM/MM)
  Patrick Norman,           Linkoeping University,        Sweden      (Cubic response and complex response in RESPONS)
  Jeppe Olsen,              Aarhus University,            Denmark     (SIRIUS CI/density modules)
  Jogvan Magnus H. Olsen,   Univ. of Southern Denmark,    Denmark     (Polarizable embedding, PE library, QM/MM)
  Anders Osted,             Copenhagen University,        Denmark     (QM/MM)
  Martin J. Packer,         University of Sheffield,      UK          (SOPPA)
  Filip Pawlowski,          Kazimierz Wielki University   Poland      (CC3)
  Thomas B. Pedersen,       University of Oslo,           Norway      (Cholesky decomposition)
  Patricio F. Provasi,      University of Northeastern,   Argentina   (Analysis of coupling constants in localized orbitals)
  Zilvinas Rinkevicius,     KTH Stockholm,                Sweden      (open-shell DFT, ESR)
  Elias Rudberg,            KTH Stockholm,                Sweden      (DFT grid and basis info)
  Torgeir A. Ruden,         University of Oslo,           Norway      (Numerical derivatives in ABACUS)
  Kenneth Ruud,             UiT The Arctic U. of Norway,  Norway      (DALTON; ABACUS magnetic properties and  much more)
  Pawel Salek,              KTH Stockholm,                Sweden      (DALTON; DFT code)
  Claire C. M. Samson       University of Karlsruhe       Germany     (Boys localization, r12 integrals in ERI)
  Alfredo Sanchez de Meras, University of Valencia,       Spain       (CC module, Cholesky decomposition)
  Trond Saue,               Paul Sabatier University,     France      (direct Fock matrix construction)
  Stephan P. A. Sauer,      University of Copenhagen,     Denmark     (SOPPA(CCSD), SOPPA prop., AOSOPPA, vibrational g-factors)
  Bernd Schimmelpfennig,    Forschungszentrum Karlsruhe,  Germany     (AMFI module)
  Kristian Sneskov,         Aarhus University,            Denmark     (QM/MM, PE-CC)
  Arnfinn H. Steindal,      UiT The Arctic U. of Norway,  Norway      (parallel QM/MM)
  K. O. Sylvester-Hvid,     University of Copenhagen,     Denmark     (MC-SCRF)
  Peter R. Taylor,          VLSCI/Univ. of Melbourne,     Australia   (Symmetry handling ABACUS, integral transformation)
  Andrew M. Teale,          University of Nottingham,     England     (DFT-AC, DFT-D)
  David P. Tew,             University of Bristol,        England     (CCSD(R12))
  Olav Vahtras,             KTH Stockholm,                Sweden      (triplet response, spin-orbit, ESR, TDDFT, open-shell DFT)
  David J. Wilson,          La Trobe University,          Australia   (DFT Hessian and DFT magnetizabilities)
  Hans Agren,               KTH Stockholm,                Sweden      (SIRIUS module, RESPONS, MC-SCRF solvation model)
 --------------------------------------------------------------------------------

     Date and time (Linux)  : Sun Sep  8 20:39:33 2013
     Host name              : lpqlx131.ups-tlse.fr                    

 * Work memory size             :    64000000 =  488.28 megabytes.

 * Directories for basis set searches:
   1) /home/bast/DALTON-2013.0-Source/build/test_rsp_abslrs
   2) /home/bast/DALTON-2013.0-Source/build/basis


Compilation information
-----------------------

 Who compiled             | bast
 Host                     | lpqlx131.ups-tlse.fr
 System                   | Linux-3.8.5-201.fc18.x86_64
 CMake generator          | Unix Makefiles
 Processor                | x86_64
 64-bit integers          | OFF
 MPI                      | OFF
 Fortran compiler         | /usr/bin/gfortran
 Fortran compiler version | GNU Fortran (GCC) 4.7.2 20121109 (Red Hat 4.7.2-8)
 C compiler               | /usr/bin/gcc
 C compiler version       | gcc (GCC) 4.7.2 20121109 (Red Hat 4.7.2-8)
 C++ compiler             | /usr/bin/g++
 C++ compiler version     | g++ (GCC) 4.7.2 20121109 (Red Hat 4.7.2-8)
 Static linking           | OFF
 Last Git revision        | f34203295a86316e27f9e7b44f9b6769c4a046c0
 Configuration time       | 2013-09-08 20:31:27.952056


   Content of the .dal input file
 ----------------------------------

**DALTON INPUT                                    
.RUN RESPONSE                                     
.DIRECT                                           
**INTEGRALS                                       
.DIPLEN                                           
**WAVE FUNCTION                                   
.HF                                               
**RESPONSE                                        
*ABSORP                                           
.ALPHA                                            
.DAMPING                                          
 0.004556                                         
.FREQ I                                           
0.4425 0.49 0.0025                                
.MAXRM                                            
 800                                              
.THCLR                                            
 1.0D-5                                           
**END OF DALTON INPUT                             


   Content of the .mol file
 ----------------------------

BASIS                                                                          
cc-pVDZ                                                                        
methan                                                                         
----------                                                                     
Atomtypes=2 Generators=0  Angstrom                                             
Charge=6.0 Atoms=1                                                             
C   -4.37078673  2.07865165  0.00000000                                        
Charge=1.0 Atoms=4                                                             
H   -4.01413230  1.06984165  0.00000000                                        
H   -4.01411389  2.58304984  0.87365150                                        
H   -4.01411389  2.58304984  -0.87365150                                       
H   -5.44078673  2.07866484  0.00000000                                        
FINISH                                                                         


       *******************************************************************
       *********** Output from DALTON general input processing ***********
       *******************************************************************

 --------------------------------------------------------------------------------
   Overall default print level:    0
   Print level for DALTON.STAT:    1

    AO-direct calculation (in sections where implemented)
    HERMIT 1- and 2-electron integral sections will be executed
    "Old" integral transformation used (limited to max 255 basis functions)
    Wave function sections will be executed (SIRIUS module)
    Dynamic molecular response properties section will be executed (RESPONSE module)
 --------------------------------------------------------------------------------


   ****************************************************************************
   *************** Output of molecule and basis set information ***************
   ****************************************************************************


    The two title cards from your ".mol" input:
    ------------------------------------------------------------------------
 1: methan                                                                  
 2: ----------                                                              
    ------------------------------------------------------------------------

  Coordinates are entered in Angstrom and converted to atomic units.
          - Conversion factor : 1 bohr = 0.52917721 A

  Atomic type no.    1
  --------------------
  Nuclear charge:   6.00000
  Number of symmetry independent centers:    1
  Number of basis sets to read;    2
  Basis set file used for this atomic type with Z =   6 :
     "/home/bast/DALTON-2013.0-Source/build/basis/cc-pVDZ"

  Atomic type no.    2
  --------------------
  Nuclear charge:   1.00000
  Number of symmetry independent centers:    4
  Number of basis sets to read;    2
  Basis set file used for this atomic type with Z =   1 :
     "/home/bast/DALTON-2013.0-Source/build/basis/cc-pVDZ"


                         SYMGRP: Point group information
                         -------------------------------

Point group: C1 


                                 Isotopic Masses
                                 ---------------

                           C          12.000000
                           H           1.007825
                           H           1.007825
                           H           1.007825
                           H           1.007825

                       Total mass:    16.031300 amu
                       Natural abundance:  98.841 %

 Center-of-mass coordinates (a.u.):   -8.259590    3.928082    0.000000


  Atoms and basis sets
  --------------------

  Number of atom types :    2
  Total number of atoms:    5

  Basis set used is "cc-pVDZ" from the basis set library.

  label    atoms   charge   prim   cont     basis
  ----------------------------------------------------------------------
  C           1    6.0000    26    14      [9s4p1d|3s2p1d]                                    
  H           4    1.0000     7     5      [4s1p|2s1p]                                        
  ----------------------------------------------------------------------
  total:      5   10.0000    54    34
  ----------------------------------------------------------------------
  Spherical harmonic basis used.

  Threshold for neglecting AO integrals:  1.00D-12


  Cartesian Coordinates (a.u.)
  ----------------------------

  Total number of coordinates:   15
  C       :     1  x  -8.2595898705    2  y   3.9280823278    3  z   0.0000000000
  H       :     4  x  -7.5856106765    5  y   2.0217077156    6  z   0.0000000000
  H       :     7  x  -7.5855758866    8  y   4.8812567648    9  z   1.6509620637
  H       :    10  x  -7.5855758866   11  y   4.8812567648   12  z  -1.6509620637
  H       :    13  x -10.2815968242   14  y   3.9281072533   15  z   0.0000000000


   Interatomic separations (in Angstrom):
   --------------------------------------

            C           H           H           H           H     
            ------      ------      ------      ------      ------
 C     :    0.000000
 H     :    1.070000    0.000000
 H     :    1.070000    1.747302    0.000000
 H     :    1.070000    1.747302    1.747303    0.000000
 H     :    1.070000    1.747303    1.747303    1.747303    0.000000


  Max    interatomic separation is    1.7473 Angstrom (    3.3019 Bohr)
  between atoms    4 and    3, "H     " and "H     ".

  Min HX interatomic separation is    1.0700 Angstrom (    2.0220 Bohr)


  Bond distances (Angstrom):
  --------------------------

                  atom 1     atom 2       distance
                  ------     ------       --------
  bond distance:  H          C            1.070000
  bond distance:  H          C            1.070000
  bond distance:  H          C            1.070000
  bond distance:  H          C            1.070000


  Bond angles (degrees):
  ----------------------

                  atom 1     atom 2     atom 3         angle
                  ------     ------     ------         -----
  bond angle:     H          C          H            109.471
  bond angle:     H          C          H            109.471
  bond angle:     H          C          H            109.471
  bond angle:     H          C          H            109.471
  bond angle:     H          C          H            109.471
  bond angle:     H          C          H            109.471




 Principal moments of inertia (u*A**2) and principal axes
 --------------------------------------------------------

   IA       3.076956          0.000000    0.000000    1.000000
   IB       3.076957          0.914814   -0.403876    0.000000
   IC       3.076958          0.403876    0.914814    0.000000


 Rotational constants
 --------------------

               A                   B                   C

         164246.4015         164246.3854         164246.3273 MHz
            5.478670            5.478670            5.478668 cm-1


@  Nuclear repulsion energy :   13.686518047446 Hartree


                     .---------------------------------------.
                     | Starting in Integral Section (HERMIT) |
                     `---------------------------------------'



    *************************************************************************
    ****************** Output from HERMIT input processing ******************
    *************************************************************************


 Default print level:        1

 * Nuclear model: Point charge

 Calculation of one-electron Hamiltonian integrals.

 The following one-electron property integrals are calculated as requested:
          - overlap integrals
          - dipole length integrals

 Center of mass  (bohr):     -8.259589857388      3.928082276682      0.000000000000
 Operator center (bohr):      0.000000000000      0.000000000000      0.000000000000
 Gauge origin    (bohr):      0.000000000000      0.000000000000      0.000000000000
 Dipole origin   (bohr):      0.000000000000      0.000000000000      0.000000000000


     ************************************************************************
     ************************** Output from HERINT **************************
     ************************************************************************

 >>>> Total CPU  time used in HERMIT:   0.02 seconds
 >>>> Total wall time used in HERMIT:   0.02 seconds


                        .----------------------------------.
                        | End of Integral Section (HERMIT) |
                        `----------------------------------'



                   .--------------------------------------------.
                   | Starting in Wave Function Section (SIRIUS) |
                   `--------------------------------------------'


 *** Output from Huckel module :

     Using EWMO model:          T
     Using EHT  model:          F
     Number of Huckel orbitals each symmetry:    9

 EWMO - Energy Weighted Maximum Overlap - is a Huckel type method,
        which normally is better than Extended Huckel Theory.
 Reference: Linderberg and Ohrn, Propagators in Quantum Chemistry (Wiley, 1973)

 Huckel EWMO eigenvalues for symmetry :  1
          -11.351867      -1.467870      -0.659758      -0.659758      -0.659758
           -0.119406      -0.117594      -0.117594      -0.117594

 **********************************************************************
 *SIRIUS* a direct, restricted step, second order MCSCF program       *
 **********************************************************************

 
     Date and time (Linux)  : Sun Sep  8 20:39:33 2013
     Host name              : lpqlx131.ups-tlse.fr                    

 Title lines from ".mol" input file:
     methan                                                                  
     ----------                                                              

 Print level on unit LUPRI =   2 is   0
 Print level on unit LUW4  =   2 is   5

@    Restricted, closed shell Hartree-Fock calculation.

@    Time-dependent Hartree-Fock calculation (random phase approximation).
 Fock matrices are calculated directly without use of integrals on disk.

 Initial molecular orbitals are obtained according to
 ".MOSTART EWMO  " input option

     Wave function specification
     ============================
@    For the wave function of type :      >>> HF <<<
@    Number of closed shell electrons          10
@    Number of electrons in active shells       0
@    Total charge of the molecule               0

@    Spin multiplicity and 2 M_S                1         0
     Total number of symmetries                 1
@    Reference state symmetry                   1

     Orbital specifications
     ======================
     Abelian symmetry species          All |    1
                                       --- |  ---
@    Occupied SCF orbitals               5 |    5
     Secondary orbitals                 29 |   29
     Total number of orbitals           34 |   34
     Number of basis functions          34 |   34

     Optimization information
     ========================
@    Number of configurations                 1
@    Number of orbital rotations            145
     ------------------------------------------
@    Total number of variables              146

     Maximum number of Fock   iterations      0
     Maximum number of DIIS   iterations     60
     Maximum number of QC-SCF iterations     60
     Threshold for SCF convergence     1.00D-05


 >>>>> DIIS optimization of Hartree-Fock <<<<<

 C1-DIIS algorithm; max error vectors =   10

 Iter      Total energy        Error norm    Delta(E)  DIIS dim.
 -----------------------------------------------------------------------------
   1  Screening settings (-IFTHRS, DIFDEN)   -7    T
@  1    -39.9852043355        1.60737D+00   -4.00D+01    1
      Virial theorem: -V/T =      2.035537
@      MULPOP C       0.36; H      -0.09; H      -0.09; H      -0.09; H      -0.09; 
 -----------------------------------------------------------------------------
   2  Screening settings (-IFTHRS, DIFDEN)   -7    T
@  2    -40.1677309633        6.94852D-01   -1.83D-01    2
      Virial theorem: -V/T =      1.986003
@      MULPOP C      -0.41; H       0.10; H       0.10; H       0.10; H       0.10; 
 -----------------------------------------------------------------------------
   3  Screening settings (-IFTHRS, DIFDEN)   -7    T
@  3    -40.1966239528        8.45993D-02   -2.89D-02    3
      Virial theorem: -V/T =      2.001577
@      MULPOP C      -0.12; H       0.03; H       0.03; H       0.03; H       0.03; 
 -----------------------------------------------------------------------------
   4  Screening settings (-IFTHRS, DIFDEN)  -11    F
@  4    -40.1974530260        1.70983D-02   -8.29D-04    4
      Virial theorem: -V/T =      1.999889
@      MULPOP C      -0.12; H       0.03; H       0.03; H       0.03; H       0.03; 
 -----------------------------------------------------------------------------
   5  Screening settings (-IFTHRS, DIFDEN)  -11    T
@  5    -40.1974873987        1.50689D-03   -3.44D-05    5
      Virial theorem: -V/T =      1.999482
@      MULPOP C      -0.12; H       0.03; H       0.03; H       0.03; H       0.03; 
 -----------------------------------------------------------------------------
   6  Screening settings (-IFTHRS, DIFDEN)  -11    T
@  6    -40.1974877748        1.58929D-04   -3.76D-07    6
      Virial theorem: -V/T =      1.999476
@      MULPOP C      -0.12; H       0.03; H       0.03; H       0.03; H       0.03; 
 -----------------------------------------------------------------------------
   7  Screening settings (-IFTHRS, DIFDEN)  -11    T
@  7    -40.1974877777        8.51245D-06   -2.88D-09    7

@ *** DIIS converged in   7 iterations !
@     Converged SCF energy, gradient:    -40.197487777683    8.51D-06
    - total time used in SIRFCK :              0.00 seconds


 *** SCF orbital energy analysis ***

 Only the five lowest virtual orbital energies printed in each symmetry.

 Number of electrons :   10
 Orbital occupations :    5

 Sym       Hartree-Fock orbital energies

  1    -11.20694064    -0.95042370    -0.54763041    -0.54763037    -0.54763026
         0.19541857     0.27705723     0.27705723     0.27705723     0.58836193

    E(LUMO) :     0.19541857 au (symmetry 1)
  - E(HOMO) :    -0.54763026 au (symmetry 1)
  ------------------------------------------
    gap     :     0.74304883 au

 >>> Writing SIRIFC interface file <<<

 >>>> CPU and wall time for SCF :       0.716       0.721


                       .-----------------------------------.
                       | >>> Final results from SIRIUS <<< |
                       `-----------------------------------'


@    Spin multiplicity:           1
@    Spatial symmetry:            1
@    Total charge of molecule:    0

@    Final HF energy:             -40.197487777683                 
@    Nuclear repulsion:            13.686518047446
@    Electronic energy:           -53.884005825129

@    Final gradient norm:           0.000008512448

 
     Date and time (Linux)  : Sun Sep  8 20:39:34 2013
     Host name              : lpqlx131.ups-tlse.fr                    

 (Only coefficients >0.0100 are printed.)

 Molecular orbitals for symmetry species  1
 ------------------------------------------

    Orbital         1        2        3        4        5        6        7
   1 C   :1s     1.0018  -0.0326  -0.0000  -0.0000   0.0000  -0.0976  -0.0000
   2 C   :1s     0.0102   0.7279  -0.0000   0.0000  -0.0000   0.1393  -0.0000
   3 C   :1s    -0.0113  -0.2002   0.0000   0.0000  -0.0000   2.3271  -0.0000
   4 C   :2px    0.0000   0.0000   0.0000  -0.5830  -0.2567   0.0000   0.0000
   5 C   :2py   -0.0000  -0.0000  -0.0000   0.2567  -0.5830  -0.0000  -0.0000
   6 C   :2pz   -0.0000  -0.0000   0.6370   0.0000  -0.0000  -0.0000  -0.4404
   7 C   :2px   -0.0000  -0.0000  -0.0000   0.0962   0.0423   0.0000   0.0000
   8 C   :2py    0.0000   0.0000   0.0000  -0.0423   0.0962  -0.0000  -0.0000
   9 C   :2pz   -0.0000   0.0000  -0.1051  -0.0000   0.0000  -0.0000  -1.2288
  10 C   :3d2-  -0.0000   0.0000  -0.0000   0.0064  -0.0144  -0.0000  -0.0000
  11 C   :3d1-  -0.0000  -0.0000   0.0223   0.0000  -0.0000  -0.0000  -0.0199
  12 C   :3d0    0.0000  -0.0000   0.0000  -0.0047  -0.0232   0.0000   0.0000
  13 C   :3d1+  -0.0000  -0.0000   0.0158   0.0000  -0.0000  -0.0000  -0.0140
  14 C   :3d2+   0.0000  -0.0000  -0.0000   0.0262  -0.0007   0.0000  -0.0000
  15 H   :1s    -0.0000   0.3215   0.0000  -0.4557   0.4847  -0.0131  -0.0000
  16 H   :1s     0.0013  -0.1323  -0.0000   0.1190  -0.1266  -0.8543  -0.0000
  17 H   :2px    0.0002  -0.0089   0.0000  -0.0041  -0.0142   0.0048   0.0000
  18 H   :2py   -0.0004   0.0253   0.0000  -0.0178   0.0124  -0.0137  -0.0000
  19 H   :2pz    0.0000  -0.0000   0.0135   0.0000  -0.0000   0.0000   0.0008
  20 H   :1s    -0.0000   0.3215   0.5432  -0.0766  -0.3764  -0.0131   0.0612
  21 H   :1s     0.0013  -0.1323  -0.1419   0.0200   0.0983  -0.8543   1.8801
  22 H   :2px    0.0002  -0.0089  -0.0098  -0.0110   0.0013   0.0049  -0.0089
  23 H   :2py    0.0002  -0.0126  -0.0139   0.0074  -0.0028   0.0069  -0.0126
  24 H   :2pz    0.0004  -0.0219  -0.0105   0.0034   0.0166   0.0119  -0.0211
  25 H   :1s    -0.0000   0.3215  -0.5432  -0.0766  -0.3764  -0.0131  -0.0612
  26 H   :1s     0.0013  -0.1323   0.1419   0.0200   0.0983  -0.8543  -1.8802
  27 H   :2px    0.0002  -0.0089   0.0098  -0.0110   0.0013   0.0049   0.0089
  28 H   :2py    0.0002  -0.0126   0.0139   0.0074  -0.0028   0.0069   0.0126
  29 H   :2pz   -0.0004   0.0219  -0.0105  -0.0034  -0.0166  -0.0119  -0.0211
  30 H   :1s    -0.0000   0.3215  -0.0000   0.6089   0.2680  -0.0131   0.0000
  31 H   :1s     0.0013  -0.1323   0.0000  -0.1591  -0.0700  -0.8543   0.0000
  32 H   :2px   -0.0005   0.0268  -0.0000   0.0206   0.0091  -0.0145   0.0000
  33 H   :2py    0.0000  -0.0000  -0.0000   0.0054  -0.0124   0.0000   0.0000
  34 H   :2pz    0.0000  -0.0000   0.0135   0.0000  -0.0000   0.0000   0.0008



 >>>> Total CPU  time used in SIRIUS :      0.72 seconds
 >>>> Total wall time used in SIRIUS :      0.73 seconds

 
     Date and time (Linux)  : Sun Sep  8 20:39:34 2013
     Host name              : lpqlx131.ups-tlse.fr                    


                     .---------------------------------------.
                     | End of Wave Function Section (SIRIUS) |
                     `---------------------------------------'



                 .------------------------------------------------.
                 | Starting in Dynamic Property Section (RESPONS) |
                 `------------------------------------------------'


 ------------------------------------------------------------------------------
  RESPONSE  -  an MCSCF, MC-srDFT, DFT, and SOPPA response property program
 ------------------------------------------------------------------------------


 <<<<<<<<<< OUTPUT FROM RESPONSE INPUT PROCESSING >>>>>>>>>>




                  +----------------------------------------------+
                  ! Variable settings for absorption calculation !
                  +----------------------------------------------+

 Linear polarizability calculation requested:                         ABSLRS_ALPHA =   T
 Absorption calc over frequency interval  :                           ABSLRS_INTERVAL =   T
 Number of frequencies              : ABS_NFREQ_INTERVAL=   0
 Start: 0.44250Stop: 0.49000   Step: 0.00250
 Damping parameter (a.u. and cm-1)        : ABS_DAMP     = 0.004556   999.9
 Threshold of convergence in LR solver    : THCLR        = 1.0D-05
 Maximum iterations in complex LR solver  : MAXIT     = 150
 Print level in absorption modules        : IPRABSLRS    =   0


   SCF energy         :      -40.197487777682866
 -- inactive part     :      -53.884005825129080
 -- nuclear repulsion :       13.686518047446212


                     ***************************************
                     *** RHF response calculation (TDHF) ***
                     ***************************************



                       +-----------------------------------+
                       ! Solving Linear Response Equations !
                       +-----------------------------------+



 Perturbation symmetry.     KSYMOP:       1
 Perturbation spin symmetry.TRPLET:       F
 Orbital variables.         KZWOPT:     145
 Configuration variables.   KZCONF:       0
 Total number of variables. KZVAR :     145

 ABSLRS -- Solving linear response equations( E[2] - {w-iW}*S[2] ) N = B[1]  
 ABSLRS -- for operator XDIPLEN  of symmetry 1 at frequencies:
 ABSLRS --  0.44250000  0.44500000  0.44750000  0.45000000
             0.45250000  0.45500000  0.45750000  0.46000000
             0.46250000  0.46500000  0.46750000  0.47000000
             0.47250000  0.47500000  0.47750000  0.48000000
             0.48250000  0.48500000  0.48750000  0.49000000

ITER, IVEC:   1   1  XDIPLEN   0.4425   RESID, RESID/X:  0.7118504D+00  0.7064832D+00
ITER, IVEC:   1   2  XDIPLEN   0.4450   RESID, RESID/X:  0.7540403D+00  0.7225698D+00
ITER, IVEC:   1   3  XDIPLEN   0.4475   RESID, RESID/X:  0.8025891D+00  0.7404897D+00
ITER, IVEC:   1   4  XDIPLEN   0.4500   RESID, RESID/X:  0.8590277D+00  0.7605824D+00
ITER, IVEC:   1   5  XDIPLEN   0.4525   RESID, RESID/X:  0.9254092D+00  0.7832788D+00
ITER, IVEC:   1   6  XDIPLEN   0.4550   RESID, RESID/X:  0.1004548D+01  0.8091354D+00
ITER, IVEC:   1   7  XDIPLEN   0.4575   RESID, RESID/X:  0.1100398D+01  0.8388851D+00
ITER, IVEC:   1   8  XDIPLEN   0.4600   RESID, RESID/X:  0.1218670D+01  0.8735150D+00
ITER, IVEC:   1   9  XDIPLEN   0.4625   RESID, RESID/X:  0.1367886D+01  0.9143906D+00
ITER, IVEC:   1  10  XDIPLEN   0.4650   RESID, RESID/X:  0.1561231D+01  0.9634639D+00
ITER, IVEC:   1  11  XDIPLEN   0.4675   RESID, RESID/X:  0.1819921D+01  0.1023640D+01
ITER, IVEC:   1  12  XDIPLEN   0.4700   RESID, RESID/X:  0.2179357D+01  0.1099472D+01
ITER, IVEC:   1  13  XDIPLEN   0.4725   RESID, RESID/X:  0.2699204D+01  0.1198588D+01
ITER, IVEC:   1  14  XDIPLEN   0.4750   RESID, RESID/X:  0.3468443D+01  0.1334997D+01
ITER, IVEC:   1  15  XDIPLEN   0.4775   RESID, RESID/X:  0.4512189D+01  0.1538026D+01
ITER, IVEC:   1  16  XDIPLEN   0.4800   RESID, RESID/X:  0.5269382D+01  0.1872730D+01
ITER, IVEC:   1  17  XDIPLEN   0.4825   RESID, RESID/X:  0.4749003D+01  0.1596851D+01
ITER, IVEC:   1  18  XDIPLEN   0.4850   RESID, RESID/X:  0.3670134D+01  0.1363638D+01
ITER, IVEC:   1  19  XDIPLEN   0.4875   RESID, RESID/X:  0.2824254D+01  0.1210894D+01
ITER, IVEC:   1  20  XDIPLEN   0.4900   RESID, RESID/X:  0.2254380D+01  0.1102318D+01
ITER, IVEC:   2   1  XDIPLEN   0.4425   RESID, RESID/X:  0.9647055D-01  0.8520633D-01
ITER, IVEC:   2   2  XDIPLEN   0.4450   RESID, RESID/X:  0.1039161D+00  0.8783242D-01
ITER, IVEC:   2   3  XDIPLEN   0.4475   RESID, RESID/X:  0.1127023D+00  0.9076591D-01
ITER, IVEC:   2   4  XDIPLEN   0.4500   RESID, RESID/X:  0.1232283D+00  0.9407596D-01
ITER, IVEC:   2   5  XDIPLEN   0.4525   RESID, RESID/X:  0.1360651D+00  0.9785560D-01
ITER, IVEC:   2   6  XDIPLEN   0.4550   RESID, RESID/X:  0.1520554D+00  0.1022332D+00
ITER, IVEC:   2   7  XDIPLEN   0.4575   RESID, RESID/X:  0.1724872D+00  0.1073915D+00
ITER, IVEC:   2   8  XDIPLEN   0.4600   RESID, RESID/X:  0.1994063D+00  0.1136007D+00
ITER, IVEC:   2   9  XDIPLEN   0.4625   RESID, RESID/X:  0.2361874D+00  0.1212798D+00
ITER, IVEC:   2  10  XDIPLEN   0.4650   RESID, RESID/X:  0.2885137D+00  0.1311201D+00
ITER, IVEC:   2  11  XDIPLEN   0.4675   RESID, RESID/X:  0.3653613D+00  0.1443602D+00
ITER, IVEC:   2  12  XDIPLEN   0.4700   RESID, RESID/X:  0.4740808D+00  0.1634965D+00
ITER, IVEC:   2  13  XDIPLEN   0.4725   RESID, RESID/X:  0.5787278D+00  0.1944049D+00
ITER, IVEC:   2  14  XDIPLEN   0.4750   RESID, RESID/X:  0.5586493D+00  0.1852103D+00
ITER, IVEC:   2  15  XDIPLEN   0.4775   RESID, RESID/X:  0.4381583D+00  0.1542813D+00
ITER, IVEC:   2  16  XDIPLEN   0.4800   RESID, RESID/X:  0.3316001D+00  0.1343582D+00
ITER, IVEC:   2  17  XDIPLEN   0.4825   RESID, RESID/X:  0.2587934D+00  0.1202010D+00
ITER, IVEC:   2  18  XDIPLEN   0.4850   RESID, RESID/X:  0.2096931D+00  0.1095344D+00
ITER, IVEC:   2  19  XDIPLEN   0.4875   RESID, RESID/X:  0.1754914D+00  0.1012148D+00
ITER, IVEC:   2  20  XDIPLEN   0.4900   RESID, RESID/X:  0.1508619D+00  0.9461037D-01
ITER, IVEC:   3   1  XDIPLEN   0.4425   RESID, RESID/X:  0.1018528D-01  0.8986997D-02
ITER, IVEC:   3   2  XDIPLEN   0.4450   RESID, RESID/X:  0.1107560D-01  0.9351190D-02
ITER, IVEC:   3   3  XDIPLEN   0.4475   RESID, RESID/X:  0.1212742D-01  0.9755347D-02
ITER, IVEC:   3   4  XDIPLEN   0.4500   RESID, RESID/X:  0.1338883D-01  0.1020806D-01
ITER, IVEC:   3   5  XDIPLEN   0.4525   RESID, RESID/X:  0.1492864D-01  0.1072085D-01
ITER, IVEC:   3   6  XDIPLEN   0.4550   RESID, RESID/X:  0.1684849D-01  0.1130952D-01
ITER, IVEC:   3   7  XDIPLEN   0.4575   RESID, RESID/X:  0.1930393D-01  0.1199654D-01
ITER, IVEC:   3   8  XDIPLEN   0.4600   RESID, RESID/X:  0.2254246D-01  0.1281504D-01
ITER, IVEC:   3   9  XDIPLEN   0.4625   RESID, RESID/X:  0.2697330D-01  0.1381631D-01
ITER, IVEC:   3  10  XDIPLEN   0.4650   RESID, RESID/X:  0.3328794D-01  0.1508492D-01
ITER, IVEC:   3  11  XDIPLEN   0.4675   RESID, RESID/X:  0.4258331D-01  0.1677252D-01
ITER, IVEC:   3  12  XDIPLEN   0.4700   RESID, RESID/X:  0.5576488D-01  0.1918520D-01
ITER, IVEC:   3  13  XDIPLEN   0.4725   RESID, RESID/X:  0.6846826D-01  0.2304506D-01
ITER, IVEC:   3  14  XDIPLEN   0.4750   RESID, RESID/X:  0.6627108D-01  0.2194907D-01
ITER, IVEC:   3  15  XDIPLEN   0.4775   RESID, RESID/X:  0.5226579D-01  0.1844807D-01
ITER, IVEC:   3  16  XDIPLEN   0.4800   RESID, RESID/X:  0.3984105D-01  0.1618804D-01
ITER, IVEC:   3  17  XDIPLEN   0.4825   RESID, RESID/X:  0.3129734D-01  0.1457233D-01
ITER, IVEC:   3  18  XDIPLEN   0.4850   RESID, RESID/X:  0.2548585D-01  0.1334007D-01
ITER, IVEC:   3  19  XDIPLEN   0.4875   RESID, RESID/X:  0.2139158D-01  0.1235875D-01
ITER, IVEC:   3  20  XDIPLEN   0.4900   RESID, RESID/X:  0.1839697D-01  0.1155387D-01
ITER, IVEC:   4   1  XDIPLEN   0.4425   RESID, RESID/X:  0.6099314D-03  0.5381711D-03
ITER, IVEC:   4   2  XDIPLEN   0.4450   RESID, RESID/X:  0.6659982D-03  0.5623032D-03
ITER, IVEC:   4   3  XDIPLEN   0.4475   RESID, RESID/X:  0.7323378D-03  0.5890923D-03
ITER, IVEC:   4   4  XDIPLEN   0.4500   RESID, RESID/X:  0.8120176D-03  0.6191040D-03
ITER, IVEC:   4   5  XDIPLEN   0.4525   RESID, RESID/X:  0.9094298D-03  0.6530933D-03
ITER, IVEC:   4   6  XDIPLEN   0.4550   RESID, RESID/X:  0.1031065D-02  0.6920955D-03
ITER, IVEC:   4   7  XDIPLEN   0.4575   RESID, RESID/X:  0.1186862D-02  0.7375761D-03
ITER, IVEC:   4   8  XDIPLEN   0.4600   RESID, RESID/X:  0.1392650D-02  0.7916920D-03
ITER, IVEC:   4   9  XDIPLEN   0.4625   RESID, RESID/X:  0.1674635D-02  0.8577749D-03
ITER, IVEC:   4  10  XDIPLEN   0.4650   RESID, RESID/X:  0.2077209D-02  0.9413057D-03
ITER, IVEC:   4  11  XDIPLEN   0.4675   RESID, RESID/X:  0.2671170D-02  0.1052093D-02
ITER, IVEC:   4  12  XDIPLEN   0.4700   RESID, RESID/X:  0.3516829D-02  0.1209907D-02
ITER, IVEC:   4  13  XDIPLEN   0.4725   RESID, RESID/X:  0.4341693D-02  0.1461341D-02
ITER, IVEC:   4  14  XDIPLEN   0.4750   RESID, RESID/X:  0.4225886D-02  0.1399613D-02
ITER, IVEC:   4  15  XDIPLEN   0.4775   RESID, RESID/X:  0.3351807D-02  0.1183088D-02
ITER, IVEC:   4  16  XDIPLEN   0.4800   RESID, RESID/X:  0.2569697D-02  0.1044121D-02
ITER, IVEC:   4  17  XDIPLEN   0.4825   RESID, RESID/X:  0.2030186D-02  0.9452836D-03
ITER, IVEC:   4  18  XDIPLEN   0.4850   RESID, RESID/X:  0.1662447D-02  0.8701837D-03
ITER, IVEC:   4  19  XDIPLEN   0.4875   RESID, RESID/X:  0.1402790D-02  0.8104528D-03
ITER, IVEC:   4  20  XDIPLEN   0.4900   RESID, RESID/X:  0.1212250D-02  0.7613355D-03
ITER, IVEC:   5   1  XDIPLEN   0.4425   RESID, RESID/X:  0.2053205D-04  0.1811639D-04
ITER, IVEC:   5   2  XDIPLEN   0.4450   RESID, RESID/X:  0.2239683D-04  0.1890968D-04
ITER, IVEC:   5   3  XDIPLEN   0.4475   RESID, RESID/X:  0.2460144D-04  0.1978939D-04
ITER, IVEC:   5   4  XDIPLEN   0.4500   RESID, RESID/X:  0.2724722D-04  0.2077401D-04
ITER, IVEC:   5   5  XDIPLEN   0.4525   RESID, RESID/X:  0.3047926D-04  0.2188822D-04
ITER, IVEC:   5   6  XDIPLEN   0.4550   RESID, RESID/X:  0.3451196D-04  0.2316592D-04
ITER, IVEC:   5   7  XDIPLEN   0.4575   RESID, RESID/X:  0.3967351D-04  0.2465512D-04
ITER, IVEC:   5   8  XDIPLEN   0.4600   RESID, RESID/X:  0.4648640D-04  0.2642653D-04
ITER, IVEC:   5   9  XDIPLEN   0.4625   RESID, RESID/X:  0.5581529D-04  0.2858948D-04
ITER, IVEC:   5  10  XDIPLEN   0.4650   RESID, RESID/X:  0.6912350D-04  0.3132393D-04
ITER, IVEC:   5  11  XDIPLEN   0.4675   RESID, RESID/X:  0.8874043D-04  0.3495217D-04
ITER, IVEC:   5  12  XDIPLEN   0.4700   RESID, RESID/X:  0.1166287D-03  0.4012418D-04
ITER, IVEC:   5  13  XDIPLEN   0.4725   RESID, RESID/X:  0.1437160D-03  0.4837241D-04
ITER, IVEC:   5  14  XDIPLEN   0.4750   RESID, RESID/X:  0.1396086D-03  0.4623835D-04
ITER, IVEC:   5  15  XDIPLEN   0.4775   RESID, RESID/X:  0.1105036D-03  0.3900450D-04
ITER, IVEC:   5  16  XDIPLEN   0.4800   RESID, RESID/X:  0.8453522D-04  0.3434842D-04
ITER, IVEC:   5  17  XDIPLEN   0.4825   RESID, RESID/X:  0.6663574D-04  0.3102655D-04
ITER, IVEC:   5  18  XDIPLEN   0.4850   RESID, RESID/X:  0.5443743D-04  0.2849448D-04
ITER, IVEC:   5  19  XDIPLEN   0.4875   RESID, RESID/X:  0.4582417D-04  0.2647461D-04
ITER, IVEC:   5  20  XDIPLEN   0.4900   RESID, RESID/X:  0.3950389D-04  0.2480982D-04
ITER, IVEC:   6   1  XDIPLEN   0.4425   RESID, RESID/X:  0.8466498D-07  0.7470389D-07
ITER, IVEC:   6   2  XDIPLEN   0.4450   RESID, RESID/X:  0.9586215D-07  0.8093655D-07
ITER, IVEC:   6   3  XDIPLEN   0.4475   RESID, RESID/X:  0.1098593D-06  0.8837076D-07
ITER, IVEC:   6   4  XDIPLEN   0.4500   RESID, RESID/X:  0.1280016D-06  0.9759189D-07
ITER, IVEC:   6   5  XDIPLEN   0.4525   RESID, RESID/X:  0.1526397D-06  0.1096159D-06
ITER, IVEC:   6   6  XDIPLEN   0.4550   RESID, RESID/X:  0.1880940D-06  0.1262569D-06
ITER, IVEC:   6   7  XDIPLEN   0.4575   RESID, RESID/X:  0.2427061D-06  0.1508298D-06
ITER, IVEC:   6   8  XDIPLEN   0.4600   RESID, RESID/X:  0.3333829D-06  0.1895211D-06
ITER, IVEC:   6   9  XDIPLEN   0.4625   RESID, RESID/X:  0.4962555D-06  0.2541900D-06
ITER, IVEC:   6  10  XDIPLEN   0.4650   RESID, RESID/X:  0.8132423D-06  0.3685280D-06
ITER, IVEC:   6  11  XDIPLEN   0.4675   RESID, RESID/X:  0.1477623D-05  0.5819911D-06
ITER, IVEC:   6  12  XDIPLEN   0.4700   RESID, RESID/X:  0.2887327D-05  0.9933373D-06
ITER, IVEC:   6  13  XDIPLEN   0.4725   RESID, RESID/X:  0.5079323D-05  0.1709615D-05
ITER, IVEC:   6  14  XDIPLEN   0.4750   RESID, RESID/X:  0.5642925D-05  0.1868937D-05
ITER, IVEC:   6  15  XDIPLEN   0.4775   RESID, RESID/X:  0.4141589D-05  0.1461858D-05
ITER, IVEC:   6  16  XDIPLEN   0.4800   RESID, RESID/X:  0.2823496D-05  0.1147245D-05
ITER, IVEC:   6  17  XDIPLEN   0.4825   RESID, RESID/X:  0.2040466D-05  0.9500702D-06
ITER, IVEC:   6  18  XDIPLEN   0.4850   RESID, RESID/X:  0.1582420D-05  0.8282947D-06
ITER, IVEC:   6  19  XDIPLEN   0.4875   RESID, RESID/X:  0.1301554D-05  0.7519640D-06
ITER, IVEC:   6  20  XDIPLEN   0.4900   RESID, RESID/X:  0.1121316D-05  0.7042254D-06

 *** ABSCTL: REQUESTED  20 SOLUTION VECTORS CONVERGED IN RED SPACES OF  31  36

 ABSLRS -- Solving linear response equations( E[2] - {w-iW}*S[2] ) N = B[1]  
 ABSLRS -- for operator YDIPLEN  of symmetry 1 at frequencies:
 ABSLRS --  0.44250000  0.44500000  0.44750000  0.45000000
             0.45250000  0.45500000  0.45750000  0.46000000
             0.46250000  0.46500000  0.46750000  0.47000000
             0.47250000  0.47500000  0.47750000  0.48000000
             0.48250000  0.48500000  0.48750000  0.49000000

 Use ABS_READIN_RED           31          36
ITER, IVEC:   1   1  YDIPLEN   0.4425   RESID, RESID/X:  0.7520996D+00  0.6656156D+00
ITER, IVEC:   1   2  YDIPLEN   0.4450   RESID, RESID/X:  0.7536890D+00  0.6381723D+00
ITER, IVEC:   1   3  YDIPLEN   0.4475   RESID, RESID/X:  0.7554006D+00  0.6093362D+00
ITER, IVEC:   1   4  YDIPLEN   0.4500   RESID, RESID/X:  0.7572910D+00  0.5789674D+00
ITER, IVEC:   1   5  YDIPLEN   0.4525   RESID, RESID/X:  0.7594626D+00  0.5469216D+00
ITER, IVEC:   1   6  YDIPLEN   0.4550   RESID, RESID/X:  0.7621090D+00  0.5130669D+00
ITER, IVEC:   1   7  YDIPLEN   0.4575   RESID, RESID/X:  0.7656131D+00  0.4773276D+00
ITER, IVEC:   1   8  YDIPLEN   0.4600   RESID, RESID/X:  0.7707748D+00  0.4397878D+00
ITER, IVEC:   1   9  YDIPLEN   0.4625   RESID, RESID/X:  0.7793699D+00  0.4009517D+00
ITER, IVEC:   1  10  YDIPLEN   0.4650   RESID, RESID/X:  0.7955940D+00  0.3624178D+00
ITER, IVEC:   1  11  YDIPLEN   0.4675   RESID, RESID/X:  0.8296624D+00  0.3286873D+00
ITER, IVEC:   1  12  YDIPLEN   0.4700   RESID, RESID/X:  0.9029907D+00  0.3118753D+00
ITER, IVEC:   1  13  YDIPLEN   0.4725   RESID, RESID/X:  0.1022601D+01  0.3416973D+00
ITER, IVEC:   1  14  YDIPLEN   0.4750   RESID, RESID/X:  0.1082500D+01  0.3587171D+00
ITER, IVEC:   1  15  YDIPLEN   0.4775   RESID, RESID/X:  0.1037731D+01  0.3630307D+00
ITER, IVEC:   1  16  YDIPLEN   0.4800   RESID, RESID/X:  0.9833729D+00  0.3956545D+00
ITER, IVEC:   1  17  YDIPLEN   0.4825   RESID, RESID/X:  0.9484766D+00  0.4378380D+00
ITER, IVEC:   1  18  YDIPLEN   0.4850   RESID, RESID/X:  0.9288380D+00  0.4827833D+00
ITER, IVEC:   1  19  YDIPLEN   0.4875   RESID, RESID/X:  0.9188173D+00  0.5280001D+00
ITER, IVEC:   1  20  YDIPLEN   0.4900   RESID, RESID/X:  0.9149864D+00  0.5725779D+00
ITER, IVEC:   2   1  YDIPLEN   0.4425   RESID, RESID/X:  0.1711859D+00  0.1511385D+00
ITER, IVEC:   2   2  YDIPLEN   0.4450   RESID, RESID/X:  0.1726609D+00  0.1458679D+00
ITER, IVEC:   2   3  YDIPLEN   0.4475   RESID, RESID/X:  0.1743193D+00  0.1403102D+00
ITER, IVEC:   2   4  YDIPLEN   0.4500   RESID, RESID/X:  0.1762478D+00  0.1344628D+00
ITER, IVEC:   2   5  YDIPLEN   0.4525   RESID, RESID/X:  0.1785923D+00  0.1283403D+00
ITER, IVEC:   2   6  YDIPLEN   0.4550   RESID, RESID/X:  0.1816072D+00  0.1219915D+00
ITER, IVEC:   2   7  YDIPLEN   0.4575   RESID, RESID/X:  0.1857570D+00  0.1155315D+00
ITER, IVEC:   2   8  YDIPLEN   0.4600   RESID, RESID/X:  0.1919274D+00  0.1092059D+00
ITER, IVEC:   2   9  YDIPLEN   0.4625   RESID, RESID/X:  0.2018874D+00  0.1035190D+00
ITER, IVEC:   2  10  YDIPLEN   0.4650   RESID, RESID/X:  0.2192789D+00  0.9949034D-01
ITER, IVEC:   2  11  YDIPLEN   0.4675   RESID, RESID/X:  0.2513829D+00  0.9914565D-01
ITER, IVEC:   2  12  YDIPLEN   0.4700   RESID, RESID/X:  0.3089651D+00  0.1063976D+00
ITER, IVEC:   2  13  YDIPLEN   0.4725   RESID, RESID/X:  0.3833811D+00  0.1288856D+00
ITER, IVEC:   2  14  YDIPLEN   0.4750   RESID, RESID/X:  0.4045742D+00  0.1340317D+00
ITER, IVEC:   2  15  YDIPLEN   0.4775   RESID, RESID/X:  0.3650420D+00  0.1286635D+00
ITER, IVEC:   2  16  YDIPLEN   0.4800   RESID, RESID/X:  0.3247533D+00  0.1317428D+00
ITER, IVEC:   2  17  YDIPLEN   0.4825   RESID, RESID/X:  0.2984711D+00  0.1387797D+00
ITER, IVEC:   2  18  YDIPLEN   0.4850   RESID, RESID/X:  0.2826770D+00  0.1477978D+00
ITER, IVEC:   2  19  YDIPLEN   0.4875   RESID, RESID/X:  0.2734550D+00  0.1578529D+00
ITER, IVEC:   2  20  YDIPLEN   0.4900   RESID, RESID/X:  0.2683918D+00  0.1684630D+00
ITER, IVEC:   3   1  YDIPLEN   0.4425   RESID, RESID/X:  0.2305139D-01  0.2033972D-01
ITER, IVEC:   3   2  YDIPLEN   0.4450   RESID, RESID/X:  0.2409859D-01  0.2034689D-01
ITER, IVEC:   3   3  YDIPLEN   0.4475   RESID, RESID/X:  0.2533147D-01  0.2037707D-01
ITER, IVEC:   3   4  YDIPLEN   0.4500   RESID, RESID/X:  0.2680944D-01  0.2044070D-01
ITER, IVEC:   3   5  YDIPLEN   0.4525   RESID, RESID/X:  0.2861951D-01  0.2055317D-01
ITER, IVEC:   3   6  YDIPLEN   0.4550   RESID, RESID/X:  0.3089337D-01  0.2073753D-01
ITER, IVEC:   3   7  YDIPLEN   0.4575   RESID, RESID/X:  0.3383746D-01  0.2102894D-01
ITER, IVEC:   3   8  YDIPLEN   0.4600   RESID, RESID/X:  0.3778794D-01  0.2148238D-01
ITER, IVEC:   3   9  YDIPLEN   0.4625   RESID, RESID/X:  0.4331290D-01  0.2218645D-01
ITER, IVEC:   3  10  YDIPLEN   0.4650   RESID, RESID/X:  0.5139278D-01  0.2329018D-01
ITER, IVEC:   3  11  YDIPLEN   0.4675   RESID, RESID/X:  0.6362312D-01  0.2506051D-01
ITER, IVEC:   3  12  YDIPLEN   0.4700   RESID, RESID/X:  0.8145756D-01  0.2802518D-01
ITER, IVEC:   3  13  YDIPLEN   0.4725   RESID, RESID/X:  0.9921347D-01  0.3339216D-01
ITER, IVEC:   3  14  YDIPLEN   0.4750   RESID, RESID/X:  0.9706426D-01  0.3214804D-01
ITER, IVEC:   3  15  YDIPLEN   0.4775   RESID, RESID/X:  0.7907616D-01  0.2791010D-01
ITER, IVEC:   3  16  YDIPLEN   0.4800   RESID, RESID/X:  0.6369299D-01  0.2587831D-01
ITER, IVEC:   3  17  YDIPLEN   0.4825   RESID, RESID/X:  0.5399604D-01  0.2514009D-01
ITER, IVEC:   3  18  YDIPLEN   0.4850   RESID, RESID/X:  0.4829147D-01  0.2527648D-01
ITER, IVEC:   3  19  YDIPLEN   0.4875   RESID, RESID/X:  0.4510502D-01  0.2605840D-01
ITER, IVEC:   3  20  YDIPLEN   0.4900   RESID, RESID/X:  0.4354453D-01  0.2734702D-01
ITER, IVEC:   4   1  YDIPLEN   0.4425   RESID, RESID/X:  0.4819678D-02  0.4252627D-02
ITER, IVEC:   4   2  YDIPLEN   0.4450   RESID, RESID/X:  0.4968625D-02  0.4195016D-02
ITER, IVEC:   4   3  YDIPLEN   0.4475   RESID, RESID/X:  0.5127798D-02  0.4124797D-02
ITER, IVEC:   4   4  YDIPLEN   0.4500   RESID, RESID/X:  0.5299909D-02  0.4040790D-02
ITER, IVEC:   4   5  YDIPLEN   0.4525   RESID, RESID/X:  0.5489357D-02  0.3942095D-02
ITER, IVEC:   4   6  YDIPLEN   0.4550   RESID, RESID/X:  0.5703606D-02  0.3828502D-02
ITER, IVEC:   4   7  YDIPLEN   0.4575   RESID, RESID/X:  0.5955943D-02  0.3701318D-02
ITER, IVEC:   4   8  YDIPLEN   0.4600   RESID, RESID/X:  0.6271162D-02  0.3565015D-02
ITER, IVEC:   4   9  YDIPLEN   0.4625   RESID, RESID/X:  0.6697654D-02  0.3430636D-02
ITER, IVEC:   4  10  YDIPLEN   0.4650   RESID, RESID/X:  0.7332676D-02  0.3322857D-02
ITER, IVEC:   4  11  YDIPLEN   0.4675   RESID, RESID/X:  0.8364783D-02  0.3294624D-02
ITER, IVEC:   4  12  YDIPLEN   0.4700   RESID, RESID/X:  0.1004903D-01  0.3457196D-02
ITER, IVEC:   4  13  YDIPLEN   0.4725   RESID, RESID/X:  0.1202649D-01  0.4047927D-02
ITER, IVEC:   4  14  YDIPLEN   0.4750   RESID, RESID/X:  0.1234870D-01  0.4089886D-02
ITER, IVEC:   4  15  YDIPLEN   0.4775   RESID, RESID/X:  0.1138474D-01  0.4018488D-02
ITER, IVEC:   4  16  YDIPLEN   0.4800   RESID, RESID/X:  0.1166941D-01  0.4741537D-02
ITER, IVEC:   4  17  YDIPLEN   0.4825   RESID, RESID/X:  0.1441276D-01  0.6710772D-02
ITER, IVEC:   4  18  YDIPLEN   0.4850   RESID, RESID/X:  0.1727015D-01  0.9039742D-02
ITER, IVEC:   4  19  YDIPLEN   0.4875   RESID, RESID/X:  0.1759837D-01  0.1016729D-01
ITER, IVEC:   4  20  YDIPLEN   0.4900   RESID, RESID/X:  0.1704437D-01  0.1070444D-01
ITER, IVEC:   5   1  YDIPLEN   0.4425   RESID, RESID/X:  0.8059899D-03  0.7111620D-03
ITER, IVEC:   5   2  YDIPLEN   0.4450   RESID, RESID/X:  0.8438250D-03  0.7124418D-03
ITER, IVEC:   5   3  YDIPLEN   0.4475   RESID, RESID/X:  0.8847697D-03  0.7117076D-03
ITER, IVEC:   5   4  YDIPLEN   0.4500   RESID, RESID/X:  0.9293800D-03  0.7085832D-03
ITER, IVEC:   5   5  YDIPLEN   0.4525   RESID, RESID/X:  0.9784309D-03  0.7026442D-03
ITER, IVEC:   5   6  YDIPLEN   0.4550   RESID, RESID/X:  0.1033057D-02  0.6934315D-03
ITER, IVEC:   5   7  YDIPLEN   0.4575   RESID, RESID/X:  0.1095014D-02  0.6804957D-03
ITER, IVEC:   5   8  YDIPLEN   0.4600   RESID, RESID/X:  0.1167181D-02  0.6635159D-03
ITER, IVEC:   5   9  YDIPLEN   0.4625   RESID, RESID/X:  0.1254563D-02  0.6426051D-03
ITER, IVEC:   5  10  YDIPLEN   0.4650   RESID, RESID/X:  0.1366209D-02  0.6191073D-03
ITER, IVEC:   5  11  YDIPLEN   0.4675   RESID, RESID/X:  0.1517650D-02  0.5977539D-03
ITER, IVEC:   5  12  YDIPLEN   0.4700   RESID, RESID/X:  0.1722895D-02  0.5927318D-03
ITER, IVEC:   5  13  YDIPLEN   0.4725   RESID, RESID/X:  0.1915900D-02  0.6448619D-03
ITER, IVEC:   5  14  YDIPLEN   0.4750   RESID, RESID/X:  0.1897436D-02  0.6284300D-03
ITER, IVEC:   5  15  YDIPLEN   0.4775   RESID, RESID/X:  0.1769920D-02  0.6247317D-03
ITER, IVEC:   5  16  YDIPLEN   0.4800   RESID, RESID/X:  0.1719258D-02  0.6985734D-03
ITER, IVEC:   5  17  YDIPLEN   0.4825   RESID, RESID/X:  0.1741829D-02  0.8110236D-03
ITER, IVEC:   5  18  YDIPLEN   0.4850   RESID, RESID/X:  0.1806213D-02  0.9454391D-03
ITER, IVEC:   5  19  YDIPLEN   0.4875   RESID, RESID/X:  0.1895684D-02  0.1095222D-02
ITER, IVEC:   5  20  YDIPLEN   0.4900   RESID, RESID/X:  0.2003095D-02  0.1258016D-02
ITER, IVEC:   6   1  YDIPLEN   0.4425   RESID, RESID/X:  0.1777771D-03  0.1568609D-03
ITER, IVEC:   6   2  YDIPLEN   0.4450   RESID, RESID/X:  0.1868349D-03  0.1577448D-03
ITER, IVEC:   6   3  YDIPLEN   0.4475   RESID, RESID/X:  0.1966706D-03  0.1582015D-03
ITER, IVEC:   6   4  YDIPLEN   0.4500   RESID, RESID/X:  0.2074320D-03  0.1581515D-03
ITER, IVEC:   6   5  YDIPLEN   0.4525   RESID, RESID/X:  0.2193261D-03  0.1575055D-03
ITER, IVEC:   6   6  YDIPLEN   0.4550   RESID, RESID/X:  0.2326559D-03  0.1561684D-03
ITER, IVEC:   6   7  YDIPLEN   0.4575   RESID, RESID/X:  0.2478873D-03  0.1540493D-03
ITER, IVEC:   6   8  YDIPLEN   0.4600   RESID, RESID/X:  0.2657758D-03  0.1510875D-03
ITER, IVEC:   6   9  YDIPLEN   0.4625   RESID, RESID/X:  0.2876109D-03  0.1473184D-03
ITER, IVEC:   6  10  YDIPLEN   0.4650   RESID, RESID/X:  0.3156572D-03  0.1430424D-03
ITER, IVEC:   6  11  YDIPLEN   0.4675   RESID, RESID/X:  0.3536111D-03  0.1392761D-03
ITER, IVEC:   6  12  YDIPLEN   0.4700   RESID, RESID/X:  0.4040933D-03  0.1390212D-03
ITER, IVEC:   6  13  YDIPLEN   0.4725   RESID, RESID/X:  0.4481234D-03  0.1508314D-03
ITER, IVEC:   6  14  YDIPLEN   0.4750   RESID, RESID/X:  0.4337551D-03  0.1436596D-03
ITER, IVEC:   6  15  YDIPLEN   0.4775   RESID, RESID/X:  0.3923420D-03  0.1384856D-03
ITER, IVEC:   6  16  YDIPLEN   0.4800   RESID, RESID/X:  0.3746913D-03  0.1522455D-03
ITER, IVEC:   6  17  YDIPLEN   0.4825   RESID, RESID/X:  0.3776968D-03  0.1758617D-03
ITER, IVEC:   6  18  YDIPLEN   0.4850   RESID, RESID/X:  0.3916979D-03  0.2050292D-03
ITER, IVEC:   6  19  YDIPLEN   0.4875   RESID, RESID/X:  0.4118320D-03  0.2379339D-03
ITER, IVEC:   6  20  YDIPLEN   0.4900   RESID, RESID/X:  0.4360840D-03  0.2738766D-03
ITER, IVEC:   7   1  YDIPLEN   0.4425   RESID, RESID/X:  0.2387162D-04  0.2106303D-04
ITER, IVEC:   7   2  YDIPLEN   0.4450   RESID, RESID/X:  0.2529725D-04  0.2135848D-04
ITER, IVEC:   7   3  YDIPLEN   0.4475   RESID, RESID/X:  0.2687499D-04  0.2161821D-04
ITER, IVEC:   7   4  YDIPLEN   0.4500   RESID, RESID/X:  0.2863899D-04  0.2183511D-04
ITER, IVEC:   7   5  YDIPLEN   0.4525   RESID, RESID/X:  0.3063760D-04  0.2200189D-04
ITER, IVEC:   7   6  YDIPLEN   0.4550   RESID, RESID/X:  0.3294199D-04  0.2211204D-04
ITER, IVEC:   7   7  YDIPLEN   0.4575   RESID, RESID/X:  0.3566162D-04  0.2216188D-04
ITER, IVEC:   7   8  YDIPLEN   0.4600   RESID, RESID/X:  0.3897285D-04  0.2215518D-04
ITER, IVEC:   7   9  YDIPLEN   0.4625   RESID, RESID/X:  0.4317208D-04  0.2211336D-04
ITER, IVEC:   7  10  YDIPLEN   0.4650   RESID, RESID/X:  0.4876698D-04  0.2209911D-04
ITER, IVEC:   7  11  YDIPLEN   0.4675   RESID, RESID/X:  0.5655223D-04  0.2227412D-04
ITER, IVEC:   7  12  YDIPLEN   0.4700   RESID, RESID/X:  0.6700240D-04  0.2305100D-04
ITER, IVEC:   7  13  YDIPLEN   0.4725   RESID, RESID/X:  0.7583317D-04  0.2552426D-04
ITER, IVEC:   7  14  YDIPLEN   0.4750   RESID, RESID/X:  0.7162812D-04  0.2372321D-04
ITER, IVEC:   7  15  YDIPLEN   0.4775   RESID, RESID/X:  0.6056895D-04  0.2137912D-04
ITER, IVEC:   7  16  YDIPLEN   0.4800   RESID, RESID/X:  0.5420841D-04  0.2202610D-04
ITER, IVEC:   7  17  YDIPLEN   0.4825   RESID, RESID/X:  0.5261918D-04  0.2450033D-04
ITER, IVEC:   7  18  YDIPLEN   0.4850   RESID, RESID/X:  0.5373355D-04  0.2812614D-04
ITER, IVEC:   7  19  YDIPLEN   0.4875   RESID, RESID/X:  0.5633943D-04  0.3254982D-04
ITER, IVEC:   7  20  YDIPLEN   0.4900   RESID, RESID/X:  0.5988154D-04  0.3760778D-04
ITER, IVEC:   8   1  YDIPLEN   0.4425   RESID, RESID/X:  0.5371314D-05  0.4739357D-05
ITER, IVEC:   8   2  YDIPLEN   0.4450   RESID, RESID/X:  0.5682067D-05  0.4797372D-05
ITER, IVEC:   8   3  YDIPLEN   0.4475   RESID, RESID/X:  0.6016130D-05  0.4839367D-05
ITER, IVEC:   8   4  YDIPLEN   0.4500   RESID, RESID/X:  0.6376662D-05  0.4861731D-05
ITER, IVEC:   8   5  YDIPLEN   0.4525   RESID, RESID/X:  0.6768020D-05  0.4860343D-05
ITER, IVEC:   8   6  YDIPLEN   0.4550   RESID, RESID/X:  0.7196662D-05  0.4830701D-05
ITER, IVEC:   8   7  YDIPLEN   0.4575   RESID, RESID/X:  0.7672997D-05  0.4768377D-05
ITER, IVEC:   8   8  YDIPLEN   0.4600   RESID, RESID/X:  0.8215403D-05  0.4670270D-05
ITER, IVEC:   8   9  YDIPLEN   0.4625   RESID, RESID/X:  0.8859448D-05  0.4537936D-05
ITER, IVEC:   8  10  YDIPLEN   0.4650   RESID, RESID/X:  0.9679793D-05  0.4386468D-05
ITER, IVEC:   8  11  YDIPLEN   0.4675   RESID, RESID/X:  0.1083786D-04  0.4268688D-05
ITER, IVEC:   8  12  YDIPLEN   0.4700   RESID, RESID/X:  0.1261589D-04  0.4340276D-05
ITER, IVEC:   8  13  YDIPLEN   0.4725   RESID, RESID/X:  0.1490396D-04  0.5016440D-05
ITER, IVEC:   8  14  YDIPLEN   0.4750   RESID, RESID/X:  0.1599193D-04  0.5296523D-05
ITER, IVEC:   8  15  YDIPLEN   0.4775   RESID, RESID/X:  0.1569632D-04  0.5540355D-05
ITER, IVEC:   8  16  YDIPLEN   0.4800   RESID, RESID/X:  0.1552227D-04  0.6307049D-05
ITER, IVEC:   8  17  YDIPLEN   0.4825   RESID, RESID/X:  0.1577878D-04  0.7346853D-05
ITER, IVEC:   8  18  YDIPLEN   0.4850   RESID, RESID/X:  0.1635275D-04  0.8559637D-05
ITER, IVEC:   8  19  YDIPLEN   0.4875   RESID, RESID/X:  0.1714804D-04  0.9907193D-05
ITER, IVEC:   8  20  YDIPLEN   0.4900   RESID, RESID/X:  0.1811435D-04  0.1137647D-04
ITER, IVEC:  9  1  YDIPLEN   0.4425 RESID, RESID/X:TT
ITER, IVEC:  9  2  YDIPLEN   0.4450 RESID, RESID/X:TT
ITER, IVEC:  9  3  YDIPLEN   0.4475 RESID, RESID/X:TT
ITER, IVEC:  9  4  YDIPLEN   0.4500 RESID, RESID/X:TT
ITER, IVEC:  9  5  YDIPLEN   0.4525 RESID, RESID/X:TT
ITER, IVEC:  9  6  YDIPLEN   0.4550 RESID, RESID/X:TT
ITER, IVEC:  9  7  YDIPLEN   0.4575 RESID, RESID/X:TT
ITER, IVEC:  9  8  YDIPLEN   0.4600 RESID, RESID/X:TT
ITER, IVEC:  9  9  YDIPLEN   0.4625 RESID, RESID/X:TT
ITER, IVEC:  9 10  YDIPLEN   0.4650 RESID, RESID/X:TT
ITER, IVEC:   9  11  YDIPLEN   0.4675   RESID, RESID/X:  0.1240413D-05  0.4885590D-06
ITER, IVEC:   9  12  YDIPLEN   0.4700   RESID, RESID/X:  0.1420553D-05  0.4887164D-06
ITER, IVEC:   9  13  YDIPLEN   0.4725   RESID, RESID/X:  0.1605317D-05  0.5403245D-06
ITER, IVEC:   9  14  YDIPLEN   0.4750   RESID, RESID/X:  0.1653062D-05  0.5474935D-06
ITER, IVEC:   9  15  YDIPLEN   0.4775   RESID, RESID/X:  0.1626607D-05  0.5741461D-06
ITER, IVEC:   9  16  YDIPLEN   0.4800   RESID, RESID/X:  0.1658803D-05  0.6740090D-06
ITER, IVEC:   9  17  YDIPLEN   0.4825   RESID, RESID/X:  0.1748077D-05  0.8139325D-06
ITER, IVEC:   9  18  YDIPLEN   0.4850   RESID, RESID/X:  0.1874128D-05  0.9809880D-06
ITER, IVEC:   9  19  YDIPLEN   0.4875   RESID, RESID/X:  0.2027231D-05  0.1171222D-05
ITER, IVEC:   9  20  YDIPLEN   0.4900   RESID, RESID/X:  0.2204313D-05  0.1384388D-05

 *** ABSCTL: REQUESTED  20 SOLUTION VECTORS CONVERGED IN RED SPACES OF  91  94

 ABSLRS -- Solving linear response equations( E[2] - {w-iW}*S[2] ) N = B[1]  
 ABSLRS -- for operator ZDIPLEN  of symmetry 1 at frequencies:
 ABSLRS --  0.44250000  0.44500000  0.44750000  0.45000000
             0.45250000  0.45500000  0.45750000  0.46000000
             0.46250000  0.46500000  0.46750000  0.47000000
             0.47250000  0.47500000  0.47750000  0.48000000
             0.48250000  0.48500000  0.48750000  0.49000000

 Use ABS_READIN_RED           91          94
ITER, IVEC:   1   1  ZDIPLEN   0.4425   RESID, RESID/X:  0.4030684D+00  0.3557438D+00
ITER, IVEC:   1   2  ZDIPLEN   0.4450   RESID, RESID/X:  0.4040166D+00  0.3411926D+00
ITER, IVEC:   1   3  ZDIPLEN   0.4475   RESID, RESID/X:  0.4049783D+00  0.3258301D+00
ITER, IVEC:   1   4  ZDIPLEN   0.4500   RESID, RESID/X:  0.4059540D+00  0.3095624D+00
ITER, IVEC:   1   5  ZDIPLEN   0.4525   RESID, RESID/X:  0.4069445D+00  0.2922814D+00
ITER, IVEC:   1   6  ZDIPLEN   0.4550   RESID, RESID/X:  0.4079509D+00  0.2738646D+00
ITER, IVEC:   1   7  ZDIPLEN   0.4575   RESID, RESID/X:  0.4089742D+00  0.2541791D+00
ITER, IVEC:   1   8  ZDIPLEN   0.4600   RESID, RESID/X:  0.4100161D+00  0.2331006D+00
ITER, IVEC:   1   9  ZDIPLEN   0.4625   RESID, RESID/X:  0.4110785D+00  0.2105709D+00
ITER, IVEC:   1  10  ZDIPLEN   0.4650   RESID, RESID/X:  0.4121637D+00  0.1867819D+00
ITER, IVEC:   1  11  ZDIPLEN   0.4675   RESID, RESID/X:  0.4132719D+00  0.1627792D+00
ITER, IVEC:   1  12  ZDIPLEN   0.4700   RESID, RESID/X:  0.4143881D+00  0.1425662D+00
ITER, IVEC:   1  13  ZDIPLEN   0.4725   RESID, RESID/X:  0.4154458D+00  0.1398370D+00
ITER, IVEC:   1  14  ZDIPLEN   0.4750   RESID, RESID/X:  0.4164292D+00  0.1379252D+00
ITER, IVEC:   1  15  ZDIPLEN   0.4775   RESID, RESID/X:  0.4175070D+00  0.1473702D+00
ITER, IVEC:   1  16  ZDIPLEN   0.4800   RESID, RESID/X:  0.4186820D+00  0.1701236D+00
ITER, IVEC:   1  17  ZDIPLEN   0.4825   RESID, RESID/X:  0.4199025D+00  0.1955205D+00
ITER, IVEC:   1  18  ZDIPLEN   0.4850   RESID, RESID/X:  0.4211528D+00  0.2204600D+00
ITER, IVEC:   1  19  ZDIPLEN   0.4875   RESID, RESID/X:  0.4224315D+00  0.2440790D+00
ITER, IVEC:   1  20  ZDIPLEN   0.4900   RESID, RESID/X:  0.4237412D+00  0.2661574D+00
ITER, IVEC:   2   1  ZDIPLEN   0.4425   RESID, RESID/X:  0.2873261D-01  0.2535219D-01
ITER, IVEC:   2   2  ZDIPLEN   0.4450   RESID, RESID/X:  0.2886745D-01  0.2437288D-01
ITER, IVEC:   2   3  ZDIPLEN   0.4475   RESID, RESID/X:  0.2900520D-01  0.2333182D-01
ITER, IVEC:   2   4  ZDIPLEN   0.4500   RESID, RESID/X:  0.2914606D-01  0.2222178D-01
ITER, IVEC:   2   5  ZDIPLEN   0.4525   RESID, RESID/X:  0.2929026D-01  0.2103440D-01
ITER, IVEC:   2   6  ZDIPLEN   0.4550   RESID, RESID/X:  0.2943810D-01  0.1976017D-01
ITER, IVEC:   2   7  ZDIPLEN   0.4575   RESID, RESID/X:  0.2958998D-01  0.1838875D-01
ITER, IVEC:   2   8  ZDIPLEN   0.4600   RESID, RESID/X:  0.2974643D-01  0.1691025D-01
ITER, IVEC:   2   9  ZDIPLEN   0.4625   RESID, RESID/X:  0.2990811D-01  0.1531944D-01
ITER, IVEC:   2  10  ZDIPLEN   0.4650   RESID, RESID/X:  0.3007545D-01  0.1362899D-01
ITER, IVEC:   2  11  ZDIPLEN   0.4675   RESID, RESID/X:  0.3024680D-01  0.1191333D-01
ITER, IVEC:   2  12  ZDIPLEN   0.4700   RESID, RESID/X:  0.3040931D-01  0.1046185D-01
ITER, IVEC:   2  13  ZDIPLEN   0.4725   RESID, RESID/X:  0.3052029D-01  0.1027260D-01
ITER, IVEC:   2  14  ZDIPLEN   0.4750   RESID, RESID/X:  0.3058598D-01  0.1013009D-01
ITER, IVEC:   2  15  ZDIPLEN   0.4775   RESID, RESID/X:  0.3071470D-01  0.1084135D-01
ITER, IVEC:   2  16  ZDIPLEN   0.4800   RESID, RESID/X:  0.3089213D-01  0.1255208D-01
ITER, IVEC:   2  17  ZDIPLEN   0.4825   RESID, RESID/X:  0.3108211D-01  0.1447225D-01
ITER, IVEC:   2  18  ZDIPLEN   0.4850   RESID, RESID/X:  0.3127496D-01  0.1637040D-01
ITER, IVEC:   2  19  ZDIPLEN   0.4875   RESID, RESID/X:  0.3146946D-01  0.1818125D-01
ITER, IVEC:   2  20  ZDIPLEN   0.4900   RESID, RESID/X:  0.3166602D-01  0.1988735D-01
ITER, IVEC:   3   1  ZDIPLEN   0.4425   RESID, RESID/X:  0.1909080D-02  0.1684472D-02
ITER, IVEC:   3   2  ZDIPLEN   0.4450   RESID, RESID/X:  0.1921336D-02  0.1622188D-02
ITER, IVEC:   3   3  ZDIPLEN   0.4475   RESID, RESID/X:  0.1933841D-02  0.1555583D-02
ITER, IVEC:   3   4  ZDIPLEN   0.4500   RESID, RESID/X:  0.1946618D-02  0.1484155D-02
ITER, IVEC:   3   5  ZDIPLEN   0.4525   RESID, RESID/X:  0.1959693D-02  0.1407326D-02
ITER, IVEC:   3   6  ZDIPLEN   0.4550   RESID, RESID/X:  0.1973107D-02  0.1324436D-02
ITER, IVEC:   3   7  ZDIPLEN   0.4575   RESID, RESID/X:  0.1986909D-02  0.1234768D-02
ITER, IVEC:   3   8  ZDIPLEN   0.4600   RESID, RESID/X:  0.2001172D-02  0.1137626D-02
ITER, IVEC:   3   9  ZDIPLEN   0.4625   RESID, RESID/X:  0.2015984D-02  0.1032621D-02
ITER, IVEC:   3  10  ZDIPLEN   0.4650   RESID, RESID/X:  0.2031421D-02  0.9205587D-03
ITER, IVEC:   3  11  ZDIPLEN   0.4675   RESID, RESID/X:  0.2047315D-02  0.8063777D-03
ITER, IVEC:   3  12  ZDIPLEN   0.4700   RESID, RESID/X:  0.2062128D-02  0.7094426D-03
ITER, IVEC:   3  13  ZDIPLEN   0.4725   RESID, RESID/X:  0.2070429D-02  0.6968705D-03
ITER, IVEC:   3  14  ZDIPLEN   0.4750   RESID, RESID/X:  0.2072405D-02  0.6863809D-03
ITER, IVEC:   3  15  ZDIPLEN   0.4775   RESID, RESID/X:  0.2081782D-02  0.7348055D-03
ITER, IVEC:   3  16  ZDIPLEN   0.4800   RESID, RESID/X:  0.2097288D-02  0.8521695D-03
ITER, IVEC:   3  17  ZDIPLEN   0.4825   RESID, RESID/X:  0.2114380D-02  0.9844829D-03
ITER, IVEC:   3  18  ZDIPLEN   0.4850   RESID, RESID/X:  0.2131767D-02  0.1115840D-02
ITER, IVEC:   3  19  ZDIPLEN   0.4875   RESID, RESID/X:  0.2149256D-02  0.1241716D-02
ITER, IVEC:   3  20  ZDIPLEN   0.4900   RESID, RESID/X:  0.2166884D-02  0.1360876D-02
ITER, IVEC:   4   1  ZDIPLEN   0.4425   RESID, RESID/X:  0.1504594D-03  0.1327575D-03
ITER, IVEC:   4   2  ZDIPLEN   0.4450   RESID, RESID/X:  0.1523550D-03  0.1286337D-03
ITER, IVEC:   4   3  ZDIPLEN   0.4475   RESID, RESID/X:  0.1542788D-03  0.1241020D-03
ITER, IVEC:   4   4  ZDIPLEN   0.4500   RESID, RESID/X:  0.1562316D-03  0.1191153D-03
ITER, IVEC:   4   5  ZDIPLEN   0.4525   RESID, RESID/X:  0.1582144D-03  0.1136194D-03
ITER, IVEC:   4   6  ZDIPLEN   0.4550   RESID, RESID/X:  0.1602288D-03  0.1075527D-03
ITER, IVEC:   4   7  ZDIPLEN   0.4575   RESID, RESID/X:  0.1622769D-03  0.1008472D-03
ITER, IVEC:   4   8  ZDIPLEN   0.4600   RESID, RESID/X:  0.1643617D-03  0.9343633D-04
ITER, IVEC:   4   9  ZDIPLEN   0.4625   RESID, RESID/X:  0.1664873D-03  0.8527763D-04
ITER, IVEC:   4  10  ZDIPLEN   0.4650   RESID, RESID/X:  0.1686567D-03  0.7642849D-04
ITER, IVEC:   4  11  ZDIPLEN   0.4675   RESID, RESID/X:  0.1708604D-03  0.6729692D-04
ITER, IVEC:   4  12  ZDIPLEN   0.4700   RESID, RESID/X:  0.1730168D-03  0.5952371D-04
ITER, IVEC:   4  13  ZDIPLEN   0.4725   RESID, RESID/X:  0.1748403D-03  0.5884821D-04
ITER, IVEC:   4  14  ZDIPLEN   0.4750   RESID, RESID/X:  0.1763383D-03  0.5840330D-04
ITER, IVEC:   4  15  ZDIPLEN   0.4775   RESID, RESID/X:  0.1782263D-03  0.6290845D-04
ITER, IVEC:   4  16  ZDIPLEN   0.4800   RESID, RESID/X:  0.1804364D-03  0.7331488D-04
ITER, IVEC:   4  17  ZDIPLEN   0.4825   RESID, RESID/X:  0.1827295D-03  0.8508127D-04
ITER, IVEC:   4  18  ZDIPLEN   0.4850   RESID, RESID/X:  0.1850355D-03  0.9685394D-04
ITER, IVEC:   4  19  ZDIPLEN   0.4875   RESID, RESID/X:  0.1873412D-03  0.1082350D-03
ITER, IVEC:   4  20  ZDIPLEN   0.4900   RESID, RESID/X:  0.1896449D-03  0.1191034D-03
ITER, IVEC:   5   1  ZDIPLEN   0.4425   RESID, RESID/X:  0.7359752D-05  0.6493859D-05
ITER, IVEC:   5   2  ZDIPLEN   0.4450   RESID, RESID/X:  0.7485777D-05  0.6320257D-05
ITER, IVEC:   5   3  ZDIPLEN   0.4475   RESID, RESID/X:  0.7614707D-05  0.6125274D-05
ITER, IVEC:   5   4  ZDIPLEN   0.4500   RESID, RESID/X:  0.7746666D-05  0.5906272D-05
ITER, IVEC:   5   5  ZDIPLEN   0.4525   RESID, RESID/X:  0.7881800D-05  0.5660202D-05
ITER, IVEC:   5   6  ZDIPLEN   0.4550   RESID, RESID/X:  0.8020297D-05  0.5383577D-05
ITER, IVEC:   5   7  ZDIPLEN   0.4575   RESID, RESID/X:  0.8162398D-05  0.5072534D-05
ITER, IVEC:   5   8  ZDIPLEN   0.4600   RESID, RESID/X:  0.8308417D-05  0.4723167D-05
ITER, IVEC:   5   9  ZDIPLEN   0.4625   RESID, RESID/X:  0.8458742D-05  0.4332711D-05
ITER, IVEC:   5  10  ZDIPLEN   0.4650   RESID, RESID/X:  0.8613664D-05  0.3903368D-05
ITER, IVEC:   5  11  ZDIPLEN   0.4675   RESID, RESID/X:  0.8772367D-05  0.3455179D-05
ITER, IVEC:   5  12  ZDIPLEN   0.4700   RESID, RESID/X:  0.8928047D-05  0.3071554D-05
ITER, IVEC:   5  13  ZDIPLEN   0.4725   RESID, RESID/X:  0.9057530D-05  0.3048607D-05
ITER, IVEC:   5  14  ZDIPLEN   0.4750   RESID, RESID/X:  0.9163183D-05  0.3034848D-05
ITER, IVEC:   5  15  ZDIPLEN   0.4775   RESID, RESID/X:  0.9303868D-05  0.3283981D-05
ITER, IVEC:   5  16  ZDIPLEN   0.4800   RESID, RESID/X:  0.9472732D-05  0.3848958D-05
ITER, IVEC:   5  17  ZDIPLEN   0.4825   RESID, RESID/X:  0.9650189D-05  0.4493255D-05
ITER, IVEC:   5  18  ZDIPLEN   0.4850   RESID, RESID/X:  0.9830875D-05  0.5145817D-05
ITER, IVEC:   5  19  ZDIPLEN   0.4875   RESID, RESID/X:  0.1001407D-04  0.5785553D-05
ITER, IVEC:   5  20  ZDIPLEN   0.4900   RESID, RESID/X:  0.1019998D-04  0.6405934D-05
ITER, IVEC:  6  1  ZDIPLEN   0.4425 RESID, RESID/X:TT
ITER, IVEC:  6  2  ZDIPLEN   0.4450 RESID, RESID/X:TT
ITER, IVEC:  6  3  ZDIPLEN   0.4475 RESID, RESID/X:TT
ITER, IVEC:  6  4  ZDIPLEN   0.4500 RESID, RESID/X:TT
ITER, IVEC:  6  5  ZDIPLEN   0.4525 RESID, RESID/X:TT
ITER, IVEC:  6  6  ZDIPLEN   0.4550 RESID, RESID/X:TT
ITER, IVEC:  6  7  ZDIPLEN   0.4575 RESID, RESID/X:TT
ITER, IVEC:  6  8  ZDIPLEN   0.4600 RESID, RESID/X:TT
ITER, IVEC:  6  9  ZDIPLEN   0.4625 RESID, RESID/X:TT
ITER, IVEC:  6 10  ZDIPLEN   0.4650 RESID, RESID/X:TT
ITER, IVEC:  6 11  ZDIPLEN   0.4675 RESID, RESID/X:TT
ITER, IVEC:  6 12  ZDIPLEN   0.4700 RESID, RESID/X:TT
ITER, IVEC:  6 13  ZDIPLEN   0.4725 RESID, RESID/X:TT
ITER, IVEC:  6 14  ZDIPLEN   0.4750 RESID, RESID/X:TT
ITER, IVEC:  6 15  ZDIPLEN   0.4775 RESID, RESID/X:TT
ITER, IVEC:  6 16  ZDIPLEN   0.4800 RESID, RESID/X:TT
ITER, IVEC:  6 17  ZDIPLEN   0.4825 RESID, RESID/X:TT
ITER, IVEC:  6 18  ZDIPLEN   0.4850 RESID, RESID/X:TT
ITER, IVEC:   6  19  ZDIPLEN   0.4875   RESID, RESID/X:  0.5120443D-06  0.2958297D-06
ITER, IVEC:   6  20  ZDIPLEN   0.4900   RESID, RESID/X:  0.5229583D-06  0.3284355D-06

 *** ABSCTL: REQUESTED  20 SOLUTION VECTORS CONVERGED IN RED SPACES OF 116 120


      **********************************************************************
      ******************** FINAL RESULTS FOR ABSORPTION ********************
      **********************************************************************



                          +-----------------------------+
                          ! Polarizability with damping !
                          +-----------------------------+

 ------------------------------------------------------------------
 No    A-oper    B-oper   Frequency       Real part       Imag part
 ------------------------------------------------------------------

  1   XDIPLEN   XDIPLEN    0.442500       51.727093        5.690986
  2   YDIPLEN   YDIPLEN    0.442500       51.727150        5.691007
  3   ZDIPLEN   ZDIPLEN    0.442500       51.727057        5.690972
  4   XDIPLEN   YDIPLEN    0.442500        0.000021        0.000009
  5   XDIPLEN   ZDIPLEN    0.442500       -0.000000       -0.000000
  6   YDIPLEN   ZDIPLEN    0.442500       -0.000000       -0.000000

      Averaged value       0.442500       51.727100        5.690988

  7   XDIPLEN   XDIPLEN    0.445000       54.958320        6.663676
  8   YDIPLEN   YDIPLEN    0.445000       54.958389        6.663703
  9   ZDIPLEN   ZDIPLEN    0.445000       54.958276        6.663659
 10   XDIPLEN   YDIPLEN    0.445000        0.000026        0.000012
 11   XDIPLEN   ZDIPLEN    0.445000       -0.000000       -0.000000
 12   YDIPLEN   ZDIPLEN    0.445000       -0.000000       -0.000000

      Averaged value       0.445000       54.958328        6.663680

 13   XDIPLEN   XDIPLEN    0.447500       58.735329        7.915915
 14   YDIPLEN   YDIPLEN    0.447500       58.735413        7.915951
 15   ZDIPLEN   ZDIPLEN    0.447500       58.735276        7.915892
 16   XDIPLEN   YDIPLEN    0.447500        0.000033        0.000016
 17   XDIPLEN   ZDIPLEN    0.447500       -0.000000       -0.000000
 18   YDIPLEN   ZDIPLEN    0.447500       -0.000000       -0.000000

      Averaged value       0.447500       58.735339        7.915919

 19   XDIPLEN   XDIPLEN    0.450000       63.207457        9.565632
 20   YDIPLEN   YDIPLEN    0.450000       63.207560        9.565680
 21   ZDIPLEN   ZDIPLEN    0.450000       63.207390        9.565600
 22   XDIPLEN   YDIPLEN    0.450000        0.000042        0.000022
 23   XDIPLEN   ZDIPLEN    0.450000       -0.000000       -0.000000
 24   YDIPLEN   ZDIPLEN    0.450000       -0.000000       -0.000000

      Averaged value       0.450000       63.207469        9.565637

 25   XDIPLEN   XDIPLEN    0.452500       68.580152       11.799119
 26   YDIPLEN   YDIPLEN    0.452500       68.580281       11.799185
 27   ZDIPLEN   ZDIPLEN    0.452500       68.580069       11.799075
 28   XDIPLEN   YDIPLEN    0.452500        0.000054        0.000032
 29   XDIPLEN   ZDIPLEN    0.452500       -0.000000       -0.000000
 30   YDIPLEN   ZDIPLEN    0.452500       -0.000000       -0.000000

      Averaged value       0.452500       68.580168       11.799126

 31   XDIPLEN   XDIPLEN    0.455000       75.139988       14.923441
 32   YDIPLEN   YDIPLEN    0.455000       75.140152       14.923538
 33   ZDIPLEN   ZDIPLEN    0.455000       75.139882       14.923378
 34   XDIPLEN   YDIPLEN    0.455000        0.000071        0.000046
 35   XDIPLEN   ZDIPLEN    0.455000       -0.000000       -0.000000
 36   YDIPLEN   ZDIPLEN    0.455000       -0.000000       -0.000000

      Averaged value       0.455000       75.140007       14.923452

 37   XDIPLEN   XDIPLEN    0.457500       83.288397       19.470555
 38   YDIPLEN   YDIPLEN    0.457500       83.288607       19.470700
 39   ZDIPLEN   ZDIPLEN    0.457500       83.288259       19.470459
 40   XDIPLEN   YDIPLEN    0.457500        0.000093        0.000069
 41   XDIPLEN   ZDIPLEN    0.457500       -0.000000       -0.000000
 42   YDIPLEN   ZDIPLEN    0.457500       -0.000000       -0.000000

      Averaged value       0.457500       83.288421       19.470571

 43   XDIPLEN   XDIPLEN    0.460000       93.573936       26.416817
 44   YDIPLEN   YDIPLEN    0.460000       93.574210       26.417048
 45   ZDIPLEN   ZDIPLEN    0.460000       93.573757       26.416665
 46   XDIPLEN   YDIPLEN    0.460000        0.000123        0.000111
 47   XDIPLEN   ZDIPLEN    0.460000       -0.000000       -0.000000
 48   YDIPLEN   ZDIPLEN    0.460000       -0.000000       -0.000000

      Averaged value       0.460000       93.573968       26.416843

 49   XDIPLEN   XDIPLEN    0.462500      106.655923       37.674048
 50   YDIPLEN   YDIPLEN    0.462500      106.656277       37.674438
 51   ZDIPLEN   ZDIPLEN    0.462500      106.655691       37.673790
 52   XDIPLEN   YDIPLEN    0.462500        0.000161        0.000188
 53   XDIPLEN   ZDIPLEN    0.462500       -0.000000       -0.000000
 54   YDIPLEN   ZDIPLEN    0.462500       -0.000000       -0.000000

      Averaged value       0.462500      106.655963       37.674092

 55   XDIPLEN   XDIPLEN    0.465000      122.855601       57.227999
 56   YDIPLEN   YDIPLEN    0.465000      122.856024       57.228705
 57   ZDIPLEN   ZDIPLEN    0.465000      122.855324       57.227530
 58   XDIPLEN   YDIPLEN    0.465000        0.000193        0.000343
 59   XDIPLEN   ZDIPLEN    0.465000       -0.000000       -0.000000
 60   YDIPLEN   ZDIPLEN    0.465000       -0.000000       -0.000000

      Averaged value       0.465000      122.855650       57.228078

 61   XDIPLEN   XDIPLEN    0.467500      139.616556       93.540798
 62   YDIPLEN   YDIPLEN    0.467500      139.616862       93.542148
 63   ZDIPLEN   ZDIPLEN    0.467500      139.616357       93.539903
 64   XDIPLEN   YDIPLEN    0.467500        0.000133        0.000658
 65   XDIPLEN   ZDIPLEN    0.467500       -0.000000       -0.000000
 66   YDIPLEN   ZDIPLEN    0.467500       -0.000000       -0.000000

      Averaged value       0.467500      139.616592       93.540950

 67   XDIPLEN   XDIPLEN    0.470000      139.932320      160.480688
 68   YDIPLEN   YDIPLEN    0.470000      139.931572      160.483009
 69   ZDIPLEN   ZDIPLEN    0.470000      139.932820      160.479150
 70   XDIPLEN   YDIPLEN    0.470000       -0.000390        0.001131
 71   XDIPLEN   ZDIPLEN    0.470000        0.000000       -0.000000
 72   YDIPLEN   ZDIPLEN    0.470000       -0.000000       -0.000000

      Averaged value       0.470000      139.932238      160.480949

 73   XDIPLEN   XDIPLEN    0.472500       70.053962      242.444147
 74   YDIPLEN   YDIPLEN    0.472500       70.050451      242.445541
 75   ZDIPLEN   ZDIPLEN    0.472500       70.056295      242.443225
 76   XDIPLEN   YDIPLEN    0.472500       -0.001751        0.000662
 77   XDIPLEN   ZDIPLEN    0.472500        0.000000       -0.000000
 78   YDIPLEN   ZDIPLEN    0.472500        0.000000       -0.000000

      Averaged value       0.472500       70.053570      242.444304

 79   XDIPLEN   XDIPLEN    0.475000      -57.450323      228.055283
 80   YDIPLEN   YDIPLEN    0.475000      -57.453131      228.052971
 81   ZDIPLEN   ZDIPLEN    0.475000      -57.448459      228.056822
 82   XDIPLEN   YDIPLEN    0.475000       -0.001388       -0.001173
 83   XDIPLEN   ZDIPLEN    0.475000        0.000000        0.000000
 84   YDIPLEN   ZDIPLEN    0.475000        0.000000        0.000000

      Averaged value       0.475000      -57.450638      228.055026

 85   XDIPLEN   XDIPLEN    0.477500     -106.412935      142.727566
 86   YDIPLEN   YDIPLEN    0.477500     -106.413123      142.725249
 87   ZDIPLEN   ZDIPLEN    0.477500     -106.412810      142.729107
 88   XDIPLEN   YDIPLEN    0.477500       -0.000085       -0.001166
 89   XDIPLEN   ZDIPLEN    0.477500        0.000000        0.000000
 90   YDIPLEN   ZDIPLEN    0.477500        0.000000        0.000000

      Averaged value       0.477500     -106.412956      142.727307

 91   XDIPLEN   XDIPLEN    0.480000      -99.229400       83.636899
 92   YDIPLEN   YDIPLEN    0.480000      -99.228867       83.635617
 93   ZDIPLEN   ZDIPLEN    0.480000      -99.229753       83.637752
 94   XDIPLEN   YDIPLEN    0.480000        0.000272       -0.000646
 95   XDIPLEN   ZDIPLEN    0.480000        0.000000        0.000000
 96   YDIPLEN   ZDIPLEN    0.480000        0.000000        0.000000

      Averaged value       0.480000      -99.229340       83.636756

 97   XDIPLEN   XDIPLEN    0.482500      -81.830986       52.172622
 98   YDIPLEN   YDIPLEN    0.482500      -81.830435       52.171936
 99   ZDIPLEN   ZDIPLEN    0.482500      -81.831352       52.173078
100   XDIPLEN   YDIPLEN    0.482500        0.000279       -0.000347
101   XDIPLEN   ZDIPLEN    0.482500        0.000000        0.000000
102   YDIPLEN   ZDIPLEN    0.482500        0.000000        0.000000

      Averaged value       0.482500      -81.830924       52.172545

103   XDIPLEN   XDIPLEN    0.485000      -66.092241       35.056995
104   YDIPLEN   YDIPLEN    0.485000      -66.091788       35.056604
105   ZDIPLEN   ZDIPLEN    0.485000      -66.092542       35.057256
106   XDIPLEN   YDIPLEN    0.485000        0.000228       -0.000199
107   XDIPLEN   ZDIPLEN    0.485000        0.000000        0.000000
108   YDIPLEN   ZDIPLEN    0.485000       -0.000000       -0.000000

      Averaged value       0.485000      -66.092190       35.056952

109   XDIPLEN   XDIPLEN    0.487500      -53.445071       25.087898
110   YDIPLEN   YDIPLEN    0.487500      -53.444710       25.087658
111   ZDIPLEN   ZDIPLEN    0.487500      -53.445309       25.088058
112   XDIPLEN   YDIPLEN    0.487500        0.000180       -0.000123
113   XDIPLEN   ZDIPLEN    0.487500        0.000000        0.000000
114   YDIPLEN   ZDIPLEN    0.487500        0.000000        0.000000

      Averaged value       0.487500      -53.445030       25.087871

115   XDIPLEN   XDIPLEN    0.490000      -43.396689       18.891735
116   YDIPLEN   YDIPLEN    0.490000      -43.396401       18.891579
117   ZDIPLEN   ZDIPLEN    0.490000      -43.396878       18.891839
118   XDIPLEN   YDIPLEN    0.490000        0.000142       -0.000081
119   XDIPLEN   ZDIPLEN    0.490000        0.000000        0.000000
120   YDIPLEN   ZDIPLEN    0.490000        0.000000       -0.000000

      Averaged value       0.490000      -43.396656       18.891718
 
 ------------------------------------------------------------------
 Damping parameter equals  0.004556 au = 0.1240 eV =  999.9 cm-1

 >>>> Total CPU  time used in RESPONSE:   7.61 seconds
 >>>> Total wall time used in RESPONSE:   7.66 seconds


                   .-------------------------------------------.
                   | End of Dynamic Property Section (RESPONS) |
                   `-------------------------------------------'

 >>>> Total CPU  time used in DALTON:   8.36 seconds
 >>>> Total wall time used in DALTON:   8.42 seconds

 
     Date and time (Linux)  : Sun Sep  8 20:39:42 2013
     Host name              : lpqlx131.ups-tlse.fr                    
