

     ************************************************************************
     *************** Dalton - An Electronic Structure Program ***************
     ************************************************************************

    This is output from DALTON (Release Dalton2013 patch 0)
   ----------------------------------------------------------------------------
    NOTE:
     
    Dalton is an experimental code for the evaluation of molecular
    properties using (MC)SCF, DFT, CI, and CC wave functions.
    The authors accept no responsibility for the performance of
    the code or for the correctness of the results.
     
    The code (in whole or part) is provided under a licence and
    is not to be reproduced for further distribution without
    the written permission of the authors or their representatives.
     
    See the home page "http://daltonprogram.org" for further information.
     
    If results obtained with this code are published,
    the appropriate citations would be both of:
     
       K. Aidas, C. Angeli, K. L. Bak, V. Bakken, R. Bast,
       L. Boman, O. Christiansen, R. Cimiraglia, S. Coriani,
       P. Dahle, E. K. Dalskov, U. Ekstroem, T. Enevoldsen,
       J. J. Eriksen, P. Ettenhuber, B. Fernandez, L. Ferrighi,
       H. Fliegl, L. Frediani, K. Hald, A. Halkier, C. Haettig,
       H. Heiberg, T. Helgaker, A. C. Hennum, H. Hettema,
       E. Hjertenaes, S. Hoest, I.-M. Hoeyvik, M. F. Iozzi,
       B. Jansik, H. J. Aa. Jensen, D. Jonsson, P. Joergensen,
       J. Kauczor, S. Kirpekar, T. Kjaergaard, W. Klopper,
       S. Knecht, R. Kobayashi, H. Koch, J. Kongsted, A. Krapp,
       K. Kristensen, A. Ligabue, O. B. Lutnaes, J. I. Melo,
       K. V. Mikkelsen, R. H. Myhre, C. Neiss, C. B. Nielsen,
       P. Norman, J. Olsen, J. M. H. Olsen, A. Osted,
       M. J. Packer, F. Pawlowski, T. B. Pedersen, P. F. Provasi,
       S. Reine, Z. Rinkevicius, T. A. Ruden, K. Ruud, V. Rybkin,
       P. Salek, C. C. M. Samson, A. Sanchez de Meras, T. Saue,
       S. P. A. Sauer, B. Schimmelpfennig, K. Sneskov,
       A. H. Steindal, K. O. Sylvester-Hvid, P. R. Taylor,
       A. M. Teale, E. I. Tellgren, D. P. Tew, A. J. Thorvaldsen,
       L. Thoegersen, O. Vahtras, M. A. Watson, D. J. D. Wilson,
       M. Ziolkowski and H. Agren.
       The Dalton quantum chemistry program system.
       WIREs Comput. Mol. Sci. 2013. doi: 10.1002/wcms.1172
    
    and
    
       Dalton, a Molecular Electronic Structure Program,
       Release DALTON2013.0 (2013), see http://daltonprogram.org
   ----------------------------------------------------------------------------

    Authors in alphabetical order (major contribution(s) in parenthesis):

  Kestutis Aidas,           Vilnius University,           Lithuania   (QM/MM)
  Celestino Angeli,         University of Ferrara,        Italy       (NEVPT2)
  Keld L. Bak,              UNI-C,                        Denmark     (AOSOPPA, non-adiabatic coupling, magnetic properties)
  Vebjoern Bakken,          University of Oslo,           Norway      (DALTON; geometry optimizer, symmetry detection)
  Radovan Bast,             KTH Stockholm                 Sweden      (DALTON installation and execution frameworks)
  Linus Boman,              NTNU,                         Norway      (Cholesky decomposition and subsystems)
  Ove Christiansen,         Aarhus University,            Denmark     (CC module)
  Renzo Cimiraglia,         University of Ferrara,        Italy       (NEVPT2)
  Sonia Coriani,            University of Trieste,        Italy       (CC module, MCD in RESPONS)
  Paal Dahle,               University of Oslo,           Norway      (Parallelization)
  Erik K. Dalskov,          UNI-C,                        Denmark     (SOPPA)
  Thomas Enevoldsen,        Univ. of Southern Denmark,    Denmark     (SOPPA)
  Janus J. Eriksen,         Aarhus University,            Denmark     (PE-MP2/SOPPA, TDA)
  Berta Fernandez,          U. of Santiago de Compostela, Spain       (doublet spin, ESR in RESPONS)
  Lara Ferrighi,            Aarhus University,            Denmark     (PCM Cubic response)
  Heike Fliegl,             University of Oslo,           Norway      (CCSD(R12))
  Luca Frediani,            UiT The Arctic U. of Norway,  Norway      (PCM)
  Bin Gao,                  UiT The Arctic U. of Norway,  Norway      (Gen1Int library)
  Christof Haettig,         Ruhr-University Bochum,       Germany     (CC module)
  Kasper Hald,              Aarhus University,            Denmark     (CC module)
  Asger Halkier,            Aarhus University,            Denmark     (CC module)
  Hanne Heiberg,            University of Oslo,           Norway      (geometry analysis, selected one-electron integrals)
  Trygve Helgaker,          University of Oslo,           Norway      (DALTON; ABACUS, ERI, DFT modules, London, and much more)
  Alf Christian Hennum,     University of Oslo,           Norway      (Parity violation)
  Hinne Hettema,            University of Auckland,       New Zealand (quadratic response in RESPONS; SIRIUS supersymmetry)
  Eirik Hjertenaes,         NTNU,                         Norway      (Cholesky decomposition)
  Maria Francesca Iozzi,    University of Oslo,           Norway      (RPA)
  Brano Jansik              Technical Univ. of Ostrava    Czech Rep.  (DFT cubic response)
  Hans Joergen Aa. Jensen,  Univ. of Southern Denmark,    Denmark     (DALTON; SIRIUS, RESPONS, ABACUS modules, London, and much more)
  Dan Jonsson,              UiT The Arctic U. of Norway,  Norway      (cubic response in RESPONS module)
  Poul Joergensen,          Aarhus University,            Denmark     (RESPONS, ABACUS, and CC modules)
  Joanna Kauczor,           Linkoeping University,        Sweden      (Complex polarization propagator (CPP) module)
  Sheela Kirpekar,          Univ. of Southern Denmark,    Denmark     (Mass-velocity & Darwin integrals)
  Wim Klopper,              KIT Karlsruhe,                Germany     (R12 code in CC, SIRIUS, and ABACUS modules)
  Stefan Knecht,            ETH Zurich,                   Switzerland (Parallel CI and MCSCF)
  Rika Kobayashi,           Australian National Univ.,    Australia   (DIIS in CC, London in MCSCF)
  Henrik Koch,              NTNU,                         Norway      (CC module, Cholesky decomposition)
  Jacob Kongsted,           Univ. of Southern Denmark,    Denmark     (Polarizable embedding, QM/MM)
  Andrea Ligabue,           University of Modena,         Italy       (CTOCD, AOSOPPA)
  Ola B. Lutnaes,           University of Oslo,           Norway      (DFT Hessian)
  Juan I. Melo,             University of Buenos Aires,   Argentina   (LRESC, Relativistic Effects on NMR Shieldings)
  Kurt V. Mikkelsen,        University of Copenhagen,     Denmark     (MC-SCRF and QM/MM)
  Rolf H. Myhre,            NTNU,                         Norway      (Cholesky, subsystems and ECC2)
  Christian Neiss,          Univ. Erlangen-Nuernberg,     Germany     (CCSD(R12))
  Christian B. Nielsen,     University of Copenhagen,     Denmark     (QM/MM)
  Patrick Norman,           Linkoeping University,        Sweden      (Cubic response and complex response in RESPONS)
  Jeppe Olsen,              Aarhus University,            Denmark     (SIRIUS CI/density modules)
  Jogvan Magnus H. Olsen,   Univ. of Southern Denmark,    Denmark     (Polarizable embedding, PE library, QM/MM)
  Anders Osted,             Copenhagen University,        Denmark     (QM/MM)
  Martin J. Packer,         University of Sheffield,      UK          (SOPPA)
  Filip Pawlowski,          Kazimierz Wielki University   Poland      (CC3)
  Thomas B. Pedersen,       University of Oslo,           Norway      (Cholesky decomposition)
  Patricio F. Provasi,      University of Northeastern,   Argentina   (Analysis of coupling constants in localized orbitals)
  Zilvinas Rinkevicius,     KTH Stockholm,                Sweden      (open-shell DFT, ESR)
  Elias Rudberg,            KTH Stockholm,                Sweden      (DFT grid and basis info)
  Torgeir A. Ruden,         University of Oslo,           Norway      (Numerical derivatives in ABACUS)
  Kenneth Ruud,             UiT The Arctic U. of Norway,  Norway      (DALTON; ABACUS magnetic properties and  much more)
  Pawel Salek,              KTH Stockholm,                Sweden      (DALTON; DFT code)
  Claire C. M. Samson       University of Karlsruhe       Germany     (Boys localization, r12 integrals in ERI)
  Alfredo Sanchez de Meras, University of Valencia,       Spain       (CC module, Cholesky decomposition)
  Trond Saue,               Paul Sabatier University,     France      (direct Fock matrix construction)
  Stephan P. A. Sauer,      University of Copenhagen,     Denmark     (SOPPA(CCSD), SOPPA prop., AOSOPPA, vibrational g-factors)
  Bernd Schimmelpfennig,    Forschungszentrum Karlsruhe,  Germany     (AMFI module)
  Kristian Sneskov,         Aarhus University,            Denmark     (QM/MM, PE-CC)
  Arnfinn H. Steindal,      UiT The Arctic U. of Norway,  Norway      (parallel QM/MM)
  K. O. Sylvester-Hvid,     University of Copenhagen,     Denmark     (MC-SCRF)
  Peter R. Taylor,          VLSCI/Univ. of Melbourne,     Australia   (Symmetry handling ABACUS, integral transformation)
  Andrew M. Teale,          University of Nottingham,     England     (DFT-AC, DFT-D)
  David P. Tew,             University of Bristol,        England     (CCSD(R12))
  Olav Vahtras,             KTH Stockholm,                Sweden      (triplet response, spin-orbit, ESR, TDDFT, open-shell DFT)
  David J. Wilson,          La Trobe University,          Australia   (DFT Hessian and DFT magnetizabilities)
  Hans Agren,               KTH Stockholm,                Sweden      (SIRIUS module, RESPONS, MC-SCRF solvation model)
 --------------------------------------------------------------------------------

     Date and time (Linux)  : Sun Sep  8 20:39:08 2013
     Host name              : lpqlx131.ups-tlse.fr                    

 * Work memory size             :    64000000 =  488.28 megabytes.

 * Directories for basis set searches:
   1) /home/bast/DALTON-2013.0-Source/build/test_rsp_ecp
   2) /home/bast/DALTON-2013.0-Source/build/basis


Compilation information
-----------------------

 Who compiled             | bast
 Host                     | lpqlx131.ups-tlse.fr
 System                   | Linux-3.8.5-201.fc18.x86_64
 CMake generator          | Unix Makefiles
 Processor                | x86_64
 64-bit integers          | OFF
 MPI                      | OFF
 Fortran compiler         | /usr/bin/gfortran
 Fortran compiler version | GNU Fortran (GCC) 4.7.2 20121109 (Red Hat 4.7.2-8)
 C compiler               | /usr/bin/gcc
 C compiler version       | gcc (GCC) 4.7.2 20121109 (Red Hat 4.7.2-8)
 C++ compiler             | /usr/bin/g++
 C++ compiler version     | g++ (GCC) 4.7.2 20121109 (Red Hat 4.7.2-8)
 Static linking           | OFF
 Last Git revision        | f34203295a86316e27f9e7b44f9b6769c4a046c0
 Configuration time       | 2013-09-08 20:31:27.952056


   Content of the .dal input file
 ----------------------------------

**DALTON INPUT                                    
.RUN RESPONSE                                     
**WAVE FUNCTIONS                                  
.HF                                               
*SCF INPUT                                        
.DOUBLY OCCUPIED                                  
 2 1 1 0                                          
*ORBITAL                                          
.MOSTART                                          
 HUCKEL                                           
**RESPONSE                                        
*CUBIC                                            
.DIPLEN                                           
.THCLR                                            
1.0D-6                                            
**END OF DALTON INPUT                             


   Content of the .mol file
 ----------------------------

ATOMBASIS                                                                      
ECP test on H2O                                                                
----------------                                                               
Atomtypes=2 Generators=2 X Y                                                   
Charge=8.0 Atoms=1 Basis=ecp-sdd-DZ ECP=ecp-sdd-DZ                             
O       0.000000000000           0.0000000000           -0.1161156955          
Charge=1.0 Atoms=1 Basis=6-31G*                                                
H       0.000000000000           1.3457079896            0.9214202268          


       *******************************************************************
       *********** Output from DALTON general input processing ***********
       *******************************************************************

 --------------------------------------------------------------------------------
   Overall default print level:    0
   Print level for DALTON.STAT:    1

    HERMIT 1- and 2-electron integral sections will be executed
    "Old" integral transformation used (limited to max 255 basis functions)
    Wave function sections will be executed (SIRIUS module)
    Dynamic molecular response properties section will be executed (RESPONSE module)
 --------------------------------------------------------------------------------


   ****************************************************************************
   *************** Output of molecule and basis set information ***************
   ****************************************************************************


    The two title cards from your ".mol" input:
    ------------------------------------------------------------------------
 1: ECP test on H2O                                                         
 2: ----------------                                                        
    ------------------------------------------------------------------------

  Atomic type no.    1
  --------------------
  Nuclear charge:   8.00000
  Number of symmetry independent centers:    1
  Number of basis sets to read;    2
     "/home/bast/DALTON-2013.0-Source/build/basis/ecp_data/ecp-sdd-DZ"
     Pseudo potential parameters for ECP type  1.
     -----------------------------------------------
     Atomic charge  :  8.0
     Effectiv charge:  6.0
     Core electrons :    2
     Max angular mom:    2
  The basis set is "ecp-sdd-DZ ECP=ecp-sdd-DZ" from the basis set library.
  Basis set file used for this atomic type with Z =   8 :
     "/home/bast/DALTON-2013.0-Source/build/basis/ecp-sdd-DZ"

  Atomic type no.    2
  --------------------
  Nuclear charge:   1.00000
  Number of symmetry independent centers:    1
  Number of basis sets to read;    2
  The basis set is "6-31G*" from the basis set library.
  Basis set file used for this atomic type with Z =   1 :
     "/home/bast/DALTON-2013.0-Source/build/basis/6-31G*"

  Info about the basis set file: your basis has no documentation.
  Basis set: 6-31G*                                                                          


                         SYMGRP: Point group information
                         -------------------------------

Point group: C2v

   * The point group was generated by:

      Reflection in the yz-plane
      Reflection in the xz-plane

   * Group multiplication table

        |  E   C2z  Oxz  Oyz
   -----+--------------------
     E  |  E   C2z  Oxz  Oyz
    C2z | C2z   E   Oyz  Oxz
    Oxz | Oxz  Oyz   E   C2z
    Oyz | Oyz  Oxz  C2z   E 

   * Character table

        |  E   C2z  Oxz  Oyz
   -----+--------------------
    A1  |   1    1    1    1
    B1  |   1   -1    1   -1
    B2  |   1   -1   -1    1
    A2  |   1    1   -1   -1

   * Direct product table

        | A1   B1   B2   A2 
   -----+--------------------
    A1  | A1   B1   B2   A2 
    B1  | B1   A1   A2   B2 
    B2  | B2   A2   A1   B1 
    A2  | A2   B2   B1   A1 


                                 Isotopic Masses
                                 ---------------

                           O          15.994915
                           H   _1      1.007825
                           H   _2      1.007825

                       Total mass:    18.010565 amu
                       Natural abundance:  99.730 %

 Center-of-mass coordinates (a.u.):    0.000000    0.000000    0.000000


  Atoms and basis sets
  --------------------

  Number of atom types :    2
  Total number of atoms:    3

  label    atoms   charge   prim   cont     basis
  ----------------------------------------------------------------------
  O           1    6.0000    16     8      [4s4p|2s2p]                                        
  H           2    1.0000     4     2      [4s|2s]                                            
  ----------------------------------------------------------------------
  total:      3    8.0000    24    12
  ----------------------------------------------------------------------

  Threshold for neglecting AO integrals:  1.00D-12


  Cartesian Coordinates (a.u.)
  ----------------------------

  Total number of coordinates:    9
  O       :     1  x   0.0000000000    2  y   0.0000000000    3  z  -0.1161156955
  H   / 1 :     4  x   0.0000000000    5  y   1.3457079896    6  z   0.9214202268
  H   / 2 :     7  x   0.0000000000    8  y  -1.3457079896    9  z   0.9214202268


  Symmetry Coordinates
  --------------------

  Number of coordinates in each symmetry:     3    2    3    1

  Symmetry  A1  ( 1)

    1   O     z    3
    2   H     y    [  5  -    8 ]/2
    3   H     z    [  6  +    9 ]/2

  Symmetry  B1  ( 2)

    4   O     x    1
    5   H     x    [  4  +    7 ]/2

  Symmetry  B2  ( 3)

    6   O     y    2
    7   H     y    [  5  +    8 ]/2
    8   H     z    [  6  -    9 ]/2

  Symmetry  A2  ( 4)

    9   H     x    [  4  -    7 ]/2


   Interatomic separations (in Angstrom):
   --------------------------------------

            O           H   _1      H   _2
            ------      ------      ------
 O     :    0.000000
 H   _1:    0.899198    0.000000
 H   _2:    0.899198    1.424236    0.000000


  Max    interatomic separation is    1.4242 Angstrom (    2.6914 Bohr)
  between atoms    3 and    2, "H   _2" and "H   _1".

  Min HX interatomic separation is    0.8992 Angstrom (    1.6992 Bohr)


  Bond distances (Angstrom):
  --------------------------

                  atom 1     atom 2       distance
                  ------     ------       --------
  bond distance:  H   _1     O            0.899198
  bond distance:  H   _2     O            0.899198


  Bond angles (degrees):
  ----------------------

                  atom 1     atom 2     atom 3         angle
                  ------     ------     ------         -----
  bond angle:     H   _1     O          H   _2       104.736




 Principal moments of inertia (u*A**2) and principal axes
 --------------------------------------------------------

   IA       0.539608          0.000000    1.000000    0.000000
   IB       1.022160          0.000000    0.000000    1.000000
   IC       1.561768          1.000000    0.000000    0.000000


 Rotational constants
 --------------------

 The molecule is planar.

               A                   B                   C

         936567.1582         494422.4093         323594.1067 MHz
           31.240518           16.492156           10.793938 cm-1


@  Nuclear repulsion energy :    7.433539368126 Hartree


  Symmetry Orbitals
  -----------------

  Number of orbitals in each symmetry:           6    2    4    0


  Symmetry  A1 ( 1)

    1     O        1s         1
    2     O        1s         2
    3     O        2pz        5
    4     O        2pz        8
    5     H        1s         9 +   10
    6     H        1s        11 +   12


  Symmetry  B1 ( 2)

    7     O        2px        3
    8     O        2px        6


  Symmetry  B2 ( 3)

    9     O        2py        4
   10     O        2py        7
   11     H        1s         9 -   10
   12     H        1s        11 -   12


  No orbitals in symmetry  A2 ( 4)

  Symmetries of electric field:  B1 (2)  B2 (3)  A1 (1)

  Symmetries of magnetic field:  B2 (3)  B1 (2)  A2 (4)


                     .---------------------------------------.
                     | Starting in Integral Section (HERMIT) |
                     `---------------------------------------'



    *************************************************************************
    ****************** Output from HERMIT input processing ******************
    *************************************************************************



     ************************************************************************
     ************************** Output from HERINT **************************
     ************************************************************************


 Threshold for neglecting two-electron integrals:  1.00D-12
 Number of two-electron integrals written:         929 ( 30.2% )
 Megabytes written:                              0.014

 >>>> Total CPU  time used in HERMIT:   0.00 seconds
 >>>> Total wall time used in HERMIT:   0.00 seconds


                        .----------------------------------.
                        | End of Integral Section (HERMIT) |
                        `----------------------------------'



                   .--------------------------------------------.
                   | Starting in Wave Function Section (SIRIUS) |
                   `--------------------------------------------'


 *** Output from Huckel module :

     Using EWMO model:          F
     Using EHT  model:          T
     Number of Huckel orbitals each symmetry:    3    1    2    0

 Huckel EHT eigenvalues for symmetry :  1
           -1.543251      -0.670657      -0.293429

 Huckel EHT eigenvalues for symmetry :  2
           -0.616200

 Huckel EHT eigenvalues for symmetry :  3
           -0.732125      -0.243338

 **********************************************************************
 *SIRIUS* a direct, restricted step, second order MCSCF program       *
 **********************************************************************

 
     Date and time (Linux)  : Sun Sep  8 20:39:08 2013
     Host name              : lpqlx131.ups-tlse.fr                    

 Title lines from ".mol" input file:
     ECP test on H2O                                                         
     ----------------                                                        

 Print level on unit LUPRI =   2 is   0
 Print level on unit LUW4  =   2 is   5

@    Restricted, closed shell Hartree-Fock calculation.

@    Time-dependent Hartree-Fock calculation (random phase approximation).

 Initial molecular orbitals are obtained according to
 ".MOSTART EHT   " input option

     Wave function specification
     ============================
@    For the wave function of type :      >>> HF <<<
@    Number of closed shell electrons           8
@    Number of electrons in active shells       0
@    Total charge of the molecule               0

@    Spin multiplicity and 2 M_S                1         0
     Total number of symmetries                 4
@    Reference state symmetry                   1

     Orbital specifications
     ======================
     Abelian symmetry species          All |    1    2    3    4
                                       --- |  ---  ---  ---  ---
@    Occupied SCF orbitals               4 |    2    1    1    0
     Secondary orbitals                  8 |    4    1    3    0
     Total number of orbitals           12 |    6    2    4    0
     Number of basis functions          12 |    6    2    4    0

     Optimization information
     ========================
@    Number of configurations                 1
@    Number of orbital rotations             12
     ------------------------------------------
@    Total number of variables               13

     Maximum number of Fock   iterations      0
     Maximum number of DIIS   iterations     60
     Maximum number of QC-SCF iterations     60
     Threshold for SCF convergence     1.00D-05


 >>>>> DIIS optimization of Hartree-Fock <<<<<

 C1-DIIS algorithm; max error vectors =   10

 Iter      Total energy        Error norm    Delta(E)  DIIS dim.
 -----------------------------------------------------------------------------
     (Precalculated two-electron integrals are transformed to P-supermatrix elements.
      Threshold for discarding integrals :  1.00D-12 )
@  1    -16.6590806663        1.59133D+00   -1.67D+01    1
      Virial theorem: -V/T =      2.203695
@      MULPOP O      -0.39; H   _1  0.19; H   _2  0.19; 
 -----------------------------------------------------------------------------
@  2    -16.8697785174        3.83196D-01   -2.11D-01    2
      Virial theorem: -V/T =      2.185446
@      MULPOP O      -0.68; H   _1  0.34; H   _2  0.34; 
 -----------------------------------------------------------------------------
@  3    -16.8792164961        1.77766D-01   -9.44D-03    3
      Virial theorem: -V/T =      2.235889
@      MULPOP O      -0.68; H   _1  0.34; H   _2  0.34; 
 -----------------------------------------------------------------------------
@  4    -16.8806362603        1.47226D-02   -1.42D-03    4
      Virial theorem: -V/T =      2.218163
@      MULPOP O      -0.72; H   _1  0.36; H   _2  0.36; 
 -----------------------------------------------------------------------------
@  5    -16.8806543788        2.91246D-03   -1.81D-05    5
      Virial theorem: -V/T =      2.217849
@      MULPOP O      -0.72; H   _1  0.36; H   _2  0.36; 
 -----------------------------------------------------------------------------
@  6    -16.8806549515        5.49430D-04   -5.73D-07    6
      Virial theorem: -V/T =      2.218198
@      MULPOP O      -0.72; H   _1  0.36; H   _2  0.36; 
 -----------------------------------------------------------------------------
@  7    -16.8806549693        3.66590D-05   -1.78D-08    7
      Virial theorem: -V/T =      2.218135
@      MULPOP O      -0.72; H   _1  0.36; H   _2  0.36; 
 -----------------------------------------------------------------------------
@  8    -16.8806549694        5.44646D-06   -1.03D-10    8

@ *** DIIS converged in   8 iterations !
@     Converged SCF energy, gradient:    -16.880654969398    5.45D-06
    - total time used in SIRFCK :              0.00 seconds


 *** SCF orbital energy analysis ***

 Only the five lowest virtual orbital energies printed in each symmetry.

 Number of electrons :    8
 Orbital occupations :    2    1    1    0

 Sym       Hartree-Fock orbital energies

  1     -1.39064155    -0.56273493     0.22532706     1.28289709     1.29202083
         2.37245834

  2     -0.50027222     1.24483757

  3     -0.73916801     0.31979430     1.09988846     1.47877543

    E(LUMO) :     0.22532706 au (symmetry 1)
  - E(HOMO) :    -0.50027222 au (symmetry 2)
  ------------------------------------------
    gap     :     0.72559929 au

 >>> Writing SIRIFC interface file <<<

 >>>> CPU and wall time for SCF :       0.003       0.004


                       .-----------------------------------.
                       | >>> Final results from SIRIUS <<< |
                       `-----------------------------------'


@    Spin multiplicity:           1
@    Spatial symmetry:            1
@    Total charge of molecule:    0

@    Final HF energy:             -16.880654969398                 
@    Nuclear repulsion:             7.433539368126
@    Electronic energy:           -24.314194337523

@    Final gradient norm:           0.000005446458

 
     Date and time (Linux)  : Sun Sep  8 20:39:08 2013
     Host name              : lpqlx131.ups-tlse.fr                    

 (Only coefficients >0.0100 are printed.)

 Molecular orbitals for symmetry species  1
 ------------------------------------------

    Orbital         1        2        3        4
   1 O   :1s    -0.4327   0.1645   0.1032  -0.1619
   2 O   :1s     0.4336  -0.3152  -1.1506   0.2630
   3 O   :2pz    0.1264   0.5400  -0.2065  -0.9396
   4 O   :2pz    0.0495   0.4230  -0.4158   1.2363
   5 H   :1s     0.1545   0.1414   0.0388  -0.2124
   6 H   :1s     0.0070   0.0572   0.9642  -0.1858

 Molecular orbitals for symmetry species  2
 ------------------------------------------

    Orbital         1        2
   1 O   :2px    0.6231   0.9738
   2 O   :2px    0.5296  -1.0277

 Molecular orbitals for symmetry species  3
 ------------------------------------------

    Orbital         1        2        3
   1 O   :2py    0.5000  -0.3111   0.0824
   2 O   :2py    0.2649  -0.8168   0.9496
   3 H   :1s     0.2752   0.0219  -0.9959
   4 H   :1s     0.1157   1.4738   0.3405



 >>>> Total CPU  time used in SIRIUS :      0.01 seconds
 >>>> Total wall time used in SIRIUS :      0.01 seconds

 
     Date and time (Linux)  : Sun Sep  8 20:39:08 2013
     Host name              : lpqlx131.ups-tlse.fr                    


                     .---------------------------------------.
                     | End of Wave Function Section (SIRIUS) |
                     `---------------------------------------'



                 .------------------------------------------------.
                 | Starting in Dynamic Property Section (RESPONS) |
                 `------------------------------------------------'


 ------------------------------------------------------------------------------
  RESPONSE  -  an MCSCF, MC-srDFT, DFT, and SOPPA response property program
 ------------------------------------------------------------------------------


 <<<<<<<<<< OUTPUT FROM RESPONSE INPUT PROCESSING >>>>>>>>>>




 Variable settings for Cubic Response calculation
 ------------------------------------------------

 Second hyperpolarizability calculation :  CRCAL= T

  1 B-frequencies  0.000000D+00
  1 C-frequencies  0.000000D+00
  1 D-frequencies  0.000000D+00

 Print level                                    : IPRCR  =   2
 Threshold for non-zero norm of property vectors: THRNRM = 1.000D-09
 Threshold for convergence of lin. resp. eq.s   : THCLR  = 1.000D-06
 Maximum number of iterations in LR solver      : MAXITL =  60
 Direct one-index transformation                : DIROIT = T

    1 A OPERATORS OF SYMMETRY NO:    1 AND LABELS:

          ZDIPLEN 

    1 A OPERATORS OF SYMMETRY NO:    2 AND LABELS:

          XDIPLEN 

    1 A OPERATORS OF SYMMETRY NO:    3 AND LABELS:

          YDIPLEN 

    1 B OPERATORS OF SYMMETRY NO:    1 AND LABELS:

          ZDIPLEN 

    1 B OPERATORS OF SYMMETRY NO:    2 AND LABELS:

          XDIPLEN 

    1 B OPERATORS OF SYMMETRY NO:    3 AND LABELS:

          YDIPLEN 

    1 C OPERATORS OF SYMMETRY NO:    1 AND LABELS:

          ZDIPLEN 

    1 C OPERATORS OF SYMMETRY NO:    2 AND LABELS:

          XDIPLEN 

    1 C OPERATORS OF SYMMETRY NO:    3 AND LABELS:

          YDIPLEN 

    1 D OPERATORS OF SYMMETRY NO:    1 AND LABELS:

          ZDIPLEN 

    1 D OPERATORS OF SYMMETRY NO:    2 AND LABELS:

          XDIPLEN 

    1 D OPERATORS OF SYMMETRY NO:    3 AND LABELS:

          YDIPLEN 

 Integral transformation: Total CPU and WALL times (sec)       0.001       0.001


   SCF energy         :      -16.880654969397678
 -- inactive part     :      -24.314194337523212
 -- nuclear repulsion :        7.433539368125533


                     ***************************************
                     *** RHF response calculation (TDHF) ***
                     ***************************************



 <<<<< Solving set of linear response equations for cubic response >>>>>



 Perturbation symmetry.     KSYMOP:       1
 Perturbation spin symmetry.TRPLET:       F
 Orbital variables.         KZWOPT:      12
 Configuration variables.   KZCONF:       0
 Total number of variables. KZVAR :      12


 CRLRV1 -- linear response calculation for symmetry  1
 CRLRV1 -- operator label : ZDIPLEN 
 CRLRV1 -- frequencies :  0.000000



 <<<  SOLVING SETS OF LINEAR EQUATIONS FOR LINEAR RESPONSE PROPERTIES >>>

 Operator symmetry =  1; triplet =   F


 *** THE REQUESTED    1 SOLUTION VECTORS CONVERGED

 Convergence of RSP solution vectors, threshold = 1.00D-06
 ---------------------------------------------------------------
 (dimension of paired reduced space:   16)
 RSP solution vector no.    1; norm of residual   4.80D-08

 *** RSPCTL MICROITERATIONS CONVERGED

    ZDIPLEN       freq            LR value
 -----------------------------------------
              0.000000          3.67943491


 Perturbation symmetry.     KSYMOP:       2
 Perturbation spin symmetry.TRPLET:       F
 Orbital variables.         KZWOPT:       6
 Configuration variables.   KZCONF:       0
 Total number of variables. KZVAR :       6


 CRLRV1 -- linear response calculation for symmetry  2
 CRLRV1 -- operator label : XDIPLEN 
 CRLRV1 -- frequencies :  0.000000



 <<<  SOLVING SETS OF LINEAR EQUATIONS FOR LINEAR RESPONSE PROPERTIES >>>

 Operator symmetry =  2; triplet =   F


 *** THE REQUESTED    1 SOLUTION VECTORS CONVERGED

 Convergence of RSP solution vectors, threshold = 1.00D-06
 ---------------------------------------------------------------
 (dimension of paired reduced space:   12)
 RSP solution vector no.    1; norm of residual   4.96D-16

 *** RSPCTL MICROITERATIONS CONVERGED

    XDIPLEN       freq            LR value
 -----------------------------------------
              0.000000          1.33169566


 Perturbation symmetry.     KSYMOP:       3
 Perturbation spin symmetry.TRPLET:       F
 Orbital variables.         KZWOPT:      10
 Configuration variables.   KZCONF:       0
 Total number of variables. KZVAR :      10


 CRLRV1 -- linear response calculation for symmetry  3
 CRLRV1 -- operator label : YDIPLEN 
 CRLRV1 -- frequencies :  0.000000



 <<<  SOLVING SETS OF LINEAR EQUATIONS FOR LINEAR RESPONSE PROPERTIES >>>

 Operator symmetry =  3; triplet =   F


 *** THE REQUESTED    1 SOLUTION VECTORS CONVERGED

 Convergence of RSP solution vectors, threshold = 1.00D-06
 ---------------------------------------------------------------
 (dimension of paired reduced space:   12)
 RSP solution vector no.    1; norm of residual   2.92D-07

 *** RSPCTL MICROITERATIONS CONVERGED

    YDIPLEN       freq            LR value
 -----------------------------------------
              0.000000          5.38274107


 Perturbation symmetry.     KSYMOP:       4
 Perturbation spin symmetry.TRPLET:       F
 Orbital variables.         KZWOPT:       4
 Configuration variables.   KZCONF:       0
 Total number of variables. KZVAR :       4


 Perturbation symmetry.     KSYMOP:       1
 Perturbation spin symmetry.TRPLET:       F
 Orbital variables.         KZWOPT:      12
 Configuration variables.   KZCONF:       0
 Total number of variables. KZVAR :      12


 CRLRV2 -- linear response calc for sym:  1
 CRLRV2 -- operator label1: ZDIPLEN 
 CRLRV2 -- operator label2: ZDIPLEN 
 CRLRV2 -- freqr1 :   0.000000D+00
 CRLRV2 -- freqr2 :   0.000000D+00



 <<<  SOLVING SETS OF LINEAR EQUATIONS FOR LINEAR RESPONSE PROPERTIES >>>

 Operator symmetry =  1; triplet =   F


 *** THE REQUESTED    1 SOLUTION VECTORS CONVERGED

 Convergence of RSP solution vectors, threshold = 1.00D-06
 ---------------------------------------------------------------
 (dimension of paired reduced space:   14)
 RSP solution vector no.    1; norm of residual   9.21D-07

 *** RSPCTL MICROITERATIONS CONVERGED
    ZDIPLEN     ZDIPLEN      freq1     freq2                Norm
 ---------------------------------------------------------------
                          0.000000  0.000000          6.42157114


 Perturbation symmetry.     KSYMOP:       2
 Perturbation spin symmetry.TRPLET:       F
 Orbital variables.         KZWOPT:       6
 Configuration variables.   KZCONF:       0
 Total number of variables. KZVAR :       6


 CRLRV2 -- linear response calc for sym:  2
 CRLRV2 -- operator label1: XDIPLEN 
 CRLRV2 -- operator label2: ZDIPLEN 
 CRLRV2 -- freqr1 :   0.000000D+00
 CRLRV2 -- freqr2 :   0.000000D+00



 <<<  SOLVING SETS OF LINEAR EQUATIONS FOR LINEAR RESPONSE PROPERTIES >>>

 Operator symmetry =  2; triplet =   F


 *** THE REQUESTED    1 SOLUTION VECTORS CONVERGED

 Convergence of RSP solution vectors, threshold = 1.00D-06
 ---------------------------------------------------------------
 (dimension of paired reduced space:   12)
 RSP solution vector no.    1; norm of residual   5.93D-16

 *** RSPCTL MICROITERATIONS CONVERGED
    XDIPLEN     ZDIPLEN      freq1     freq2                Norm
 ---------------------------------------------------------------
                          0.000000  0.000000          2.70151086


 Perturbation symmetry.     KSYMOP:       3
 Perturbation spin symmetry.TRPLET:       F
 Orbital variables.         KZWOPT:      10
 Configuration variables.   KZCONF:       0
 Total number of variables. KZVAR :      10


 CRLRV2 -- linear response calc for sym:  3
 CRLRV2 -- operator label1: YDIPLEN 
 CRLRV2 -- operator label2: ZDIPLEN 
 CRLRV2 -- freqr1 :   0.000000D+00
 CRLRV2 -- freqr2 :   0.000000D+00



 <<<  SOLVING SETS OF LINEAR EQUATIONS FOR LINEAR RESPONSE PROPERTIES >>>

 Operator symmetry =  3; triplet =   F


 *** THE REQUESTED    1 SOLUTION VECTORS CONVERGED

 Convergence of RSP solution vectors, threshold = 1.00D-06
 ---------------------------------------------------------------
 (dimension of paired reduced space:   12)
 RSP solution vector no.    1; norm of residual   2.34D-07

 *** RSPCTL MICROITERATIONS CONVERGED
    YDIPLEN     ZDIPLEN      freq1     freq2                Norm
 ---------------------------------------------------------------
                          0.000000  0.000000          6.93298625


 Perturbation symmetry.     KSYMOP:       1
 Perturbation spin symmetry.TRPLET:       F
 Orbital variables.         KZWOPT:      12
 Configuration variables.   KZCONF:       0
 Total number of variables. KZVAR :      12


 CRLRV2 -- linear response calc for sym:  1
 CRLRV2 -- operator label1: XDIPLEN 
 CRLRV2 -- operator label2: XDIPLEN 
 CRLRV2 -- freqr1 :   0.000000D+00
 CRLRV2 -- freqr2 :   0.000000D+00



 <<<  SOLVING SETS OF LINEAR EQUATIONS FOR LINEAR RESPONSE PROPERTIES >>>

 Operator symmetry =  1; triplet =   F


 *** THE REQUESTED    1 SOLUTION VECTORS CONVERGED

 Convergence of RSP solution vectors, threshold = 1.00D-06
 ---------------------------------------------------------------
 (dimension of paired reduced space:   16)
 RSP solution vector no.    1; norm of residual   3.47D-08

 *** RSPCTL MICROITERATIONS CONVERGED
    XDIPLEN     XDIPLEN      freq1     freq2                Norm
 ---------------------------------------------------------------
                          0.000000  0.000000          1.51380568


 Perturbation symmetry.     KSYMOP:       1
 Perturbation spin symmetry.TRPLET:       F
 Orbital variables.         KZWOPT:      12
 Configuration variables.   KZCONF:       0
 Total number of variables. KZVAR :      12


 CRLRV2 -- linear response calc for sym:  1
 CRLRV2 -- operator label1: YDIPLEN 
 CRLRV2 -- operator label2: YDIPLEN 
 CRLRV2 -- freqr1 :   0.000000D+00
 CRLRV2 -- freqr2 :   0.000000D+00



 <<<  SOLVING SETS OF LINEAR EQUATIONS FOR LINEAR RESPONSE PROPERTIES >>>

 Operator symmetry =  1; triplet =   F


 *** THE REQUESTED    1 SOLUTION VECTORS CONVERGED

 Convergence of RSP solution vectors, threshold = 1.00D-06
 ---------------------------------------------------------------
 (dimension of paired reduced space:   16)
 RSP solution vector no.    1; norm of residual   4.21D-08

 *** RSPCTL MICROITERATIONS CONVERGED
    YDIPLEN     YDIPLEN      freq1     freq2                Norm
 ---------------------------------------------------------------
                          0.000000  0.000000          7.64102079


 Perturbation symmetry.     KSYMOP:       4
 Perturbation spin symmetry.TRPLET:       F
 Orbital variables.         KZWOPT:       4
 Configuration variables.   KZCONF:       0
 Total number of variables. KZVAR :       4


 CRLRV2 -- linear response calc for sym:  4
 CRLRV2 -- operator label1: YDIPLEN 
 CRLRV2 -- operator label2: XDIPLEN 
 CRLRV2 -- freqr1 :   0.000000D+00
 CRLRV2 -- freqr2 :   0.000000D+00



 <<<  SOLVING SETS OF LINEAR EQUATIONS FOR LINEAR RESPONSE PROPERTIES >>>

 Operator symmetry =  4; triplet =   F


 *** THE REQUESTED    1 SOLUTION VECTORS CONVERGED

 Convergence of RSP solution vectors, threshold = 1.00D-06
 ---------------------------------------------------------------
 (dimension of paired reduced space:    8)
 RSP solution vector no.    1; norm of residual   4.78D-16

 *** RSPCTL MICROITERATIONS CONVERGED
    YDIPLEN     XDIPLEN      freq1     freq2                Norm
 ---------------------------------------------------------------
                          0.000000  0.000000          3.04899297


 <<<<< CALCULATING CONTRIBUTIONS TO SECOND HYPERPOLARIZABILITY >>>>>


   Contribution                Term         Accumulated
 ------------------------------------------------------
Contribution from C4FOCK:      3.927117162499
 Na T[4] Nb Nc Nd       -3.92711716         -3.92711716
 Na T[3] Nx Nyz         26.53622960         22.60911244
 Na X[3] Ny Nz          28.85424702         51.46335946
 Nx A[3] Ny Nz           9.61808234         61.08144179
 Na X[2] Nyz           -79.49724895        -18.41580715
 Nx A[2] Nyz           -79.49724895        -97.91305610

@ Cubic response function value in a.u. for
@ A operator, symmetry, frequency:   ZDIPLEN    1 -0.000000
@ B operator, symmetry, frequency:   ZDIPLEN    1  0.000000
@ C operator, symmetry, frequency:   ZDIPLEN    1  0.000000
@ D operator, symmetry, frequency:   ZDIPLEN    1  0.000000

@ << A; B, C, D >>  =         -97.91305610



   Contribution                Term         Accumulated
 ------------------------------------------------------
Contribution from C4FOCK:     -0.394066904200
 Na T[4] Nb Nc Nd        0.39406690          0.39406690
 Na T[3] Nx Nyz          2.75109322          3.14516012
 Na X[3] Ny Nz           2.36664057          5.51180069
 Nx A[3] Ny Nz           0.69696625          6.20876694
 Na X[2] Nyz           -13.32443876         -7.11567182
 Nx A[2] Nyz            -5.10520850        -12.22088032

@ Cubic response function value in a.u. for
@ A operator, symmetry, frequency:   XDIPLEN    2 -0.000000
@ B operator, symmetry, frequency:   XDIPLEN    2  0.000000
@ C operator, symmetry, frequency:   ZDIPLEN    1  0.000000
@ D operator, symmetry, frequency:   ZDIPLEN    1  0.000000

@ << A; B, C, D >>  =         -12.22088032



   Contribution                Term         Accumulated
 ------------------------------------------------------
Contribution from C4FOCK:     14.046450775548
 Na T[4] Nb Nc Nd      -14.04645078        -14.04645078
 Na T[3] Nx Nyz         11.03447298         -3.01197780
 Na X[3] Ny Nz          37.08533650         34.07335870
 Nx A[3] Ny Nz          12.50849747         46.58185617
 Na X[2] Nyz           -77.77976927        -31.19791310
 Nx A[2] Nyz           -93.45840805       -124.65632114

@ Cubic response function value in a.u. for
@ A operator, symmetry, frequency:   YDIPLEN    3 -0.000000
@ B operator, symmetry, frequency:   YDIPLEN    3  0.000000
@ C operator, symmetry, frequency:   ZDIPLEN    1  0.000000
@ D operator, symmetry, frequency:   ZDIPLEN    1  0.000000

@ << A; B, C, D >>  =        -124.65632114



   Contribution                Term         Accumulated
 ------------------------------------------------------
Contribution from C4FOCK:      1.017067273059
 Na T[4] Nb Nc Nd       -1.01706727         -1.01706727
 Na T[3] Nx Nyz         -0.50534806         -1.52241534
 Na X[3] Ny Nz           6.37357345          4.85115812
 Nx A[3] Ny Nz           2.12452448          6.97568260
 Na X[2] Nyz            -7.35769054         -0.38200794
 Nx A[2] Nyz            -7.35769054         -7.73969848

@ Cubic response function value in a.u. for
@ A operator, symmetry, frequency:   XDIPLEN    2 -0.000000
@ B operator, symmetry, frequency:   XDIPLEN    2  0.000000
@ C operator, symmetry, frequency:   XDIPLEN    2  0.000000
@ D operator, symmetry, frequency:   XDIPLEN    2  0.000000

@ << A; B, C, D >>  =          -7.73969848



   Contribution                Term         Accumulated
 ------------------------------------------------------
Contribution from C4FOCK:     -1.094491678234
 Na T[4] Nb Nc Nd        1.09449168          1.09449168
 Na T[3] Nx Nyz          1.84288320          2.93737488
 Na X[3] Ny Nz           1.36286284          4.30023772
 Nx A[3] Ny Nz           0.67939882          4.97963654
 Na X[2] Nyz            -2.94604197          2.03359457
 Nx A[2] Nyz           -17.23337035        -15.19977578

@ Cubic response function value in a.u. for
@ A operator, symmetry, frequency:   YDIPLEN    3 -0.000000
@ B operator, symmetry, frequency:   YDIPLEN    3  0.000000
@ C operator, symmetry, frequency:   XDIPLEN    2  0.000000
@ D operator, symmetry, frequency:   XDIPLEN    2  0.000000

@ << A; B, C, D >>  =         -15.19977578



   Contribution                Term         Accumulated
 ------------------------------------------------------
Contribution from C4FOCK:     14.072055184808
 Na T[4] Nb Nc Nd      -14.07205518        -14.07205518
 Na T[3] Nx Nyz         15.72072374          1.64866856
 Na X[3] Ny Nz          59.08323960         60.73190816
 Nx A[3] Ny Nz          19.69441320         80.42632136
 Na X[2] Nyz          -126.83213267        -46.40581131
 Nx A[2] Nyz          -126.83213267       -173.23794399

@ Cubic response function value in a.u. for
@ A operator, symmetry, frequency:   YDIPLEN    3 -0.000000
@ B operator, symmetry, frequency:   YDIPLEN    3  0.000000
@ C operator, symmetry, frequency:   YDIPLEN    3  0.000000
@ D operator, symmetry, frequency:   YDIPLEN    3  0.000000

@ << A; B, C, D >>  =        -173.23794399



  Summary of gamma values for a set of frequencies
 -------------------------------------------------

@ B-freq:  0.000000
@ C-freq:  0.000000
@ D-freq:  0.000000

@ gamma(X;X,X,X)          7.7397
@ gamma(X;X,Y,Y)         15.1998
@ gamma(X;Y,Y,X)         15.1998
@ gamma(X;Y,X,Y)         15.1998
@ gamma(X;X,Z,Z)         12.2209
@ gamma(X;Z,Z,X)         12.2209
@ gamma(X;Z,X,Z)         12.2209
@ gamma(Y;Y,X,X)         15.1998
@ gamma(Y;X,X,Y)         15.1998
@ gamma(Y;X,Y,X)         15.1998
@ gamma(Y;Y,Y,Y)        173.2379
@ gamma(Y;Y,Z,Z)        124.6563
@ gamma(Y;Z,Z,Y)        124.6563
@ gamma(Y;Z,Y,Z)        124.6563
@ gamma(Z;Z,X,X)         12.2209
@ gamma(Z;X,X,Z)         12.2209
@ gamma(Z;X,Z,X)         12.2209
@ gamma(Z;Z,Y,Y)        124.6563
@ gamma(Z;Y,Y,Z)        124.6563
@ gamma(Z;Y,Z,Y)        124.6563
@ gamma(Z;Z,Z,Z)         97.9131

@ Averaged gamma parallel to the applied field is       116.608931

 >>>> Total CPU  time used in RESPONSE:   0.02 seconds
 >>>> Total wall time used in RESPONSE:   0.02 seconds


                   .-------------------------------------------.
                   | End of Dynamic Property Section (RESPONS) |
                   `-------------------------------------------'

 >>>> Total CPU  time used in DALTON:   0.03 seconds
 >>>> Total wall time used in DALTON:   0.03 seconds

 
     Date and time (Linux)  : Sun Sep  8 20:39:08 2013
     Host name              : lpqlx131.ups-tlse.fr                    
