

     ************************************************************************
     *************** Dalton - An Electronic Structure Program ***************
     ************************************************************************

    This is output from DALTON (Release Dalton2013 patch 0)
   ----------------------------------------------------------------------------
    NOTE:
     
    Dalton is an experimental code for the evaluation of molecular
    properties using (MC)SCF, DFT, CI, and CC wave functions.
    The authors accept no responsibility for the performance of
    the code or for the correctness of the results.
     
    The code (in whole or part) is provided under a licence and
    is not to be reproduced for further distribution without
    the written permission of the authors or their representatives.
     
    See the home page "http://daltonprogram.org" for further information.
     
    If results obtained with this code are published,
    the appropriate citations would be both of:
     
       K. Aidas, C. Angeli, K. L. Bak, V. Bakken, R. Bast,
       L. Boman, O. Christiansen, R. Cimiraglia, S. Coriani,
       P. Dahle, E. K. Dalskov, U. Ekstroem, T. Enevoldsen,
       J. J. Eriksen, P. Ettenhuber, B. Fernandez, L. Ferrighi,
       H. Fliegl, L. Frediani, K. Hald, A. Halkier, C. Haettig,
       H. Heiberg, T. Helgaker, A. C. Hennum, H. Hettema,
       E. Hjertenaes, S. Hoest, I.-M. Hoeyvik, M. F. Iozzi,
       B. Jansik, H. J. Aa. Jensen, D. Jonsson, P. Joergensen,
       J. Kauczor, S. Kirpekar, T. Kjaergaard, W. Klopper,
       S. Knecht, R. Kobayashi, H. Koch, J. Kongsted, A. Krapp,
       K. Kristensen, A. Ligabue, O. B. Lutnaes, J. I. Melo,
       K. V. Mikkelsen, R. H. Myhre, C. Neiss, C. B. Nielsen,
       P. Norman, J. Olsen, J. M. H. Olsen, A. Osted,
       M. J. Packer, F. Pawlowski, T. B. Pedersen, P. F. Provasi,
       S. Reine, Z. Rinkevicius, T. A. Ruden, K. Ruud, V. Rybkin,
       P. Salek, C. C. M. Samson, A. Sanchez de Meras, T. Saue,
       S. P. A. Sauer, B. Schimmelpfennig, K. Sneskov,
       A. H. Steindal, K. O. Sylvester-Hvid, P. R. Taylor,
       A. M. Teale, E. I. Tellgren, D. P. Tew, A. J. Thorvaldsen,
       L. Thoegersen, O. Vahtras, M. A. Watson, D. J. D. Wilson,
       M. Ziolkowski and H. Agren.
       The Dalton quantum chemistry program system.
       WIREs Comput. Mol. Sci. 2013. doi: 10.1002/wcms.1172
    
    and
    
       Dalton, a Molecular Electronic Structure Program,
       Release DALTON2013.0 (2013), see http://daltonprogram.org
   ----------------------------------------------------------------------------

    Authors in alphabetical order (major contribution(s) in parenthesis):

  Kestutis Aidas,           Vilnius University,           Lithuania   (QM/MM)
  Celestino Angeli,         University of Ferrara,        Italy       (NEVPT2)
  Keld L. Bak,              UNI-C,                        Denmark     (AOSOPPA, non-adiabatic coupling, magnetic properties)
  Vebjoern Bakken,          University of Oslo,           Norway      (DALTON; geometry optimizer, symmetry detection)
  Radovan Bast,             KTH Stockholm                 Sweden      (DALTON installation and execution frameworks)
  Linus Boman,              NTNU,                         Norway      (Cholesky decomposition and subsystems)
  Ove Christiansen,         Aarhus University,            Denmark     (CC module)
  Renzo Cimiraglia,         University of Ferrara,        Italy       (NEVPT2)
  Sonia Coriani,            University of Trieste,        Italy       (CC module, MCD in RESPONS)
  Paal Dahle,               University of Oslo,           Norway      (Parallelization)
  Erik K. Dalskov,          UNI-C,                        Denmark     (SOPPA)
  Thomas Enevoldsen,        Univ. of Southern Denmark,    Denmark     (SOPPA)
  Janus J. Eriksen,         Aarhus University,            Denmark     (PE-MP2/SOPPA, TDA)
  Berta Fernandez,          U. of Santiago de Compostela, Spain       (doublet spin, ESR in RESPONS)
  Lara Ferrighi,            Aarhus University,            Denmark     (PCM Cubic response)
  Heike Fliegl,             University of Oslo,           Norway      (CCSD(R12))
  Luca Frediani,            UiT The Arctic U. of Norway,  Norway      (PCM)
  Bin Gao,                  UiT The Arctic U. of Norway,  Norway      (Gen1Int library)
  Christof Haettig,         Ruhr-University Bochum,       Germany     (CC module)
  Kasper Hald,              Aarhus University,            Denmark     (CC module)
  Asger Halkier,            Aarhus University,            Denmark     (CC module)
  Hanne Heiberg,            University of Oslo,           Norway      (geometry analysis, selected one-electron integrals)
  Trygve Helgaker,          University of Oslo,           Norway      (DALTON; ABACUS, ERI, DFT modules, London, and much more)
  Alf Christian Hennum,     University of Oslo,           Norway      (Parity violation)
  Hinne Hettema,            University of Auckland,       New Zealand (quadratic response in RESPONS; SIRIUS supersymmetry)
  Eirik Hjertenaes,         NTNU,                         Norway      (Cholesky decomposition)
  Maria Francesca Iozzi,    University of Oslo,           Norway      (RPA)
  Brano Jansik              Technical Univ. of Ostrava    Czech Rep.  (DFT cubic response)
  Hans Joergen Aa. Jensen,  Univ. of Southern Denmark,    Denmark     (DALTON; SIRIUS, RESPONS, ABACUS modules, London, and much more)
  Dan Jonsson,              UiT The Arctic U. of Norway,  Norway      (cubic response in RESPONS module)
  Poul Joergensen,          Aarhus University,            Denmark     (RESPONS, ABACUS, and CC modules)
  Joanna Kauczor,           Linkoeping University,        Sweden      (Complex polarization propagator (CPP) module)
  Sheela Kirpekar,          Univ. of Southern Denmark,    Denmark     (Mass-velocity & Darwin integrals)
  Wim Klopper,              KIT Karlsruhe,                Germany     (R12 code in CC, SIRIUS, and ABACUS modules)
  Stefan Knecht,            ETH Zurich,                   Switzerland (Parallel CI and MCSCF)
  Rika Kobayashi,           Australian National Univ.,    Australia   (DIIS in CC, London in MCSCF)
  Henrik Koch,              NTNU,                         Norway      (CC module, Cholesky decomposition)
  Jacob Kongsted,           Univ. of Southern Denmark,    Denmark     (Polarizable embedding, QM/MM)
  Andrea Ligabue,           University of Modena,         Italy       (CTOCD, AOSOPPA)
  Ola B. Lutnaes,           University of Oslo,           Norway      (DFT Hessian)
  Juan I. Melo,             University of Buenos Aires,   Argentina   (LRESC, Relativistic Effects on NMR Shieldings)
  Kurt V. Mikkelsen,        University of Copenhagen,     Denmark     (MC-SCRF and QM/MM)
  Rolf H. Myhre,            NTNU,                         Norway      (Cholesky, subsystems and ECC2)
  Christian Neiss,          Univ. Erlangen-Nuernberg,     Germany     (CCSD(R12))
  Christian B. Nielsen,     University of Copenhagen,     Denmark     (QM/MM)
  Patrick Norman,           Linkoeping University,        Sweden      (Cubic response and complex response in RESPONS)
  Jeppe Olsen,              Aarhus University,            Denmark     (SIRIUS CI/density modules)
  Jogvan Magnus H. Olsen,   Univ. of Southern Denmark,    Denmark     (Polarizable embedding, PE library, QM/MM)
  Anders Osted,             Copenhagen University,        Denmark     (QM/MM)
  Martin J. Packer,         University of Sheffield,      UK          (SOPPA)
  Filip Pawlowski,          Kazimierz Wielki University   Poland      (CC3)
  Thomas B. Pedersen,       University of Oslo,           Norway      (Cholesky decomposition)
  Patricio F. Provasi,      University of Northeastern,   Argentina   (Analysis of coupling constants in localized orbitals)
  Zilvinas Rinkevicius,     KTH Stockholm,                Sweden      (open-shell DFT, ESR)
  Elias Rudberg,            KTH Stockholm,                Sweden      (DFT grid and basis info)
  Torgeir A. Ruden,         University of Oslo,           Norway      (Numerical derivatives in ABACUS)
  Kenneth Ruud,             UiT The Arctic U. of Norway,  Norway      (DALTON; ABACUS magnetic properties and  much more)
  Pawel Salek,              KTH Stockholm,                Sweden      (DALTON; DFT code)
  Claire C. M. Samson       University of Karlsruhe       Germany     (Boys localization, r12 integrals in ERI)
  Alfredo Sanchez de Meras, University of Valencia,       Spain       (CC module, Cholesky decomposition)
  Trond Saue,               Paul Sabatier University,     France      (direct Fock matrix construction)
  Stephan P. A. Sauer,      University of Copenhagen,     Denmark     (SOPPA(CCSD), SOPPA prop., AOSOPPA, vibrational g-factors)
  Bernd Schimmelpfennig,    Forschungszentrum Karlsruhe,  Germany     (AMFI module)
  Kristian Sneskov,         Aarhus University,            Denmark     (QM/MM, PE-CC)
  Arnfinn H. Steindal,      UiT The Arctic U. of Norway,  Norway      (parallel QM/MM)
  K. O. Sylvester-Hvid,     University of Copenhagen,     Denmark     (MC-SCRF)
  Peter R. Taylor,          VLSCI/Univ. of Melbourne,     Australia   (Symmetry handling ABACUS, integral transformation)
  Andrew M. Teale,          University of Nottingham,     England     (DFT-AC, DFT-D)
  David P. Tew,             University of Bristol,        England     (CCSD(R12))
  Olav Vahtras,             KTH Stockholm,                Sweden      (triplet response, spin-orbit, ESR, TDDFT, open-shell DFT)
  David J. Wilson,          La Trobe University,          Australia   (DFT Hessian and DFT magnetizabilities)
  Hans Agren,               KTH Stockholm,                Sweden      (SIRIUS module, RESPONS, MC-SCRF solvation model)
 --------------------------------------------------------------------------------

     Date and time (Linux)  : Sun Sep  8 20:39:20 2013
     Host name              : lpqlx131.ups-tlse.fr                    

 * Work memory size             :    64000000 =  488.28 megabytes.

 * Directories for basis set searches:
   1) /home/bast/DALTON-2013.0-Source/build/test_rsp_g_rohf_ecc
   2) /home/bast/DALTON-2013.0-Source/build/basis


Compilation information
-----------------------

 Who compiled             | bast
 Host                     | lpqlx131.ups-tlse.fr
 System                   | Linux-3.8.5-201.fc18.x86_64
 CMake generator          | Unix Makefiles
 Processor                | x86_64
 64-bit integers          | OFF
 MPI                      | OFF
 Fortran compiler         | /usr/bin/gfortran
 Fortran compiler version | GNU Fortran (GCC) 4.7.2 20121109 (Red Hat 4.7.2-8)
 C compiler               | /usr/bin/gcc
 C compiler version       | gcc (GCC) 4.7.2 20121109 (Red Hat 4.7.2-8)
 C++ compiler             | /usr/bin/g++
 C++ compiler version     | g++ (GCC) 4.7.2 20121109 (Red Hat 4.7.2-8)
 Static linking           | OFF
 Last Git revision        | f34203295a86316e27f9e7b44f9b6769c4a046c0
 Configuration time       | 2013-09-08 20:31:27.952056


   Content of the .dal input file
 ----------------------------------

**DALTON INPUT                                    
.RUN RESPONSE                                     
.DIRECT                                           
**WAVE FUNCTION                                   
.HF                                               
*SCF INPUT                                        
**RESPONSE                                        
*ESR                                              
.G-TENSOR                                         
.ECC                                              
**END OF DALTON INPUT                             
                                                  


   Content of the .mol file
 ----------------------------

# DALTON.BAS with INTGRL directive created 30Mar05  10:29:24                   
# Directive in input mol file was:                                             
# > ATOMBASIS                                                                  
INTGRL                                                                         
Title1                                                                         
Title2                                                                         
    2  1 2X  Y        0.10E-14                                                 
        6.    1    3    1    1    1                                            
C        0.0000000000000     0.0000000000000    -1.2039673896295               
H  13    8                                                                     
    35088.0000000000        0.0006700000        0.0000000000        0.000000000
                            0.0000000000        0.0000000000        0.000000000
                            0.0000000000        0.0000000000                   
     5257.4000000000        0.0052020000        0.0000000000        0.000000000
                            0.0000000000        0.0000000000        0.000000000
                            0.0000000000        0.0000000000                   
     1196.5000000000        0.0272070000        0.0000000000        0.000000000
                            0.0000000000        0.0000000000        0.000000000
                            0.0000000000        0.0000000000                   
      338.8400000000        0.1127590000        0.0000000000        0.000000000
                            0.0000000000        0.0000000000        0.000000000
                            0.0000000000        0.0000000000                   
      110.4800000000        0.3877040000        0.0000000000        0.000000000
                            0.0000000000        0.0000000000        0.000000000
                            0.0000000000        0.0000000000                   
       39.7850000000        0.5656540000        0.1880920000        0.000000000
                            0.0000000000        0.0000000000        0.000000000
                            0.0000000000        0.0000000000                   
       15.3660000000        0.0000000000        0.8353530000        0.000000000
                            0.0000000000        0.0000000000        0.000000000
                            0.0000000000        0.0000000000                   
        6.2406000000        0.0000000000        0.0000000000        1.000000000
                            0.0000000000        0.0000000000        0.000000000
                            0.0000000000        0.0000000000                   
        2.5893000000        0.0000000000        0.0000000000        0.000000000
                            1.0000000000        0.0000000000        0.000000000
                            0.0000000000        0.0000000000                   
        0.7410500000        0.0000000000        0.0000000000        0.000000000
                            0.0000000000        1.0000000000        0.000000000
                            0.0000000000        0.0000000000                   
        0.2933400000        0.0000000000        0.0000000000        0.000000000
                            0.0000000000        0.0000000000        1.000000000
                            0.0000000000        0.0000000000                   
        0.1118700000        0.0000000000        0.0000000000        0.000000000
                            0.0000000000        0.0000000000        0.000000000
                            1.0000000000        0.0000000000                   
        0.0500000000        0.0000000000        0.0000000000        0.000000000
                            0.0000000000        0.0000000000        0.000000000
                            0.0000000000        1.0000000000                   
H   9    6                                                                     
       61.6360000000        0.0082440000        0.0000000000        0.000000000
                            0.0000000000        0.0000000000        0.000000000
       14.4440000000        0.0602880000        0.0000000000        0.000000000
                            0.0000000000        0.0000000000        0.000000000
        4.4412000000        0.2584790000        0.0000000000        0.000000000
                            0.0000000000        0.0000000000        0.000000000
        1.5716000000        0.7702260000        0.0000000000        0.000000000
                            0.0000000000        0.0000000000        0.000000000
        0.5980400000        0.0000000000        1.0000000000        0.000000000
                            0.0000000000        0.0000000000        0.000000000
        0.2301900000        0.0000000000        0.0000000000        1.000000000
                            0.0000000000        0.0000000000        0.000000000
        0.0865960000        0.0000000000        0.0000000000        0.000000000
                            1.0000000000        0.0000000000        0.000000000
        0.0300000000        0.0000000000        0.0000000000        0.000000000
                            0.0000000000        1.0000000000        0.000000000
        0.0050000000        0.0000000000        0.0000000000        0.000000000
                            0.0000000000        0.0000000000        1.000000000
H   3    3                                                                     
        0.9000000000        1.0000000000        0.0000000000        0.000000000
        0.1300000000        0.0000000000        1.0000000000        0.000000000
        0.0200000000        0.0000000000        0.0000000000        1.000000000
        8.    1    3    1    1    1                                            
O        0.0000000000000     0.0000000000000     0.9032626103705               
H  13    8                                                                     
    63655.0000000000        0.0006590000        0.0000000000        0.000000000
                            0.0000000000        0.0000000000        0.000000000
                            0.0000000000        0.0000000000                   
     9537.6000000000        0.0051150000        0.0000000000        0.000000000
                            0.0000000000        0.0000000000        0.000000000
                            0.0000000000        0.0000000000                   
     2170.7000000000        0.0267620000        0.0000000000        0.000000000
                            0.0000000000        0.0000000000        0.000000000
                            0.0000000000        0.0000000000                   
      614.7200000000        0.1110120000        0.0000000000        0.000000000
                            0.0000000000        0.0000000000        0.000000000
                            0.0000000000        0.0000000000                   
      200.4500000000        0.3827710000        0.0000000000        0.000000000
                            0.0000000000        0.0000000000        0.000000000
                            0.0000000000        0.0000000000                   
       72.2300000000        0.5720990000        0.1839650000        0.000000000
                            0.0000000000        0.0000000000        0.000000000
                            0.0000000000        0.0000000000                   
       27.9720000000        0.0000000000        0.8389550000        0.000000000
                            0.0000000000        0.0000000000        0.000000000
                            0.0000000000        0.0000000000                   
       11.4230000000        0.0000000000        0.0000000000        1.000000000
                            0.0000000000        0.0000000000        0.000000000
                            0.0000000000        0.0000000000                   
        4.7730000000        0.0000000000        0.0000000000        0.000000000
                            1.0000000000        0.0000000000        0.000000000
                            0.0000000000        0.0000000000                   
        1.4400000000        0.0000000000        0.0000000000        0.000000000
                            0.0000000000        1.0000000000        0.000000000
                            0.0000000000        0.0000000000                   
        0.5598400000        0.0000000000        0.0000000000        0.000000000
                            0.0000000000        0.0000000000        1.000000000
                            0.0000000000        0.0000000000                   
        0.2080700000        0.0000000000        0.0000000000        0.000000000
                            0.0000000000        0.0000000000        0.000000000
                            1.0000000000        0.0000000000                   
        0.0600000000        0.0000000000        0.0000000000        0.000000000
                            0.0000000000        0.0000000000        0.000000000
                            0.0000000000        1.0000000000                   
H   9    6                                                                     
      111.5400000000        0.0083250000        0.0000000000        0.000000000
                            0.0000000000        0.0000000000        0.000000000
       26.2060000000        0.0623000000        0.0000000000        0.000000000
                            0.0000000000        0.0000000000        0.000000000
        8.1556000000        0.2696980000        0.0000000000        0.000000000
                            0.0000000000        0.0000000000        0.000000000
        2.9196000000        0.7578950000        0.0000000000        0.000000000
                            0.0000000000        0.0000000000        0.000000000
        1.1047000000        0.0000000000        1.0000000000        0.000000000
                            0.0000000000        0.0000000000        0.000000000
        0.4136800000        0.0000000000        0.0000000000        1.000000000
                            0.0000000000        0.0000000000        0.000000000
        0.1481000000        0.0000000000        0.0000000000        0.000000000
                            1.0000000000        0.0000000000        0.000000000
        0.0500000000        0.0000000000        0.0000000000        0.000000000
                            0.0000000000        1.0000000000        0.000000000
        0.0070000000        0.0000000000        0.0000000000        0.000000000
                            0.0000000000        0.0000000000        1.000000000
H   3    3                                                                     
        0.9000000000        1.0000000000        0.0000000000        0.000000000
        0.1300000000        0.0000000000        1.0000000000        0.000000000
        0.0200000000        0.0000000000        0.0000000000        1.000000000


       *******************************************************************
       *********** Output from DALTON general input processing ***********
       *******************************************************************

 --------------------------------------------------------------------------------
   Overall default print level:    0
   Print level for DALTON.STAT:    1

    AO-direct calculation (in sections where implemented)
    HERMIT 1- and 2-electron integral sections will be executed
    "Old" integral transformation used (limited to max 255 basis functions)
    Wave function sections will be executed (SIRIUS module)
    Dynamic molecular response properties section will be executed (RESPONSE module)
 --------------------------------------------------------------------------------


   ****************************************************************************
   *************** Output of molecule and basis set information ***************
   ****************************************************************************


    The two title cards from your ".mol" input:
    ------------------------------------------------------------------------
 1: Title1                                                                  
 2: Title2                                                                  
    ------------------------------------------------------------------------

  Atomic type no.    1
  --------------------
  Nuclear charge:   6.00000
  Number of symmetry independent centers:    1
  Number of basis sets to read;    2

  Atomic type no.    2
  --------------------
  Nuclear charge:   8.00000
  Number of symmetry independent centers:    1
  Number of basis sets to read;    2


                         SYMGRP: Point group information
                         -------------------------------

Point group: C2v

   * The point group was generated by:

      Reflection in the yz-plane
      Reflection in the xz-plane

   * Group multiplication table

        |  E   C2z  Oxz  Oyz
   -----+--------------------
     E  |  E   C2z  Oxz  Oyz
    C2z | C2z   E   Oyz  Oxz
    Oxz | Oxz  Oyz   E   C2z
    Oyz | Oyz  Oxz  C2z   E 

   * Character table

        |  E   C2z  Oxz  Oyz
   -----+--------------------
    A1  |   1    1    1    1
    B1  |   1   -1    1   -1
    B2  |   1   -1   -1    1
    A2  |   1    1   -1   -1

   * Direct product table

        | A1   B1   B2   A2 
   -----+--------------------
    A1  | A1   B1   B2   A2 
    B1  | B1   A1   A2   B2 
    B2  | B2   A2   A1   B1 
    A2  | A2   B2   B1   A1 


                                 Isotopic Masses
                                 ---------------

                           C          12.000000
                           O          15.994915

                       Total mass:    27.994915 amu
                       Natural abundance:  98.663 %

 Center-of-mass coordinates (a.u.):    0.000000    0.000000    0.000000


  Atoms and basis sets
  --------------------

  Number of atom types :    2
  Total number of atoms:    2

  label    atoms   charge   prim   cont     basis
  ----------------------------------------------------------------------
  C           1    6.0000    55    41      [13s9p3d|8s6p3d]                                   
  O           1    8.0000    55    41      [13s9p3d|8s6p3d]                                   
  ----------------------------------------------------------------------
  total:      2   14.0000   110    82
  ----------------------------------------------------------------------
  Spherical harmonic basis used.

  Threshold for neglecting AO integrals:  1.00D-15


  Cartesian Coordinates (a.u.)
  ----------------------------

  Total number of coordinates:    6
  C       :     1  x   0.0000000000    2  y   0.0000000000    3  z  -1.2039673896
  O       :     4  x   0.0000000000    5  y   0.0000000000    6  z   0.9032626104


  Symmetry Coordinates
  --------------------

  Number of coordinates in each symmetry:     2    2    2    0

  Symmetry  A1  ( 1)

    1   C     z    3
    2   O     z    6

  Symmetry  B1  ( 2)

    3   C     x    1
    4   O     x    4

  Symmetry  B2  ( 3)

    5   C     y    2
    6   O     y    5


   Interatomic separations (in Angstrom):
   --------------------------------------

            C           O     
            ------      ------
 C     :    0.000000
 O     :    1.115098    0.000000


  Max    interatomic separation is    1.1151 Angstrom (    2.1072 Bohr)
  between atoms    2 and    1, "O     " and "C     ".

  Min YX interatomic separation is    1.1151 Angstrom (    2.1072 Bohr)


  Bond distances (Angstrom):
  --------------------------

                  atom 1     atom 2       distance
                  ------     ------       --------
  bond distance:  O          C            1.115098




 Principal moments of inertia (u*A**2) and principal axes
 --------------------------------------------------------

   IA       0.000000          0.000000    0.000000    1.000000
   IB       8.525310          0.000000    1.000000    0.000000
   IC       8.525310          1.000000    0.000000    0.000000


 Rotational constants
 --------------------

 The molecule is linear.

               B =        59279.84 MHz     (    1.977363 cm-1)


@  Nuclear repulsion energy :   22.778718981791 Hartree


  Symmetry Orbitals
  -----------------

  Number of orbitals in each symmetry:          40   18   18    6


  Symmetry  A1 ( 1)

    1     C        1s         1
    2     C        1s         2
    3     C        1s         3
    4     C        1s         4
    5     C        1s         5
    6     C        1s         6
    7     C        1s         7
    8     C        1s         8
    9     C        2pz       11
   10     C        2pz       14
   11     C        2pz       17
   12     C        2pz       20
   13     C        2pz       23
   14     C        2pz       26
   15     C        3d0       29
   16     C        3d2+      31
   17     C        3d0       34
   18     C        3d2+      36
   19     C        3d0       39
   20     C        3d2+      41
   21     O        1s        42
   22     O        1s        43
   23     O        1s        44
   24     O        1s        45
   25     O        1s        46
   26     O        1s        47
   27     O        1s        48
   28     O        1s        49
   29     O        2pz       52
   30     O        2pz       55
   31     O        2pz       58
   32     O        2pz       61
   33     O        2pz       64
   34     O        2pz       67
   35     O        3d0       70
   36     O        3d2+      72
   37     O        3d0       75
   38     O        3d2+      77
   39     O        3d0       80
   40     O        3d2+      82


  Symmetry  B1 ( 2)

   41     C        2px        9
   42     C        2px       12
   43     C        2px       15
   44     C        2px       18
   45     C        2px       21
   46     C        2px       24
   47     C        3d1+      30
   48     C        3d1+      35
   49     C        3d1+      40
   50     O        2px       50
   51     O        2px       53
   52     O        2px       56
   53     O        2px       59
   54     O        2px       62
   55     O        2px       65
   56     O        3d1+      71
   57     O        3d1+      76
   58     O        3d1+      81


  Symmetry  B2 ( 3)

   59     C        2py       10
   60     C        2py       13
   61     C        2py       16
   62     C        2py       19
   63     C        2py       22
   64     C        2py       25
   65     C        3d1-      28
   66     C        3d1-      33
   67     C        3d1-      38
   68     O        2py       51
   69     O        2py       54
   70     O        2py       57
   71     O        2py       60
   72     O        2py       63
   73     O        2py       66
   74     O        3d1-      69
   75     O        3d1-      74
   76     O        3d1-      79


  Symmetry  A2 ( 4)

   77     C        3d2-      27
   78     C        3d2-      32
   79     C        3d2-      37
   80     O        3d2-      68
   81     O        3d2-      73
   82     O        3d2-      78

  Symmetries of electric field:  B1 (2)  B2 (3)  A1 (1)

  Symmetries of magnetic field:  B2 (3)  B1 (2)  A2 (4)


                     .---------------------------------------.
                     | Starting in Integral Section (HERMIT) |
                     `---------------------------------------'



    *************************************************************************
    ****************** Output from HERMIT input processing ******************
    *************************************************************************



     ************************************************************************
     ************************** Output from HERINT **************************
     ************************************************************************

 >>>> Total CPU  time used in HERMIT:   0.09 seconds
 >>>> Total wall time used in HERMIT:   0.15 seconds


                        .----------------------------------.
                        | End of Integral Section (HERMIT) |
                        `----------------------------------'



                   .--------------------------------------------.
                   | Starting in Wave Function Section (SIRIUS) |
                   `--------------------------------------------'


 *** Output from Huckel module :

     Using EWMO model:          T
     Using EHT  model:          F
     Number of Huckel orbitals each symmetry:    6    2    2    0

 EWMO - Energy Weighted Maximum Overlap - is a Huckel type method,
        which normally is better than Extended Huckel Theory.
 Reference: Linderberg and Ohrn, Propagators in Quantum Chemistry (Wiley, 1973)

 Huckel EWMO eigenvalues for symmetry :  1
          -20.686249     -11.350248      -1.584550      -0.796189      -0.453683
           -0.133981

 Huckel EWMO eigenvalues for symmetry :  2
           -0.719807      -0.303293

 Huckel EWMO eigenvalues for symmetry :  3
           -0.719807      -0.303293

 **********************************************************************
 *SIRIUS* a direct, restricted step, second order MCSCF program       *
 **********************************************************************

 
     Date and time (Linux)  : Sun Sep  8 20:39:20 2013
     Host name              : lpqlx131.ups-tlse.fr                    

 Title lines from ".mol" input file:
     Title1                                                                  
     Title2                                                                  

 Print level on unit LUPRI =   2 is   0
 Print level on unit LUW4  =   2 is   5

@    Restricted, one open shell Hartree-Fock calculation.

@    Time-dependent Hartree-Fock calculation (random phase approximation).
 Fock matrices are calculated directly without use of integrals on disk.

 Initial molecular orbitals are obtained according to
 ".MOSTART EWMO  " input option

     Wave function specification
     ============================
@    For the wave function of type :      >>> HF <<<
@    Number of closed shell electrons          12
@    Number of electrons in active shells       1
@    Total charge of the molecule               1

@    Spin multiplicity and 2 M_S                2         1
     Total number of symmetries                 4
@    Reference state symmetry                   1

     Orbital specifications
     ======================
     Abelian symmetry species          All |    1    2    3    4
                                       --- |  ---  ---  ---  ---
     Total number of orbitals           82 |   40   18   18    6
     Number of basis functions          82 |   40   18   18    6

      ** Automatic occupation of RHF orbitals **

      -- Initial occupation of symmetries is determined from extended Huckel guess.           
      -- Initial occupation of symmetries is :
@    Occupied SCF orbitals               6 |    4    1    1    0

@    plus one open shell SCF orbital of symmetry   1

     Maximum number of Fock   iterations      0
     Maximum number of DIIS   iterations     60
     Maximum number of QC-SCF iterations     60
     Threshold for SCF convergence     1.00D-05


 >>>>> DIIS optimization of Hartree-Fock <<<<<

 C1-DIIS algorithm; max error vectors =   10

 Automatic occupation of symmetries with  13 electrons.
 "sym." is the symmetry of the one open shell orbital in table below.

 Iter     Total energy    Error norm  Delta(E)  Sym.  Closed shell occupation
 -----------------------------------------------------------------------------
   1  Screening settings (-IFTHRS, DIFDEN)   -7    T
@  1  -111.818423065       2.93D+00  -1.12D+02   1     4   1   1   0
      Virial theorem: -V/T =      2.017463
@      MULPOP C       0.60; O       0.40; 
 -----------------------------------------------------------------------------
   2  Screening settings (-IFTHRS, DIFDEN)   -7    T
@  2  -112.255962570       7.71D-01  -4.38D-01   1     4   1   1   0
      Virial theorem: -V/T =      1.993915
@      MULPOP C       0.46; O       0.54; 
 -----------------------------------------------------------------------------
   3  Screening settings (-IFTHRS, DIFDEN)   -7    T
@  3  -112.286237164       1.86D-01  -3.03D-02   1     4   1   1   0
      Virial theorem: -V/T =      2.004673
@      MULPOP C       0.38; O       0.62; 
 -----------------------------------------------------------------------------
   4  Screening settings (-IFTHRS, DIFDEN)  -11    F
@  4  -112.289851722       1.50D-01  -3.61D-03   1     4   1   1   0
      Virial theorem: -V/T =      2.003209
@      MULPOP C       0.46; O       0.54; 
 -----------------------------------------------------------------------------
   5  Screening settings (-IFTHRS, DIFDEN)  -11    T
@  5  -112.291308868       2.66D-02  -1.46D-03   1     4   1   1   0
      Virial theorem: -V/T =      2.004208
@      MULPOP C       0.43; O       0.57; 
 -----------------------------------------------------------------------------
   6  Screening settings (-IFTHRS, DIFDEN)  -11    T
@  6  -112.291442938       1.03D-02  -1.34D-04   1     4   1   1   0
      Virial theorem: -V/T =      2.004362
@      MULPOP C       0.43; O       0.57; 
 -----------------------------------------------------------------------------
   7  Screening settings (-IFTHRS, DIFDEN)  -11    T
@  7  -112.291457312       2.68D-03  -1.44D-05   1     4   1   1   0
      Virial theorem: -V/T =      2.004343
@      MULPOP C       0.43; O       0.57; 
 -----------------------------------------------------------------------------
   8  Screening settings (-IFTHRS, DIFDEN)  -11    T
@  8  -112.291458397       7.95D-04  -1.09D-06   1     4   1   1   0
      Virial theorem: -V/T =      2.004347
@      MULPOP C       0.43; O       0.57; 
 -----------------------------------------------------------------------------
   9  Screening settings (-IFTHRS, DIFDEN)  -11    T
@  9  -112.291458487       1.53D-04  -8.94D-08   1     4   1   1   0
      Virial theorem: -V/T =      2.004343
@      MULPOP C       0.43; O       0.57; 
 -----------------------------------------------------------------------------
  10  Screening settings (-IFTHRS, DIFDEN)  -11    T
@ 10  -112.291458492       4.99D-05  -5.46D-09   1     4   1   1   0
      Virial theorem: -V/T =      2.004344
@      MULPOP C       0.43; O       0.57; 
 -----------------------------------------------------------------------------
  11  Screening settings (-IFTHRS, DIFDEN)  -11    T
@ 11  -112.291458492       1.34D-05  -4.30D-10   1     4   1   1   0
      Virial theorem: -V/T =      2.004344
@      MULPOP C       0.43; O       0.57; 
 -----------------------------------------------------------------------------
  12  Screening settings (-IFTHRS, DIFDEN)  -11    T
@ 12  -112.291458492       3.16D-06  -2.76D-11   1     4   1   1   0

@ *** DIIS converged in  12 iterations !
@     Converged SCF energy, gradient:   -112.291458492449    3.16D-06
    - total time used in SIRFCK :              0.00 seconds


 *** SCF orbital energy analysis ***

 Orbital energy analysis for an open-shell system.
 Orbital energies are not well-defined for open-shell systems
   here is used block diagonalization of the FD=FC+FV Fock matrix.
 NOTE that Koopmans' theorem is not fulfilled for this case.

 Only the five lowest virtual orbital energies printed in each symmetry.

 Number of electrons :   12
 Orbital occupations :    4    1    1    0

 Sym       Hartree-Fock orbital energies

  1    -21.07788589   -11.85812860    -1.91486256    -1.15558999    -0.75628073
        -0.11592579    -0.09216390    -0.05257683    -0.05223462    -0.04317566

  2     -1.01476941    -0.22049181    -0.08716144    -0.04907510    -0.04275465
        -0.02004962

  3     -1.01476941    -0.22049181    -0.08716144    -0.04907510    -0.04275465
        -0.02004962

  4     -0.05257683    -0.01261502     0.12832093     0.30924644     1.73239486


    E(LUMO) :    -0.22049181 au (symmetry 3)
  - E(HOMO) :    -1.01476941 au (symmetry 2)
  ------------------------------------------
    gap     :     0.79427760 au

and E(SOMO) :    -0.75628073 au (symmetry 1)

 NOTE: MOLECULAR ORBITALS ARE NOT CANONICAL HARTREE-FOCK ORBITALS

 Largest off-diagonal Fock matrix element is  4.28D-02

 >>> Writing SIRIFC interface file <<<

 >>>> CPU and wall time for SCF :       5.518       5.569


                       .-----------------------------------.
                       | >>> Final results from SIRIUS <<< |
                       `-----------------------------------'


@    Spin multiplicity:           2
@    Spatial symmetry:            1
@    Total charge of molecule:    1

@    Final HF energy:            -112.291458492449                 
@    Nuclear repulsion:            22.778718981791
@    Electronic energy:          -135.070177474240

@    Final gradient norm:           0.000003161518

 
     Date and time (Linux)  : Sun Sep  8 20:39:25 2013
     Host name              : lpqlx131.ups-tlse.fr                    

 (Only coefficients >0.0100 are printed.)

 Molecular orbitals for symmetry species  1
 ------------------------------------------

    Orbital         1        2        3        4        5        6        7
   1 C   :1s     0.0000   0.1298  -0.0149  -0.0144  -0.0204  -0.0051   0.0014
   2 C   :1s    -0.0000   0.3578  -0.0476  -0.0464  -0.0657  -0.0165   0.0045
   3 C   :1s     0.0001   0.4036  -0.0712  -0.0713  -0.1024  -0.0263   0.0079
   4 C   :1s    -0.0003   0.2277  -0.0661  -0.0659  -0.0959  -0.0247   0.0051
   5 C   :1s     0.0006   0.0192   0.1567   0.1602   0.2266   0.0614  -0.0034
   6 C   :1s    -0.0004  -0.0062   0.1524   0.2525   0.4947   0.2036  -0.0787
   7 C   :1s    -0.0052   0.0004  -0.0215   0.0653   0.0957  -0.1103  -0.4259
   8 C   :1s    -0.0028  -0.0003  -0.0046   0.0293  -0.0119  -4.6756  -2.0319
   9 C   :2pz   -0.0000  -0.0010   0.0952   0.0753  -0.2037  -0.0333   0.0035
  10 C   :2pz    0.0009   0.0023   0.1131   0.0922  -0.3061  -0.0755  -0.0016
  11 C   :2pz   -0.0016  -0.0016   0.0136   0.0408  -0.2244  -0.0546  -0.0580
  12 C   :2pz   -0.0023   0.0008  -0.0109   0.0171  -0.0171  -1.0566  -0.6075
  13 C   :2pz    0.0000  -0.0005   0.0019  -0.0003   0.0027   0.0469  -0.9837
  14 C   :2pz    0.0001  -0.0002   0.0005  -0.0007   0.0009  -0.3434  -0.0264
  15 C   :3d0    0.0003   0.0009   0.0268   0.0159   0.0052   0.0066   0.0139
  17 C   :3d0   -0.0008   0.0001  -0.0041   0.0012   0.0046  -0.1180  -0.0019
  19 C   :3d0    0.0000  -0.0000   0.0002   0.0004   0.0002  -0.0117   0.1257
  21 O   :1s     0.1304  -0.0001  -0.0254   0.0151   0.0023  -0.0023  -0.0039
  22 O   :1s     0.3575  -0.0003  -0.0815   0.0483   0.0077  -0.0079  -0.0129
  23 O   :1s     0.4031  -0.0002  -0.1263   0.0779   0.0109  -0.0109  -0.0200
  24 O   :1s     0.2255  -0.0005  -0.1025   0.0592   0.0119  -0.0134  -0.0182
  25 O   :1s     0.0199   0.0008   0.2345  -0.1480  -0.0278   0.0389   0.0492
  26 O   :1s    -0.0053  -0.0004   0.4631  -0.3351  -0.0404   0.0089   0.0820
  27 O   :1s     0.0068   0.0018   0.1578  -0.2798   0.0746   0.4602   0.3884
  28 O   :1s     0.0046   0.0008   0.0097  -0.0542   0.0255   3.6981   2.0899
  29 O   :2pz   -0.0025  -0.0003  -0.0710  -0.2199   0.0770   0.0099   0.0001
  30 O   :2pz    0.0014  -0.0007  -0.1049  -0.2902   0.1080   0.0136  -0.0009
  31 O   :2pz   -0.0008   0.0004  -0.0721  -0.2427   0.0706  -0.0039  -0.0177
  32 O   :2pz   -0.0014  -0.0021  -0.0046  -0.0344  -0.0001  -0.0311  -0.0987
  33 O   :2pz   -0.0009   0.0004  -0.0034   0.0111  -0.0085  -1.0890  -0.4066
  34 O   :2pz   -0.0001   0.0002  -0.0008   0.0008  -0.0013   0.4537  -0.2148
  35 O   :3d0    0.0000   0.0002   0.0261   0.0303  -0.0127   0.0079   0.0042
  37 O   :3d0    0.0002   0.0006  -0.0011   0.0002   0.0027  -0.0323   0.0005
  39 O   :3d0    0.0000  -0.0001   0.0003  -0.0012   0.0012   0.1207   0.0307

 Molecular orbitals for symmetry species  2
 ------------------------------------------

    Orbital         1        2        3
   1 C   :2px   -0.1370  -0.1934   0.0701
   2 C   :2px   -0.2056  -0.2832   0.1081
   3 C   :2px   -0.1482  -0.4237   0.1462
   4 C   :2px   -0.0151  -0.4051   0.1590
   5 C   :2px   -0.0070  -0.1341  -0.7501
   6 C   :2px   -0.0022  -0.0126   0.2285
   7 C   :3d1+  -0.0411   0.0315   0.0004
   8 C   :3d1+  -0.0254   0.0666   0.0224
   9 C   :3d1+   0.0041   0.0069   0.0306
  10 O   :2px   -0.2245   0.1594  -0.0102
  11 O   :2px   -0.2981   0.2048  -0.0139
  12 O   :2px   -0.3210   0.2793  -0.0155
  13 O   :2px   -0.0742   0.2627  -0.0985
  14 O   :2px    0.0035   0.1493  -0.0411
  15 O   :2px    0.0036   0.0211  -0.6092
  16 O   :3d1+   0.0488   0.0099  -0.0118
  17 O   :3d1+   0.0159  -0.0154   0.0136

 Molecular orbitals for symmetry species  3
 ------------------------------------------

    Orbital         1        2        3
   1 C   :2py   -0.1370  -0.1934   0.0701
   2 C   :2py   -0.2056  -0.2832   0.1081
   3 C   :2py   -0.1482  -0.4237   0.1462
   4 C   :2py   -0.0151  -0.4051   0.1590
   5 C   :2py   -0.0070  -0.1341  -0.7501
   6 C   :2py   -0.0022  -0.0126   0.2285
   7 C   :3d1-  -0.0411   0.0315   0.0004
   8 C   :3d1-  -0.0254   0.0666   0.0224
   9 C   :3d1-   0.0041   0.0069   0.0306
  10 O   :2py   -0.2245   0.1594  -0.0102
  11 O   :2py   -0.2981   0.2048  -0.0139
  12 O   :2py   -0.3210   0.2793  -0.0155
  13 O   :2py   -0.0742   0.2627  -0.0985
  14 O   :2py    0.0035   0.1493  -0.0411
  15 O   :2py    0.0036   0.0211  -0.6092
  16 O   :3d1-   0.0488   0.0099  -0.0118
  17 O   :3d1-   0.0159  -0.0154   0.0136

 Molecular orbitals for symmetry species  4
 ------------------------------------------

    Orbital         1        2
   2 C   :3d2-  -0.0976  -0.0208
   3 C   :3d2-  -0.9785  -3.2660
   5 O   :3d2-  -0.0139   0.0246
   6 O   :3d2-   0.0137   3.4193



 >>>> Total CPU  time used in SIRIUS :      5.53 seconds
 >>>> Total wall time used in SIRIUS :      5.58 seconds

 
     Date and time (Linux)  : Sun Sep  8 20:39:25 2013
     Host name              : lpqlx131.ups-tlse.fr                    


                     .---------------------------------------.
                     | End of Wave Function Section (SIRIUS) |
                     `---------------------------------------'



                 .------------------------------------------------.
                 | Starting in Dynamic Property Section (RESPONS) |
                 `------------------------------------------------'


 ------------------------------------------------------------------------------
  RESPONSE  -  an MCSCF, MC-srDFT, DFT, and SOPPA response property program
 ------------------------------------------------------------------------------


 <<<<<<<<<< OUTPUT FROM RESPONSE INPUT PROCESSING >>>>>>>>>>



 ********* ESRINP ********


 Changes of defaults under *ESR   :
 ----------------------------------


 ESR - g-tensor calculation carried out
 Electronic charge centroid used as gauge origin


   OUTPUT FROM SETECC
   ------------------


   Number of electrons:   13
   Dipole moment  :  0.000000  0.000000  1.318322
   Charge centroid:  0.000000  0.000000  0.101409

    1 second order properties calculated with symmetry no.    2 and labels:

          YANGECC 

    1 second order properties calculated with symmetry no.    3 and labels:

          XANGECC 

    1 second order properties calculated with symmetry no.    4 and labels:

          ZANGECC 


 open shell SCF energy:     -112.291458492448641
 -- inactive part     :     -133.952301576091344
 --   active part     :       -1.117875898148550
 -- nuclear repulsion :       22.778718981791261


                     ***************************************
                     *** RHF response calculation (TDHF) ***
                     ***************************************



 open shell SCF energy:     -112.291458492448641
 -- inactive part     :     -133.952301576091344
 --   active part     :       -1.117875898148550
 -- nuclear repulsion :       22.778718981791261


 Perturbation symmetry.     KSYMOP:       1
 Perturbation spin symmetry.TRPLET:       F
 Orbital variables.         KZWOPT:     213
 Configuration variables.   KZCONF:       0
 Total number of variables. KZVAR :     213


 Perturbation symmetry.     KSYMOP:       2
 Perturbation spin symmetry.TRPLET:       F
 Orbital variables.         KZWOPT:     127
 Configuration variables.   KZCONF:       0
 Total number of variables. KZVAR :     127


 RSPLR -- linear response calculation for symmetry  2
 RSPLR -- operator label : YANGECC 
 RSPLR -- operator spin  :   0
 RSPLR -- frequencies :   0.000000
 FREQ 2    0.0000000000000000     



 <<<  SOLVING SETS OF LINEAR EQUATIONS FOR LINEAR RESPONSE PROPERTIES >>>

 Operator symmetry =  2; triplet =   F


 *** THE REQUESTED    1 SOLUTION VECTORS CONVERGED

 Convergence of RSP solution vectors, threshold = 1.00D-03
 ---------------------------------------------------------------
 (dimension of paired reduced space:   12)
 RSP solution vector no.    1; norm of residual   8.01D-04

 *** RSPCTL MICROITERATIONS CONVERGED


           Final output of second order properties from linear response
           ------------------------------------------------------------


@ Spin symmetry of operators: singlet

 Note that minus the linear response function: - << A; B >>(omega) is printed.
 The results are of quadratic accuracy using Sellers formula.

@ FREQUENCY INDEPENDENT SECOND ORDER PROPERTIES

@ -<< YANGECC  ; YANGECC  >> =  1.597118912921D+01
 >>>  Time used in TWOINT     is   2.37 seconds

   Two-electron spin-orbit integrals
   =================================
   Spin-orbit 2-electron CPU  time    2. seconds
   Spin-orbit 2-electron wall time    2. seconds


 Perturbation symmetry.     KSYMOP:       3
 Perturbation spin symmetry.TRPLET:       F
 Orbital variables.         KZWOPT:     127
 Configuration variables.   KZCONF:       0
 Total number of variables. KZVAR :     127


 RSPLR -- linear response calculation for symmetry  3
 RSPLR -- operator label : XANGECC 
 RSPLR -- operator spin  :   0
 RSPLR -- frequencies :   0.000000
 FREQ 2    0.0000000000000000     



 <<<  SOLVING SETS OF LINEAR EQUATIONS FOR LINEAR RESPONSE PROPERTIES >>>

 Operator symmetry =  3; triplet =   F


 *** THE REQUESTED    1 SOLUTION VECTORS CONVERGED

 Convergence of RSP solution vectors, threshold = 1.00D-03
 ---------------------------------------------------------------
 (dimension of paired reduced space:   12)
 RSP solution vector no.    1; norm of residual   8.01D-04

 *** RSPCTL MICROITERATIONS CONVERGED


           Final output of second order properties from linear response
           ------------------------------------------------------------


@ Spin symmetry of operators: singlet

 Note that minus the linear response function: - << A; B >>(omega) is printed.
 The results are of quadratic accuracy using Sellers formula.

@ FREQUENCY INDEPENDENT SECOND ORDER PROPERTIES

@ -<< XANGECC  ; XANGECC  >> =  1.597118912921D+01
 >>>  Time used in TWOINT     is   2.37 seconds

   Two-electron spin-orbit integrals
   =================================
   Spin-orbit 2-electron CPU  time    2. seconds
   Spin-orbit 2-electron wall time    2. seconds


 Perturbation symmetry.     KSYMOP:       4
 Perturbation spin symmetry.TRPLET:       F
 Orbital variables.         KZWOPT:      64
 Configuration variables.   KZCONF:       0
 Total number of variables. KZVAR :      64


 RSPLR -- linear response calculation for symmetry  4
 RSPLR -- operator label : ZANGECC 
 RSPLR -- operator spin  :   0
 RSPLR -- frequencies :   0.000000
 FREQ 2    0.0000000000000000     
  >>> RSPCTL skipped because norm of
      property vector ZANGECC  is only   4.8349263854599326E-014


           Final output of second order properties from linear response
           ------------------------------------------------------------


@ Spin symmetry of operators: singlet

 Note that minus the linear response function: - << A; B >>(omega) is printed.
 The results are of quadratic accuracy using Sellers formula.

@ FREQUENCY INDEPENDENT SECOND ORDER PROPERTIES

@ -<< ZANGECC  ; ZANGECC  >> =  0.000000000000D+00


     Electronic g-tensor (ppm)
    ==========================

    Gauge origin (electronic charge centroid)  0.000000  0.000000  0.101409



    Relativistic mass contribution
    ------------------------------

     -192.


    One-electron gauge correction
    -----------------------------

      198.        0.        0.
        0.      198.        0.
        0.        0.       92.


    Two-electron gauge correction
    -----------------------------

     -113.       -0.       -0.
       -0.     -113.       -0.
       -0.       -0.      -76.


    One-electron spin-orbit+orbital-Zeeman contribution
    ---------------------------------------------------

    -1897.        0.        0.
        0.    -1897.        0.
        0.        0.        0.


    Two-electron spin-orbit+orbital-Zeeman contribution
    ---------------------------------------------------

      747.        0.        0.
        0.      747.        0.
        0.        0.        0.


    Total g-tensor shift
    --------------------

    -1257.        0.        0.
        0.    -1257.        0.
        0.        0.     -176.


    Total g-tensor
    --------------

  2.001063  0.000000  0.000000
  0.000000  2.001063  0.000000
  0.000000  0.000000  2.002143


 G-shift components (ppm)
 ------------------------

@G           _|_    ||                                                          
@G RMC     -192.  -192.                                                         
@G GC1      198.    92.                                                         
@G GC2     -113.   -76.                                                         
@G OZ-SO1 -1897.     0.                                                         
@G OZ-SO2   747.     0.                                                         
@G Total  -1257.  -176.                                                         


 G-shift/tensor eigenvalues and cosines
 --------------------------------------

               g-shift      g-tensor       direction cosines
       1     -0.001257      2.001063  1.0000  0.0000  0.0000
       2     -0.001257      2.001063  0.0000  1.0000  0.0000
       3     -0.000176      2.002143  0.0000  0.0000  1.0000
     ave     -0.000896      2.001423

 >>>> Total CPU  time used in RESPONSE:  16.89 seconds
 >>>> Total wall time used in RESPONSE:  17.37 seconds


                   .-------------------------------------------.
                   | End of Dynamic Property Section (RESPONS) |
                   `-------------------------------------------'

 >>>> Total CPU  time used in DALTON:  22.52 seconds
 >>>> Total wall time used in DALTON:  23.13 seconds

 
     Date and time (Linux)  : Sun Sep  8 20:39:43 2013
     Host name              : lpqlx131.ups-tlse.fr                    
