

     ************************************************************************
     *************** Dalton - An Electronic Structure Program ***************
     ************************************************************************

    This is output from DALTON (Release Dalton2013 patch 0)
   ----------------------------------------------------------------------------
    NOTE:
     
    Dalton is an experimental code for the evaluation of molecular
    properties using (MC)SCF, DFT, CI, and CC wave functions.
    The authors accept no responsibility for the performance of
    the code or for the correctness of the results.
     
    The code (in whole or part) is provided under a licence and
    is not to be reproduced for further distribution without
    the written permission of the authors or their representatives.
     
    See the home page "http://daltonprogram.org" for further information.
     
    If results obtained with this code are published,
    the appropriate citations would be both of:
     
       K. Aidas, C. Angeli, K. L. Bak, V. Bakken, R. Bast,
       L. Boman, O. Christiansen, R. Cimiraglia, S. Coriani,
       P. Dahle, E. K. Dalskov, U. Ekstroem, T. Enevoldsen,
       J. J. Eriksen, P. Ettenhuber, B. Fernandez, L. Ferrighi,
       H. Fliegl, L. Frediani, K. Hald, A. Halkier, C. Haettig,
       H. Heiberg, T. Helgaker, A. C. Hennum, H. Hettema,
       E. Hjertenaes, S. Hoest, I.-M. Hoeyvik, M. F. Iozzi,
       B. Jansik, H. J. Aa. Jensen, D. Jonsson, P. Joergensen,
       J. Kauczor, S. Kirpekar, T. Kjaergaard, W. Klopper,
       S. Knecht, R. Kobayashi, H. Koch, J. Kongsted, A. Krapp,
       K. Kristensen, A. Ligabue, O. B. Lutnaes, J. I. Melo,
       K. V. Mikkelsen, R. H. Myhre, C. Neiss, C. B. Nielsen,
       P. Norman, J. Olsen, J. M. H. Olsen, A. Osted,
       M. J. Packer, F. Pawlowski, T. B. Pedersen, P. F. Provasi,
       S. Reine, Z. Rinkevicius, T. A. Ruden, K. Ruud, V. Rybkin,
       P. Salek, C. C. M. Samson, A. Sanchez de Meras, T. Saue,
       S. P. A. Sauer, B. Schimmelpfennig, K. Sneskov,
       A. H. Steindal, K. O. Sylvester-Hvid, P. R. Taylor,
       A. M. Teale, E. I. Tellgren, D. P. Tew, A. J. Thorvaldsen,
       L. Thoegersen, O. Vahtras, M. A. Watson, D. J. D. Wilson,
       M. Ziolkowski and H. Agren.
       The Dalton quantum chemistry program system.
       WIREs Comput. Mol. Sci. 2013. doi: 10.1002/wcms.1172
    
    and
    
       Dalton, a Molecular Electronic Structure Program,
       Release DALTON2013.0 (2013), see http://daltonprogram.org
   ----------------------------------------------------------------------------

    Authors in alphabetical order (major contribution(s) in parenthesis):

  Kestutis Aidas,           Vilnius University,           Lithuania   (QM/MM)
  Celestino Angeli,         University of Ferrara,        Italy       (NEVPT2)
  Keld L. Bak,              UNI-C,                        Denmark     (AOSOPPA, non-adiabatic coupling, magnetic properties)
  Vebjoern Bakken,          University of Oslo,           Norway      (DALTON; geometry optimizer, symmetry detection)
  Radovan Bast,             KTH Stockholm                 Sweden      (DALTON installation and execution frameworks)
  Linus Boman,              NTNU,                         Norway      (Cholesky decomposition and subsystems)
  Ove Christiansen,         Aarhus University,            Denmark     (CC module)
  Renzo Cimiraglia,         University of Ferrara,        Italy       (NEVPT2)
  Sonia Coriani,            University of Trieste,        Italy       (CC module, MCD in RESPONS)
  Paal Dahle,               University of Oslo,           Norway      (Parallelization)
  Erik K. Dalskov,          UNI-C,                        Denmark     (SOPPA)
  Thomas Enevoldsen,        Univ. of Southern Denmark,    Denmark     (SOPPA)
  Janus J. Eriksen,         Aarhus University,            Denmark     (PE-MP2/SOPPA, TDA)
  Berta Fernandez,          U. of Santiago de Compostela, Spain       (doublet spin, ESR in RESPONS)
  Lara Ferrighi,            Aarhus University,            Denmark     (PCM Cubic response)
  Heike Fliegl,             University of Oslo,           Norway      (CCSD(R12))
  Luca Frediani,            UiT The Arctic U. of Norway,  Norway      (PCM)
  Bin Gao,                  UiT The Arctic U. of Norway,  Norway      (Gen1Int library)
  Christof Haettig,         Ruhr-University Bochum,       Germany     (CC module)
  Kasper Hald,              Aarhus University,            Denmark     (CC module)
  Asger Halkier,            Aarhus University,            Denmark     (CC module)
  Hanne Heiberg,            University of Oslo,           Norway      (geometry analysis, selected one-electron integrals)
  Trygve Helgaker,          University of Oslo,           Norway      (DALTON; ABACUS, ERI, DFT modules, London, and much more)
  Alf Christian Hennum,     University of Oslo,           Norway      (Parity violation)
  Hinne Hettema,            University of Auckland,       New Zealand (quadratic response in RESPONS; SIRIUS supersymmetry)
  Eirik Hjertenaes,         NTNU,                         Norway      (Cholesky decomposition)
  Maria Francesca Iozzi,    University of Oslo,           Norway      (RPA)
  Brano Jansik              Technical Univ. of Ostrava    Czech Rep.  (DFT cubic response)
  Hans Joergen Aa. Jensen,  Univ. of Southern Denmark,    Denmark     (DALTON; SIRIUS, RESPONS, ABACUS modules, London, and much more)
  Dan Jonsson,              UiT The Arctic U. of Norway,  Norway      (cubic response in RESPONS module)
  Poul Joergensen,          Aarhus University,            Denmark     (RESPONS, ABACUS, and CC modules)
  Joanna Kauczor,           Linkoeping University,        Sweden      (Complex polarization propagator (CPP) module)
  Sheela Kirpekar,          Univ. of Southern Denmark,    Denmark     (Mass-velocity & Darwin integrals)
  Wim Klopper,              KIT Karlsruhe,                Germany     (R12 code in CC, SIRIUS, and ABACUS modules)
  Stefan Knecht,            ETH Zurich,                   Switzerland (Parallel CI and MCSCF)
  Rika Kobayashi,           Australian National Univ.,    Australia   (DIIS in CC, London in MCSCF)
  Henrik Koch,              NTNU,                         Norway      (CC module, Cholesky decomposition)
  Jacob Kongsted,           Univ. of Southern Denmark,    Denmark     (Polarizable embedding, QM/MM)
  Andrea Ligabue,           University of Modena,         Italy       (CTOCD, AOSOPPA)
  Ola B. Lutnaes,           University of Oslo,           Norway      (DFT Hessian)
  Juan I. Melo,             University of Buenos Aires,   Argentina   (LRESC, Relativistic Effects on NMR Shieldings)
  Kurt V. Mikkelsen,        University of Copenhagen,     Denmark     (MC-SCRF and QM/MM)
  Rolf H. Myhre,            NTNU,                         Norway      (Cholesky, subsystems and ECC2)
  Christian Neiss,          Univ. Erlangen-Nuernberg,     Germany     (CCSD(R12))
  Christian B. Nielsen,     University of Copenhagen,     Denmark     (QM/MM)
  Patrick Norman,           Linkoeping University,        Sweden      (Cubic response and complex response in RESPONS)
  Jeppe Olsen,              Aarhus University,            Denmark     (SIRIUS CI/density modules)
  Jogvan Magnus H. Olsen,   Univ. of Southern Denmark,    Denmark     (Polarizable embedding, PE library, QM/MM)
  Anders Osted,             Copenhagen University,        Denmark     (QM/MM)
  Martin J. Packer,         University of Sheffield,      UK          (SOPPA)
  Filip Pawlowski,          Kazimierz Wielki University   Poland      (CC3)
  Thomas B. Pedersen,       University of Oslo,           Norway      (Cholesky decomposition)
  Patricio F. Provasi,      University of Northeastern,   Argentina   (Analysis of coupling constants in localized orbitals)
  Zilvinas Rinkevicius,     KTH Stockholm,                Sweden      (open-shell DFT, ESR)
  Elias Rudberg,            KTH Stockholm,                Sweden      (DFT grid and basis info)
  Torgeir A. Ruden,         University of Oslo,           Norway      (Numerical derivatives in ABACUS)
  Kenneth Ruud,             UiT The Arctic U. of Norway,  Norway      (DALTON; ABACUS magnetic properties and  much more)
  Pawel Salek,              KTH Stockholm,                Sweden      (DALTON; DFT code)
  Claire C. M. Samson       University of Karlsruhe       Germany     (Boys localization, r12 integrals in ERI)
  Alfredo Sanchez de Meras, University of Valencia,       Spain       (CC module, Cholesky decomposition)
  Trond Saue,               Paul Sabatier University,     France      (direct Fock matrix construction)
  Stephan P. A. Sauer,      University of Copenhagen,     Denmark     (SOPPA(CCSD), SOPPA prop., AOSOPPA, vibrational g-factors)
  Bernd Schimmelpfennig,    Forschungszentrum Karlsruhe,  Germany     (AMFI module)
  Kristian Sneskov,         Aarhus University,            Denmark     (QM/MM, PE-CC)
  Arnfinn H. Steindal,      UiT The Arctic U. of Norway,  Norway      (parallel QM/MM)
  K. O. Sylvester-Hvid,     University of Copenhagen,     Denmark     (MC-SCRF)
  Peter R. Taylor,          VLSCI/Univ. of Melbourne,     Australia   (Symmetry handling ABACUS, integral transformation)
  Andrew M. Teale,          University of Nottingham,     England     (DFT-AC, DFT-D)
  David P. Tew,             University of Bristol,        England     (CCSD(R12))
  Olav Vahtras,             KTH Stockholm,                Sweden      (triplet response, spin-orbit, ESR, TDDFT, open-shell DFT)
  David J. Wilson,          La Trobe University,          Australia   (DFT Hessian and DFT magnetizabilities)
  Hans Agren,               KTH Stockholm,                Sweden      (SIRIUS module, RESPONS, MC-SCRF solvation model)
 --------------------------------------------------------------------------------

     Date and time (Linux)  : Sun Sep  8 20:39:48 2013
     Host name              : lpqlx131.ups-tlse.fr                    

 * Work memory size             :    64000000 =  488.28 megabytes.

 * Directories for basis set searches:
   1) /home/bast/DALTON-2013.0-Source/build/test_walk_vibave
   2) /home/bast/DALTON-2013.0-Source/build/basis


Compilation information
-----------------------

 Who compiled             | bast
 Host                     | lpqlx131.ups-tlse.fr
 System                   | Linux-3.8.5-201.fc18.x86_64
 CMake generator          | Unix Makefiles
 Processor                | x86_64
 64-bit integers          | OFF
 MPI                      | OFF
 Fortran compiler         | /usr/bin/gfortran
 Fortran compiler version | GNU Fortran (GCC) 4.7.2 20121109 (Red Hat 4.7.2-8)
 C compiler               | /usr/bin/gcc
 C compiler version       | gcc (GCC) 4.7.2 20121109 (Red Hat 4.7.2-8)
 C++ compiler             | /usr/bin/g++
 C++ compiler version     | g++ (GCC) 4.7.2 20121109 (Red Hat 4.7.2-8)
 Static linking           | OFF
 Last Git revision        | f34203295a86316e27f9e7b44f9b6769c4a046c0
 Configuration time       | 2013-09-08 20:31:27.952056


   Content of the .dal input file
 ----------------------------------

**DALTON INPUT                                    
.WALK                                             
*WALK                                             
.NOORTH                                           
.VIBAVE                                           
.DISPLAC                                          
 0.05                                             
.ECKART                                           
N          0.6037353032            0.0000000000   
H         -0.2012451011            0.8886984766   
H         -0.2012451011            0.8886984766   
H         -0.2012451011           -1.7773969533   
**WAVE FUNCTIONS                                  
.HF                                               
*SCF INPUT                                        
.THRESH                                           
2.0D-9                                            
**START                                           
.SHIELD                                           
.MAGNET                                           
.POLARI                                           
*LINRES                                           
.THRESH                                           
1.0D-7                                            
**EACH STEP                                       
.PRINT                                            
 0                                                
.SHIELD                                           
.MAGNET                                           
.POLARI                                           
*LINRES                                           
.THRESH                                           
1.0D-7                                            
**END OF DALTON INPUT                             


   Content of the .mol file
 ----------------------------

BASIS                                                                          
STO-3G                                                                         
Vibrational averaging of shieldings, magnetizabilities and polarizabilities    
                                                                               
Atomtypes=2 Nosymmetry                                                         
Charge=7.0 Atoms=1                                                             
N          0.6023400            0.00000000              0.00000000             
Charge=1.0 Atoms=3                                                             
H         -0.1947831            0.899791                1.558484               
H         -0.1947831            0.899791               -1.558484               
H         -0.1947831           -1.7995826090           -0.000000               


       *******************************************************************
       *********** Output from DALTON general input processing ***********
       *******************************************************************

 --------------------------------------------------------------------------------
   Overall default print level:    0
   Print level for DALTON.STAT:    1

    Geometry optimization
      Starting at iteration:    0
      Maximum number of iterations:   20
    "Old" integral transformation used (limited to max 255 basis functions)
 --------------------------------------------------------------------------------


                  .----------------------------------------------.
                  | Commencing geometry optimization using .WALK |
                  `----------------------------------------------'



     @@>>>>>>>>>> Geometry walk iteration number:    0 <<<<<<<<<<




   ****************************************************************************
   *************** Output of molecule and basis set information ***************
   ****************************************************************************


    The two title cards from your ".mol" input:
    ------------------------------------------------------------------------
 1: Vibrational averaging of shieldings, magnetizabilities and polarizabilit
 2:                                                                         
    ------------------------------------------------------------------------

  Atomic type no.    1
  --------------------
  Nuclear charge:   7.00000
  Number of symmetry independent centers:    1
  Number of basis sets to read;    2
  Basis set file used for this atomic type with Z =   7 :
     "/home/bast/DALTON-2013.0-Source/build/basis/STO-3G"

  Atomic type no.    2
  --------------------
  Nuclear charge:   1.00000
  Number of symmetry independent centers:    3
  Number of basis sets to read;    2
  Basis set file used for this atomic type with Z =   1 :
     "/home/bast/DALTON-2013.0-Source/build/basis/STO-3G"


                         SYMGRP: Point group information
                         -------------------------------

Point group: C1 


                                 Isotopic Masses
                                 ---------------

                           N          14.003074
                           H           1.007825
                           H           1.007825
                           H           1.007825

                       Total mass:    17.026549 amu
                       Natural abundance:  99.585 %

 Center-of-mass coordinates (a.u.):    0.460792   -0.000000    0.000000


  Atoms and basis sets
  --------------------

  Number of atom types :    2
  Total number of atoms:    4

  Basis set used is "STO-3G" from the basis set library.

  label    atoms   charge   prim   cont     basis
  ----------------------------------------------------------------------
  N           1    7.0000    15     5      [6s3p|2s1p]                                        
  H           3    1.0000     3     1      [3s|1s]                                            
  ----------------------------------------------------------------------
  total:      4   10.0000    24     8
  ----------------------------------------------------------------------

  Threshold for neglecting AO integrals:  1.00D-12


  Cartesian Coordinates (a.u.)
  ----------------------------

  Total number of coordinates:   12
  N       :     1  x   0.6023400000    2  y   0.0000000000    3  z   0.0000000000
  H       :     4  x  -0.1947831000    5  y   0.8997910000    6  z   1.5584840000
  H       :     7  x  -0.1947831000    8  y   0.8997910000    9  z  -1.5584840000
  H       :    10  x  -0.1947831000   11  y  -1.7995826090   12  z  -0.0000000000


   Interatomic separations (in Angstrom):
   --------------------------------------

            N           H           H           H     
            ------      ------      ------      ------
 N     :    0.000000
 H     :    1.041539    0.000000
 H     :    1.041539    1.649428    0.000000
 H     :    1.041539    1.649428    1.649428    0.000000


  Max    interatomic separation is    1.6494 Angstrom (    3.1170 Bohr)
  between atoms    4 and    2, "H     " and "H     ".

  Min HX interatomic separation is    1.0415 Angstrom (    1.9682 Bohr)


  Bond distances (Angstrom):
  --------------------------

                  atom 1     atom 2       distance
                  ------     ------       --------
  bond distance:  H          N            1.041539
  bond distance:  H          N            1.041539
  bond distance:  H          N            1.041539


  Bond angles (degrees):
  ----------------------

                  atom 1     atom 2     atom 3         angle
                  ------     ------     ------         -----
  bond angle:     H          N          H            104.712
  bond angle:     H          N          H            104.712
  bond angle:     H          N          H            104.712




 Principal moments of inertia (u*A**2) and principal axes
 --------------------------------------------------------

   IA       1.813393          0.000000    1.000000    0.000000
   IB       1.813393          0.000000    0.000000    1.000000
   IC       2.741903          1.000000   -0.000000    0.000000


 Rotational constants
 --------------------

               A                   B                   C

         278692.4386         278692.4170         184316.8732 MHz
            9.296179            9.296178            6.148149 cm-1


@  Nuclear repulsion energy :   11.631996297964 Hartree


                     .---------------------------------------.
                     | Starting in Integral Section (HERMIT) |
                     `---------------------------------------'



    *************************************************************************
    ****************** Output from HERMIT input processing ******************
    *************************************************************************



     ************************************************************************
     ************************** Output from HERINT **************************
     ************************************************************************


 Threshold for neglecting two-electron integrals:  1.00D-12
 Number of two-electron integrals written:         538 ( 80.8% )
 Megabytes written:                              0.007

 >>>> Total CPU  time used in HERMIT:   0.01 seconds
 >>>> Total wall time used in HERMIT:   0.01 seconds


                        .----------------------------------.
                        | End of Integral Section (HERMIT) |
                        `----------------------------------'



                   .--------------------------------------------.
                   | Starting in Wave Function Section (SIRIUS) |
                   `--------------------------------------------'


 *** Output from Huckel module :

     Using EWMO model:          T
     Using EHT  model:          F
     Number of Huckel orbitals each symmetry:    8

 EWMO - Energy Weighted Maximum Overlap - is a Huckel type method,
        which normally is better than Extended Huckel Theory.
 Reference: Linderberg and Ohrn, Propagators in Quantum Chemistry (Wiley, 1973)

 Huckel EWMO eigenvalues for symmetry :  1
          -15.673151      -1.517138      -0.705941      -0.705941      -0.547400
           -0.191835      -0.157397      -0.157397

 **********************************************************************
 *SIRIUS* a direct, restricted step, second order MCSCF program       *
 **********************************************************************

 
     Date and time (Linux)  : Sun Sep  8 20:39:48 2013
     Host name              : lpqlx131.ups-tlse.fr                    

 Title lines from ".mol" input file:
     Vibrational averaging of shieldings, magnetizabilities and polarizabilit
                                                                             

 Print level on unit LUPRI =   2 is   0
 Print level on unit LUW4  =   2 is   5

@    Restricted, closed shell Hartree-Fock calculation.

 Initial molecular orbitals are obtained according to
 ".MOSTART EWMO  " input option

     Wave function specification
     ============================
@    For the wave function of type :      >>> HF <<<
@    Number of closed shell electrons          10
@    Number of electrons in active shells       0
@    Total charge of the molecule               0

@    Spin multiplicity and 2 M_S                1         0
     Total number of symmetries                 1
@    Reference state symmetry                   1

     Orbital specifications
     ======================
     Abelian symmetry species          All |    1
                                       --- |  ---
@    Occupied SCF orbitals               5 |    5
     Secondary orbitals                  3 |    3
     Total number of orbitals            8 |    8
     Number of basis functions           8 |    8

     Optimization information
     ========================
@    Number of configurations                 1
@    Number of orbital rotations             15
     ------------------------------------------
@    Total number of variables               16

     Maximum number of Fock   iterations      0
     Maximum number of DIIS   iterations     60
     Maximum number of QC-SCF iterations     60
     Threshold for SCF convergence     2.00D-09


 >>>>> DIIS optimization of Hartree-Fock <<<<<

 C1-DIIS algorithm; max error vectors =   10

 Iter      Total energy        Error norm    Delta(E)  DIIS dim.
 -----------------------------------------------------------------------------
     (Precalculated two-electron integrals are transformed to P-supermatrix elements.
      Threshold for discarding integrals :  1.00D-12 )
@  1    -55.4094080067        7.35026D-01   -5.54D+01    1
      Virial theorem: -V/T =      2.011142
@      MULPOP N      -0.30; H       0.10; H       0.10; H       0.10; 
 -----------------------------------------------------------------------------
@  2    -55.4524459938        1.56832D-01   -4.30D-02    2
      Virial theorem: -V/T =      2.008332
@      MULPOP N      -0.43; H       0.14; H       0.14; H       0.14; 
 -----------------------------------------------------------------------------
@  3    -55.4550917869        1.82154D-02   -2.65D-03    3
      Virial theorem: -V/T =      2.007631
@      MULPOP N      -0.43; H       0.14; H       0.14; H       0.14; 
 -----------------------------------------------------------------------------
@  4    -55.4551190895        1.68212D-03   -2.73D-05    4
      Virial theorem: -V/T =      2.007343
@      MULPOP N      -0.43; H       0.14; H       0.14; H       0.14; 
 -----------------------------------------------------------------------------
@  5    -55.4551193284        1.37248D-04   -2.39D-07    5
      Virial theorem: -V/T =      2.007366
@      MULPOP N      -0.43; H       0.14; H       0.14; H       0.14; 
 -----------------------------------------------------------------------------
@  6    -55.4551193324        7.55649D-06   -4.09D-09    6
      Virial theorem: -V/T =      2.007367
@      MULPOP N      -0.43; H       0.14; H       0.14; H       0.14; 
 -----------------------------------------------------------------------------
@  7    -55.4551193325        3.44278D-10   -1.25D-11    7

@ *** DIIS converged in   7 iterations !
@     Converged SCF energy, gradient:    -55.455119332458    3.44D-10
    - total time used in SIRFCK :              0.00 seconds


 *** SCF orbital energy analysis ***

 Only the five lowest virtual orbital energies printed in each symmetry.

 Number of electrons :   10
 Orbital occupations :    5

 Sym       Hartree-Fock orbital energies

  1    -15.31217099    -1.07994131    -0.55779777    -0.55779770    -0.35577002
         0.61299392     0.69342301     0.69342316

    E(LUMO) :     0.61299392 au (symmetry 1)
  - E(HOMO) :    -0.35577002 au (symmetry 1)
  ------------------------------------------
    gap     :     0.96876394 au

 >>> Writing SIRIFC interface file <<<

 >>>> CPU and wall time for SCF :       0.002       0.002


                       .-----------------------------------.
                       | >>> Final results from SIRIUS <<< |
                       `-----------------------------------'


@    Spin multiplicity:           1
@    Spatial symmetry:            1
@    Total charge of molecule:    0

@    Final HF energy:             -55.455119332458                 
@    Nuclear repulsion:            11.631996297964
@    Electronic energy:           -67.087115630421

@    Final gradient norm:           0.000000000344

 
     Date and time (Linux)  : Sun Sep  8 20:39:48 2013
     Host name              : lpqlx131.ups-tlse.fr                    

 (Only coefficients >0.0100 are printed.)

 Molecular orbitals for symmetry species  1
 ------------------------------------------

    Orbital         1        2        3        4        5        6        7
   1 N   :1s    -0.9935   0.2192   0.0000  -0.0000   0.0946  -0.1793   0.0000
   2 N   :1s    -0.0310  -0.7429  -0.0000   0.0000  -0.4754   1.1948  -0.0000
   3 N   :2px    0.0050   0.1369  -0.0000   0.0000  -0.8731  -0.6025   0.0000
   4 N   :2py   -0.0000  -0.0000   0.0000  -0.5920  -0.0000  -0.0000  -1.0298
   5 N   :2pz    0.0000   0.0000  -0.5920  -0.0000  -0.0000   0.0000   0.0000
   6 H   :1s     0.0064  -0.1594  -0.4345  -0.2509   0.1391  -0.6959   0.4831
   7 H   :1s     0.0064  -0.1594   0.4345  -0.2509   0.1391  -0.6959   0.4831
   8 H   :1s     0.0064  -0.1594  -0.0000   0.5017   0.1391  -0.6959  -0.9662



 >>>> Total CPU  time used in SIRIUS :      0.00 seconds
 >>>> Total wall time used in SIRIUS :      0.00 seconds

 
     Date and time (Linux)  : Sun Sep  8 20:39:48 2013
     Host name              : lpqlx131.ups-tlse.fr                    


                     .---------------------------------------.
                     | End of Wave Function Section (SIRIUS) |
                     `---------------------------------------'



 Changes of defaults for WALK:
 -----------------------------


 Walk type: Numerical differentiation                 
 Vibrational averaging of  molecular properties at an effective geometry
 Molecular properties transformed to the following Eckart frame
 N          0.6037353032            0.0000000000            0.0000000000
 H         -0.2012451011            0.8886984766            1.5392709141
 H         -0.2012451011            0.8886984766           -1.5392709141
 H         -0.2012451011           -1.7773969533            0.0000000000




Maximum number of iterations reset in numerical differentiation to    25

 Predicted orbitals are not orthogonalized.




        *****************************************************************
        ******** Output from **START input processing for ABACUS ********
        *****************************************************************



 The following molecular properties will be calculated in this run:
 ------------------------------------------------------------------

 Default print level:        0

      The molecular gradient
      The molecular Hessian
      Geometry optimization
      Static polarizabilities
      Nuclear magnetic shieldings
      Magnetic susceptibilities
      Molecular rotational g-factor
      Natural orbital connection is used
      for perturbation dependent basis sets.


 Changes of defaults for LINRES:
 -------------------------------

 Singlet linear response module for properties
 as VCD, MAGSUS, SPIN-SPIN, SHIELD, SPINRO, MOLGFA
 Print level in LINRES        :    0
 Threshold in LINRES          : 1.00D-07
 Maximum iterations in LINRES :   60

 Center of mass dipole origin  :    0.460792   -0.000000    0.000000

 Center of mass gauge origin   :    0.460792   -0.000000    0.000000


 Changes of defaults for WALK:
 -----------------------------


 Walk type: Numerical differentiation                 
 Vibrational averaging of  molecular properties at an effective geometry
 Molecular properties transformed to the following Eckart frame
 N          0.6037353032            0.0000000000            0.0000000000
 H         -0.2012451011            0.8886984766            1.5392709141
 H         -0.2012451011            0.8886984766           -1.5392709141
 H         -0.2012451011           -1.7773969533            0.0000000000




Maximum number of iterations reset in numerical differentiation to    25

 Predicted orbitals are not orthogonalized.




                 .------------------------------------------------.
                 | Starting in Static Property Section (ABACUS) - |
                 `------------------------------------------------'


 
     Date and time (Linux)  : Sun Sep  8 20:39:48 2013
     Host name              : lpqlx131.ups-tlse.fr                    

 (ORTBVC) new orbital b-vector no.  7
 is removed because of linear dependence;
 norm of vector after Gram-Schmidt's orthogonalization 2.26481D-15

 (ORTBVC) new orbital b-vector no.  8
 is removed because of linear dependence;
 norm of vector after Gram-Schmidt's orthogonalization 9.94021D-16

 (ORTBVC) new orbital b-vector no.  9
 is removed because of linear dependence;
 norm of vector after Gram-Schmidt's orthogonalization 9.93978D-16

 (ORTBVC) NBOSIM reduced from  9 to  6

 Integral transformation: Total CPU and WALL times (sec)       0.000       0.001

 Largest deviation from tra-rot symmetry is in gradient element  1:  5.68E-12


   ***************************************************************************
   ************************ FINAL RESULTS from ABACUS ************************
   ***************************************************************************


 
     Date and time (Linux)  : Sun Sep  8 20:39:48 2013
     Host name              : lpqlx131.ups-tlse.fr                    


                             Molecular geometry (au)
                             -----------------------

 N          0.6023400000            0.0000000000            0.0000000000
 H         -0.1947831000            0.8997910000            1.5584840000
 H         -0.1947831000            0.8997910000           -1.5584840000
 H         -0.1947831000           -1.7995826090           -0.0000000000





                        Molecular wave function and energy
                        ----------------------------------

     Spin multiplicity  1     State number       1     Total charge       0

     Total energy        -55.4551193325 au (Hartrees)
                         -1509.01055856 eV
                           -145597.3934 kJ/mol


                             Relativistic corrections
                             ------------------------

     Darwin correction:                          0.0743112650 au
     Mass-velocity correction:                  -0.0948899294 au

     Total relativistic correction:             -0.0205786644 au (0.0371%)
     Non-relativistic + relativistic energy:   -55.4756979969 au




                             Molecular gradient (au)
                             -----------------------

 N          0.0066654955            0.0000001901           -0.0000000000
 H         -0.0022218040            0.0048823769            0.0084565465
 H         -0.0022218040            0.0048823769           -0.0084565465
 H         -0.0022218875           -0.0097649440            0.0000000000





                              Molecular Hessian (au)
                              ----------------------

           N    x      N    y      N    z      H    x      H    y      H    z

 N    x    0.322801
 N    y   -0.000000    0.818605
 N    z   -0.000000    0.000000    0.818606

 H    x   -0.107600    0.119632    0.207209    0.110139
 H    y    0.066556   -0.186310   -0.149923   -0.087623    0.188306
 H    z    0.115278   -0.149923   -0.359427   -0.151768    0.168253    0.382587

 H    x   -0.107600    0.119632   -0.207209   -0.001269   -0.010942    0.030644
 H    y    0.066556   -0.186310    0.149923   -0.010942    0.014876   -0.028693
 H    z   -0.115278    0.149923   -0.359427   -0.030644    0.028693   -0.027454

 H    x   -0.107600   -0.239264   -0.000000   -0.001269    0.032009    0.005846
 H    y   -0.133112   -0.445984   -0.000000   -0.021067   -0.016871    0.010364
 H    z   -0.000000    0.000000   -0.099752   -0.024797   -0.047023    0.004293


           H    x      H    y      H    z      H    x      H    y      H    z

 H    x    0.110139
 H    y   -0.087623    0.188306
 H    z    0.151768   -0.168253    0.382587

 H    x   -0.001269    0.032009   -0.005846    0.110139
 H    y   -0.021067   -0.016871   -0.010364    0.175246    0.479727
 H    z    0.024797    0.047023    0.004293    0.000000    0.000000    0.091165





                                  Dipole moment
                                  -------------

                 au               Debye          C m (/(10**-30)
              0.727956           1.850280           6.171871


                             Dipole moment components
                             ------------------------

                 au               Debye          C m (/(10**-30)

      x     -0.72795634        -1.85028035        -6.17187090
      y     -0.00000003        -0.00000008        -0.00000025
      z     -0.00000000        -0.00000000        -0.00000000


   Units:   1 a.u. =   2.54175 Debye 
            1 a.u. =   8.47835 (10**-30) C m (SI)




                           Static polarizabilities (au)
                           ----------------------------

                         Ex          Ey          Ez

            Ex       1.394985    0.000000   -0.000000
            Ey       0.000000    5.719486   -0.000000
            Ez      -0.000000   -0.000000    5.719485



                      Static polarizabilities (angstroms**3)
                      --------------------------------------

                         Ex          Ey          Ez

            Ex       0.206715    0.000000   -0.000000
            Ey       0.000000    0.847540   -0.000000
            Ez      -0.000000   -0.000000    0.847540



                +--------------------------------------------------+
                ! Principal values and axes of polarizability (au) !
                +--------------------------------------------------+



                value              x          y          z
             ---------------------------------------------

                5.7195          0.0000     1.0000     0.0000
                5.7195         -0.0000     0.0000     1.0000
                1.3950          1.0000    -0.0000     0.0000


            Mean value:    4.2780        Anisotropy:    4.3245





   ****************************************************************************
   ************************ ABACUS - MAGNETIZABILITIES ************************
   ****************************************************************************


  Units:  JT**(-2)/(10**(-30))   (SI) 
          ppm cm**(3) mol**(-1)  (cgs)

 London orbitals (GIAOs) used.


  Magnetizabilities                    au          SI         cgs
  ---------------------------------------------------------------

  Isotropic magnetizability:      -3.2414   -255.7793    -15.4034
  Diamagnetic contribution:       -4.2616   -336.2815    -20.2514
  Paramagnetic contribution:       1.0202     80.5022      4.8480
  Parallel component:             -3.2237   -254.3866    -15.3195
  Perpendicular component:        -3.2502   -256.4757    -15.4453
  Anisotropy:                      0.0265      2.0891      0.1258

  Magnetizability is cylindrical.


  Principal values (au, SI, and cgs) and axes:
  --------------------------------------------

  khi_aa      -3.2237   -254.3866    -15.3195      1.0000    0.0000    0.0000
  khi_bb      -3.2502   -256.4757    -15.4453      0.0000   -0.0000    1.0000
  khi_cc      -3.2502   -256.4757    -15.4453     -0.0000    1.0000    0.0000


                        Total magnetizability tensor (au)
                        ---------------------------------

                       Bx                  By                  Bz

  Bx        -3.223741675115      0.000000054482      0.000000000000
  By         0.000000054482     -3.250215555813     -0.000000000000
  Bz         0.000000000000     -0.000000000000     -3.250215503541



                     Diamagnetic magnetizability tensor (au)
                     ---------------------------------------

                       Bx                  By                  Bz

  Bx        -4.646703725031      0.000000083537      0.000000000000
  By         0.000000083537     -4.068993450653     -0.000000000000
  Bz         0.000000000000     -0.000000000000     -4.068993582526



                     Paramagnetic magnetizability tensor (au)
                     ----------------------------------------

                       Bx                  By                  Bz

  Bx         1.422962049917     -0.000000029055     -0.000000000000
  By        -0.000000029055      0.818777894840     -0.000000000000
  Bz        -0.000000000000     -0.000000000000      0.818778078985



 ****************************************************************************************
 ************************ ABACUS - MOLECULAR ROTATIONAL g-TENSOR ************************
 ****************************************************************************************


 London orbitals used.


 Principal moments of inertia (a.u.) and principal axes
 ------------------------------------------------------

   IA    6.475745          0.000000    1.000000    0.000000
   IB    6.475746          0.000000    0.000000    1.000000
   IC    9.791514          1.000000   -0.000000    0.000000


  Molecular rotational g-factor
  -----------------------------

 Isotropic g-tensor       :       0.45033304
 Nuclear contribution     :       0.98513149
 Electronic contribution  :      -0.10779888
 Parallel component:              0.41392167
 Perpendicular component:         0.46853872
 Anisotropy:                     -0.05461705

 Molecular rotational g-tensor is cylindrical.


  Molecular rotational g-tensor in principal axis system (a.u.):
  --------------------------------------------------------------

   A            0.46853876      0.00000000     -0.00000001
   B            0.00000000      0.46853869      0.00000000
   C           -0.00000002      0.00000000      0.41392167


  Nuclear contribution in principal axis system (a.u.):
  -----------------------------------------------------

   A            0.97796938      0.00000000      0.00000001
   B            0.00000000      0.97796938      0.00000000
   C            0.00000001      0.00000000      0.99945573


  Electronic contribution in principal axis system (a.u.):
  --------------------------------------------------------

   A           -0.09654749      0.00000000     -0.00000001
   B            0.00000000     -0.09654752     -0.00000000
   C           -0.00000002     -0.00000000     -0.13030162


  Diamagnetic contribution in principal axis system (a.u.):
  ---------------------------------------------------------

   A           -0.41288313     -0.00000000     -0.00000001
   B           -0.00000000     -0.41288317      0.00000000
   C           -0.00000001      0.00000000     -0.45523243


  ******************************************************************************
  ************************ ABACUS - CHEMICAL SHIELDINGS ************************
  ******************************************************************************



                 Shielding tensors in symmetry coordinates (ppm)
                 -----------------------------------------------

                       Bx             By             Bz

        N    x   290.43882556    -0.00000052    -0.00000000
        N    y    -0.00000162   304.43965125     0.00000000
        N    z    -0.00000000     0.00000000   304.43960795

        H    x    27.65775054    -1.78299573    -3.08823968
        H    y    -2.48485982    31.72638184     4.92517930
        H    z    -4.30390443     4.92517945    37.41348878

        H    x    27.65775054    -1.78299573     3.08823968
        H    y    -2.48485982    31.72638184    -4.92517930
        H    z     4.30390443    -4.92517945    37.41348878

        H    x    27.65774625     3.56599021     0.00000000
        H    y     4.96971821    40.25703783    -0.00000000
        H    z     0.00000000    -0.00000000    28.88282630





  Chemical shielding for N     :
  ==============================


  Shielding constant:    299.7727 ppm
  Anisotropy:            -14.0008 ppm
  Asymmetry:               0.0000    

  S parameter:            14.0008 ppm
  A parameter:             0.0000 ppm


  Total shielding tensor (ppm):
  -----------------------------

 String on input: "N       "
 String on input: "N       "
                    Bx             By             Bz

  N      x   290.43882556    -0.00000052    -0.00000000
  N      y    -0.00000162   304.43965125     0.00000000
  N      z    -0.00000000     0.00000000   304.43960795


  Diamagnetic and paramagnetic contributions (ppm):
  -------------------------------------------------

                 Bx         By         Bz            Bx         By         Bz

  N      x   421.1729     0.0000    -0.0000     -130.7341    -0.0000    -0.0000
  N      y     0.0000   412.1913    -0.0000       -0.0000  -107.7516     0.0000
  N      z     0.0000     0.0000   412.1913       -0.0000     0.0000  -107.7517

  Diamagnetic contribution:    415.185175         Paramagnetic:    -115.412480


  Antisymmetric and traceless symmetric parts (ppm):
  --------------------------------------------------

                 Bx         By         Bz            Bx         By         Bz

  N      x     0.0000     0.0000    -0.0000       -9.3339    -0.0000    -0.0000
  N      y    -0.0000     0.0000    -0.0000       -0.0000     4.6670     0.0000
  N      z     0.0000     0.0000     0.0000       -0.0000     0.0000     4.6669


  Principal values and axes:
  --------------------------

  N         304.439651  =  299.77  +   4.67:    -0.000000  1.000000  0.000002
  N         304.439608  =  299.77  +   4.67:    -0.000000 -0.000002  1.000000
  N         290.438826  =  299.77  -   9.33:     1.000000  0.000000  0.000000


  Chemical shielding for H     :
  ==============================


  Shielding constant:     32.2659 ppm
  Anisotropy:             13.9511 ppm
  Asymmetry:               0.2725    

  S parameter:            14.1227 ppm
  A parameter:             0.7019 ppm


  Total shielding tensor (ppm):
  -----------------------------

 String on input: "H       "
 String on input: "H       "
                    Bx             By             Bz

  H      x    27.65775054    -1.78299573    -3.08823968
  H      y    -2.48485982    31.72638184     4.92517930
  H      z    -4.30390443     4.92517945    37.41348878


  Diamagnetic and paramagnetic contributions (ppm):
  -------------------------------------------------

                 Bx         By         Bz            Bx         By         Bz

  H      x    25.5889    -2.8384    -4.9163        2.0689     1.0554     1.8281
  H      y    -4.3618    29.9996     8.1724        1.8769     1.7268    -3.2472
  H      z    -7.5548     8.1724    39.4363        3.2509    -3.2472    -2.0228

  Diamagnetic contribution:     31.674922         Paramagnetic:       0.590952


  Antisymmetric and traceless symmetric parts (ppm):
  --------------------------------------------------

                 Bx         By         Bz            Bx         By         Bz

  H      x     0.0000     0.3509     0.6078       -4.6081    -2.1339    -3.6961
  H      y    -0.3509     0.0000    -0.0000       -2.1339    -0.5395     4.9252
  H      z    -0.6078     0.0000     0.0000       -3.6961     4.9252     5.1476


  Principal values and axes:
  --------------------------

  H          26.348183  =   32.27  -   5.92:     0.956007  0.146673  0.254045
  H          28.882828  =   32.27  -   3.38:     0.000000  0.866025 -0.500000
  H          41.566610  =   32.27  +   9.30:    -0.293345  0.478003  0.827926


  Chemical shielding for H     :
  ==============================


  Shielding constant:     32.2659 ppm
  Anisotropy:             13.9511 ppm
  Asymmetry:               0.2725    

  S parameter:            14.1227 ppm
  A parameter:             0.7019 ppm


  Total shielding tensor (ppm):
  -----------------------------

 String on input: "H       "
 String on input: "H       "
                    Bx             By             Bz

  H      x    27.65775054    -1.78299573     3.08823968
  H      y    -2.48485982    31.72638184    -4.92517930
  H      z     4.30390443    -4.92517945    37.41348878


  Diamagnetic and paramagnetic contributions (ppm):
  -------------------------------------------------

                 Bx         By         Bz            Bx         By         Bz

  H      x    25.5889    -2.8384     4.9163        2.0689     1.0554    -1.8281
  H      y    -4.3618    29.9996    -8.1724        1.8769     1.7268     3.2472
  H      z     7.5548    -8.1724    39.4363       -3.2509     3.2472    -2.0228

  Diamagnetic contribution:     31.674922         Paramagnetic:       0.590952


  Antisymmetric and traceless symmetric parts (ppm):
  --------------------------------------------------

                 Bx         By         Bz            Bx         By         Bz

  H      x     0.0000     0.3509    -0.6078       -4.6081    -2.1339     3.6961
  H      y    -0.3509     0.0000     0.0000       -2.1339    -0.5395    -4.9252
  H      z     0.6078    -0.0000     0.0000        3.6961    -4.9252     5.1476


  Principal values and axes:
  --------------------------

  H          26.348183  =   32.27  -   5.92:     0.956007  0.146673 -0.254045
  H          28.882828  =   32.27  -   3.38:     0.000000  0.866025  0.500000
  H          41.566610  =   32.27  +   9.30:     0.293345 -0.478003  0.827926


  Chemical shielding for H     :
  ==============================


  Shielding constant:     32.2659 ppm
  Anisotropy:             13.9511 ppm
  Asymmetry:               0.2725    

  S parameter:            14.1227 ppm
  A parameter:             0.7019 ppm


  Total shielding tensor (ppm):
  -----------------------------

 String on input: "H       "
 String on input: "H       "
                    Bx             By             Bz

  H      x    27.65774625     3.56599021     0.00000000
  H      y     4.96971821    40.25703783    -0.00000000
  H      z     0.00000000    -0.00000000    28.88282630


  Diamagnetic and paramagnetic contributions (ppm):
  -------------------------------------------------

                 Bx         By         Bz            Bx         By         Bz

  H      x    25.5888     5.6768    -0.0000        2.0689    -2.1109     0.0000
  H      y     8.7235    44.1546     0.0000       -3.7538    -3.8976    -0.0000
  H      z    -0.0000    -0.0000    25.2813        0.0000    -0.0000     3.6016

  Diamagnetic contribution:     31.674917         Paramagnetic:       0.590953


  Antisymmetric and traceless symmetric parts (ppm):
  --------------------------------------------------

                 Bx         By         Bz            Bx         By         Bz

  H      x     0.0000    -0.7019     0.0000       -4.6081     4.2679     0.0000
  H      y     0.7019     0.0000     0.0000        4.2679     7.9912    -0.0000
  H      z    -0.0000    -0.0000     0.0000        0.0000    -0.0000    -3.3830


  Principal values and axes:
  --------------------------

  H          26.348179  =   32.27  -   5.92:     0.956007 -0.293345 -0.000000
  H          28.882826  =   32.27  -   3.38:     0.000000 -0.000000  1.000000
  H          41.566605  =   32.27  +   9.30:     0.293345  0.956007 -0.000000


                         +--------------------------------+
                         ! Summary of chemical shieldings !
                         +--------------------------------+

@1  Definitions from J. Mason, Solid state Nuc. Magn. Res. 2 (1993), 285

@1 London orbitals (GIAOs) has been used.

@1 atom   shielding       dia      para     skew      span     (aniso     asym)
@1 ----------------------------------------------------------------------------
@1 N       299.7727  415.1852 -115.4125   -1.0000   14.0008    7.0004    3.0000
@1 H        32.2659   31.6749    0.5910    0.6669   15.2184   13.9511    0.2725
@1 H        32.2659   31.6749    0.5910    0.6669   15.2184   13.9511    0.2725
@1 H        32.2659   31.6749    0.5910    0.6669   15.2184   13.9511    0.2725



                         +--------------------------------+
                         ! Summary of chemical shieldings !
                         +--------------------------------+

@2  Definitions from Smith, Palke, and Grieg, Concepts in Mag. Res. 4 (1992), 107

@2 London orbitals (GIAOs) has been used.

@2 atom   shielding       dia      para     aniso      asym        S        A
@2 ----------------------------------------------------------------------------
@2 N       299.7727  415.1852 -115.4125  -14.0008    0.0000   14.0008    0.0000
@2 H        32.2659   31.6749    0.5910   13.9511    0.2725   14.1227    0.7019
@2 H        32.2659   31.6749    0.5910   13.9511    0.2725   14.1227    0.7019
@2 H        32.2659   31.6749    0.5910   13.9511    0.2725   14.1227    0.7019



   Interatomic separations (in Angstrom):
   --------------------------------------

            N           H           H           H     
            ------      ------      ------      ------
 N     :    0.000000
 H     :    1.041539    0.000000
 H     :    1.041539    1.649428    0.000000
 H     :    1.041539    1.649428    1.649428    0.000000


  Max    interatomic separation is    1.6494 Angstrom (    3.1170 Bohr)
  between atoms    4 and    2, "H     " and "H     ".

  Min HX interatomic separation is    1.0415 Angstrom (    1.9682 Bohr)


  Bond distances (Angstrom):
  --------------------------

                  atom 1     atom 2       distance
                  ------     ------       --------
  bond distance:  H          N            1.041539
  bond distance:  H          N            1.041539
  bond distance:  H          N            1.041539


  Bond angles (degrees):
  ----------------------

                  atom 1     atom 2     atom 3         angle
                  ------     ------     ------         -----
  bond angle:     H          N          H            104.712
  bond angle:     H          N          H            104.712
  bond angle:     H          N          H            104.712




                                 Isotopic Masses
                                 ---------------

                           N          14.003074
                           H           1.007825
                           H           1.007825
                           H           1.007825

                       Total mass:    17.026549 amu
                       Natural abundance:  99.585 %

 Center-of-mass coordinates (a.u.):    0.460792   -0.000000    0.000000
  Norm of projected gradient     0.018582


                                 Isotopic Masses
                                 ---------------

                           N          14.003074
                           H           1.007825
                           H           1.007825
                           H           1.007825

                       Total mass:    17.026549 amu
                       Natural abundance:  99.585 %

 Center-of-mass coordinates (a.u.):    0.460792   -0.000000    0.000000

               Column   1     Column   2     Column   3
       1       2.37561093    -5.76208931     2.37561068
       2       2.79518993     3.03010247     1.79062533
       3      -3.93788266    -0.43885472     2.75501002
    ==== End of matrix output ====

               Column   1     Column   2     Column   3
       1      -1.98485952     2.80190523     3.59403125
       2      -1.77596181    -1.20271705     3.71520820
       3       2.52292953    -0.06618884     3.45458727
    ==== End of matrix output ====

               Column   1     Column   2     Column   3
       1       0.18298610    -0.31240572     4.10881282
       2       0.17953394     0.14284795     3.97688963
       3      -0.24914216    -0.00091142     4.23913838
    ==== End of matrix output ====

               Column   1     Column   2     Column   3
       1      -0.00015960     0.00026842     4.11406495
       2      -0.00015538    -0.00012192     4.00545296
       3       0.00021616    -0.00000000     4.22244379
    ==== End of matrix output ====

               Column   1     Column   2     Column   3
       1      -0.00000015     0.00000025     4.11023339
       2      -0.00000014    -0.00000011     4.00170241
       3       0.00000020    -0.00000000     4.22764682
    ==== End of matrix output ====

               Column   1     Column   2     Column   3
       1      -0.00000022    -0.00000010    -1.58186490
       2      -0.00000021     0.00000004    -1.54009565
       3      -0.00000008    -0.00000000     6.15458115
    ==== End of matrix output ====

               Column   1     Column   2     Column   3
       1      -0.00000033     0.00000007     0.79848068
       2      -0.00000032    -0.00000003     0.77739674
       3       0.00000006    -0.00000000     6.36168340
    ==== End of matrix output ====

               Column   1     Column   2     Column   3
       1      -0.00000034    -0.00000000    -0.03297732
       2      -0.00000033     0.00000000    -0.03210655
       3      -0.00000000    -0.00000000     6.43084669
    ==== End of matrix output ====

               Column   1     Column   2     Column   3
       1      -0.00000034     0.00000000     0.00035893
       2      -0.00000034    -0.00000000     0.00034946
       3       0.00000000    -0.00000000     6.43096421
    ==== End of matrix output ====
 (rotation in the xy-plane only; zeroing a redundant parameter)


       ********************************************************************
       ****************** ABACUS - VIBRATIONAL AVERAGING ******************
       ********************************************************************

 Energy at effective geometry:   -55.4551193325


  Analytical gradient at effective geometry
  -----------------------------------------


               Column   1     Column   2     Column   3     Column   4     Column   5
       1       0.00666550     0.00000019    -0.00000000    -0.00222180     0.00488238

               Column   6     Column   7     Column   8     Column   9     Column  10
       1       0.00845655    -0.00222180     0.00488238    -0.00845655    -0.00222189

               Column  11     Column  12
       1      -0.00976494     0.00000000
    ==== End of matrix output ====


  Analytical Hessian at effective geometry
  ----------------------------------------


               Column   1     Column   2     Column   3     Column   4     Column   5
       1       0.32280055    -0.00000022    -0.00000000    -0.10760023     0.06655595
       2      -0.00000022     0.81750872     0.00000000     0.12070495    -0.18594483
       3      -0.00000000     0.00000000     0.81750931     0.20906713    -0.14992317
       4      -0.10760023     0.12070495     0.20906713     0.10715493    -0.08798086
       5       0.06655595    -0.18594483    -0.14992317    -0.08798086     0.18682746
       6       0.11527830    -0.14992320    -0.35906131    -0.15238736     0.16903570
       7      -0.10760023     0.12070495    -0.20906713     0.00022265    -0.01129915
       8       0.06655595    -0.18594483     0.14992317    -0.01129915     0.01611060
       9      -0.11527830     0.14992320    -0.35906131    -0.03126294     0.02947651
      10      -0.10760009    -0.24140967     0.00000000     0.00022265     0.03272406
      11      -0.13311168    -0.44561906    -0.00000000    -0.02142493    -0.01699323
      12      -0.00000000     0.00000000    -0.09938668    -0.02541682    -0.04858904

               Column   6     Column   7     Column   8     Column   9     Column  10
       1       0.11527830    -0.10760023     0.06655595    -0.11527830    -0.10760009
       2      -0.14992320     0.12070495    -0.18594483     0.14992320    -0.24140967
       3      -0.35906131    -0.20906713     0.14992317    -0.35906131     0.00000000
       4      -0.15238736     0.00022265    -0.01129915    -0.03126294     0.00022265
       5       0.16903570    -0.01129915     0.01611060     0.02947651     0.03272406
       6       0.38201314     0.03126294    -0.02947651    -0.02802783     0.00584612
       7       0.03126294     0.10715493    -0.08798086     0.15238736     0.00022265
       8      -0.02947651    -0.08798086     0.18682746    -0.16903570     0.03272406
       9      -0.02802783     0.15238736    -0.16903570     0.38201314    -0.00584612
      10       0.00584612     0.00022265     0.03272406    -0.00584612     0.10715479
      11       0.01036400    -0.02142493    -0.01699323    -0.01036400     0.17596154
      12       0.00507601     0.02541682     0.04858904     0.00507601    -0.00000000

               Column  11     Column  12
       1      -0.13311168    -0.00000000
       2      -0.44561906     0.00000000
       3      -0.00000000    -0.09938668
       4      -0.02142493    -0.02541682
       5      -0.01699323    -0.04858904
       6       0.01036400     0.00507601
       7      -0.02142493     0.02541682
       8      -0.01699323     0.04858904
       9      -0.01036400     0.00507601
      10       0.17596154    -0.00000000
      11       0.47960553     0.00000000
      12       0.00000000     0.08923467
    ==== End of matrix output ====


  Dipole moment at effective geometry
  -----------------------------------


               Column   1     Column   2     Column   3
       1      -0.72795634     0.00000002    -0.00000000
    ==== End of matrix output ====


  Magnetizabilities at effective geometry
  ---------------------------------------

                       Bx                  By                  Bz

  Bx        -3.223741675115      0.000000052810      0.000000000000
  By         0.000000052810     -3.250215555813     -0.000000000000
  Bz         0.000000000000     -0.000000000000     -3.250215503541



  Rotational g tensor at effective geometry
  -----------------------------------------

                       Bx                  By                  Bz

  Bx         0.413921669638     -0.000000002792      0.000000000000
  By        -0.000000009382      0.468538761081      0.000000000000
  Bz         0.000000000000      0.000000000000      0.468538687613



  Chemical shielding tensors at effective geometry
  ------------------------------------------------

                  Bx             By             Bz

  N      x   290.43882556     0.00000036    -0.00000000
  N      y    -0.00000074   304.43965125     0.00000000
  N      z    -0.00000000     0.00000000   304.43960795
                  Bx             By             Bz

  H      x    27.65775027    -1.78299547    -3.08823937
  H      y    -2.48485956    31.72638211     4.92517949
  H      z    -4.30390412     4.92517973    37.41348878
                  Bx             By             Bz

  H      x    27.65775027    -1.78299547     3.08823937
  H      y    -2.48485956    31.72638211    -4.92517949
  H      z     4.30390412    -4.92517973    37.41348878
                  Bx             By             Bz

  H      x    27.65774679     3.56599101     0.00000000
  H      y     4.96971901    40.25703729    -0.00000000
  H      z     0.00000000    -0.00000000    28.88282630


  Static polarizability at effective geometry
  -------------------------------------------

                       Ex                  Ey                  Ez

  Ex         1.394984784196      0.000000737676     -0.000000000000
  Ey         0.000000737676      5.719486105259     -0.000000000000
  Ez        -0.000000000000     -0.000000000000      5.719484859988



 CPU time statistics for ABACUS
 ------------------------------




 >>>> Total CPU  time used in ABACUS:   0.17 seconds
 >>>> Total wall time used in ABACUS:   0.17 seconds


                   .-------------------------------------------.
                   | End of Static Property Section (ABACUS) - |
                   `-------------------------------------------'


@  Geometry walk step no.   0:  Molecular energy =    -55.455119   Molecular gradient =  0.018582


     @@>>>>>>>>>> Geometry walk iteration number:    1 <<<<<<<<<<




 **************************************************************************************
 ****************** Output of molecule and basis set info suppressed ******************
 **************************************************************************************



                     .---------------------------------------.
                     | Starting in Integral Section (HERMIT) |
                     `---------------------------------------'


 Threshold for neglecting two-electron integrals:  1.00D-12
 Number of two-electron integrals written:         579 ( 86.9% )
 Megabytes written:                              0.007

 >>>> Total CPU  time used in HERMIT:   0.00 seconds
 >>>> Total wall time used in HERMIT:   0.00 seconds


                        .----------------------------------.
                        | End of Integral Section (HERMIT) |
                        `----------------------------------'



                   .--------------------------------------------.
                   | Starting in Wave Function Section (SIRIUS) |
                   `--------------------------------------------'


 **********************************************************************
 *SIRIUS* a direct, restricted step, second order MCSCF program       *
 **********************************************************************

 (Wave function specification suppressed here, see output above for initial geometry.)


 >>>>> DIIS optimization of Hartree-Fock <<<<<

 C1-DIIS algorithm; max error vectors =   10

 Iter      Total energy        Error norm    Delta(E)  DIIS dim.
 -----------------------------------------------------------------------------
     (Precalculated two-electron integrals are transformed to P-supermatrix elements.
      Threshold for discarding integrals :  1.00D-12 )
@  1    -55.4543382720        1.95315D-02    7.81D-04    1
      Virial theorem: -V/T =      2.007335
@      MULPOP N      -0.43; H       0.14; H       0.15; H       0.14; 
 -----------------------------------------------------------------------------
@  2    -55.4543550076        2.97204D-03   -1.67D-05    2
      Virial theorem: -V/T =      2.007330
@      MULPOP N      -0.43; H       0.14; H       0.15; H       0.14; 
 -----------------------------------------------------------------------------
@  3    -55.4543562425        7.10483D-04   -1.23D-06    3
      Virial theorem: -V/T =      2.007332
@      MULPOP N      -0.43; H       0.14; H       0.15; H       0.14; 
 -----------------------------------------------------------------------------
@  4    -55.4543563268        9.75407D-05   -8.43D-08    4
      Virial theorem: -V/T =      2.007331
@      MULPOP N      -0.43; H       0.14; H       0.15; H       0.14; 
 -----------------------------------------------------------------------------
@  5    -55.4543563285        1.36459D-05   -1.69D-09    5
      Virial theorem: -V/T =      2.007332
@      MULPOP N      -0.43; H       0.14; H       0.15; H       0.14; 
 -----------------------------------------------------------------------------
@  6    -55.4543563286        3.47404D-06   -3.01D-11    6
      Virial theorem: -V/T =      2.007332
@      MULPOP N      -0.43; H       0.14; H       0.15; H       0.14; 
 -----------------------------------------------------------------------------
@  7    -55.4543563286        2.50091D-07   -2.10D-12    7
      Virial theorem: -V/T =      2.007332
@      MULPOP N      -0.43; H       0.14; H       0.15; H       0.14; 
 -----------------------------------------------------------------------------
@  8    -55.4543563286        2.63046D-08   -1.42D-14    8
      Virial theorem: -V/T =      2.007332
@      MULPOP N      -0.43; H       0.14; H       0.15; H       0.14; 
 -----------------------------------------------------------------------------
@  9    -55.4543563286        6.84216D-10   -4.26D-14    9

@ *** DIIS converged in   9 iterations !
@     Converged SCF energy, gradient:    -55.454356328568    6.84D-10
    - total time used in SIRFCK :              0.00 seconds


 *** SCF orbital energy analysis ***

 Only the five lowest virtual orbital energies printed in each symmetry.

 Number of electrons :   10
 Orbital occupations :    5

 Sym       Hartree-Fock orbital energies

  1    -15.31222474    -1.08022102    -0.56252019    -0.55305095    -0.35581205
         0.60986010     0.68303879     0.70751906

    E(LUMO) :     0.60986010 au (symmetry 1)
  - E(HOMO) :    -0.35581205 au (symmetry 1)
  ------------------------------------------
    gap     :     0.96567215 au

 >>> Writing SIRIFC interface file <<<


 Check ratio for geometry walk with converged SCF :



 >>> step control for geometry walk (ABACUS interface)


 (SIRSTP) Close to convergence, ratio set to one.
 Energy difference; actual and predicted:    7.63004D-04    0.00000D+00


 *** GEOMETRY WALK STEP ACCEPTED.


 >>>> CPU and wall time for SCF :       0.004       0.004


                       .-----------------------------------.
                       | >>> Final results from SIRIUS <<< |
                       `-----------------------------------'


@    Spin multiplicity:           1
@    Spatial symmetry:            1
@    Total charge of molecule:    0

@    Final HF energy:             -55.454356328568                 
@    Nuclear repulsion:            11.634475423865
@    Electronic energy:           -67.088831752433

@    Final gradient norm:           0.000000000684

 
     Date and time (Linux)  : Sun Sep  8 20:39:48 2013
     Host name              : lpqlx131.ups-tlse.fr                    



 >>>> Total CPU  time used in SIRIUS :      0.00 seconds
 >>>> Total wall time used in SIRIUS :      0.00 seconds

 
     Date and time (Linux)  : Sun Sep  8 20:39:48 2013
     Host name              : lpqlx131.ups-tlse.fr                    


                     .---------------------------------------.
                     | End of Wave Function Section (SIRIUS) |
                     `---------------------------------------'



        *****************************************************************
        ******** Output from **EACH  input processing for ABACUS ********
        *****************************************************************



 The following molecular properties will be calculated in this run:
 ------------------------------------------------------------------

 Default print level:        0

      The molecular gradient
      Geometry optimization
      Static polarizabilities
      Nuclear magnetic shieldings
      Magnetic susceptibilities
      Molecular rotational g-factor
      Natural orbital connection is used
      for perturbation dependent basis sets.

 Center of mass dipole origin  :    0.460792   -0.000000   -0.000000

 Center of mass gauge origin   :    0.460792   -0.000000   -0.000000


                 .------------------------------------------------.
                 | Starting in Static Property Section (ABACUS) - |
                 `------------------------------------------------'


 
     Date and time (Linux)  : Sun Sep  8 20:39:48 2013
     Host name              : lpqlx131.ups-tlse.fr                    

 Integral transformation: Total CPU and WALL times (sec)       0.000       0.001

 Largest deviation from tra-rot symmetry is in gradient element  1:  3.26E-10


   ***************************************************************************
   ************************ FINAL RESULTS from ABACUS ************************
   ***************************************************************************


 
     Date and time (Linux)  : Sun Sep  8 20:39:48 2013
     Host name              : lpqlx131.ups-tlse.fr                    


                             Molecular geometry (au)
                             -----------------------

 N          0.6023400000           -0.0000000726           -0.0038163860
 H         -0.2083439957            0.9153890295            1.5851651316
 H         -0.1812225021            0.8841933002           -1.5318034617
 H         -0.1947828022           -1.7995819304           -0.0003354638





                        Molecular wave function and energy
                        ----------------------------------

     Spin multiplicity  1     State number       1     Total charge       0

     Total energy        -55.4543563286 au (Hartrees)
                         -1508.98979617 eV
                           -145595.3901 kJ/mol


                             Relativistic corrections
                             ------------------------

     Darwin correction:                          0.0743113765 au
     Mass-velocity correction:                  -0.0948902652 au

     Total relativistic correction:             -0.0205788887 au (0.0371%)
     Non-relativistic + relativistic energy:   -55.4749352173 au




                             Molecular gradient (au)
                             -----------------------

 N          0.0058447730            0.0010225519           -0.0326198885
 H         -0.0101681357            0.0139840021            0.0240664275
 H          0.0065738191           -0.0052249703            0.0087684194
 H         -0.0022504564           -0.0097815837           -0.0002149584





                                  Dipole moment
                                  -------------

                 au               Debye          C m (/(10**-30)
              0.728052           1.850524           6.172683


                             Dipole moment components
                             ------------------------

                 au               Debye          C m (/(10**-30)

      x     -0.72804270        -1.85049985        -6.17260308
      y     -0.00008979        -0.00022823        -0.00076130
      z     -0.00370091        -0.00940677        -0.03137762


   Units:   1 a.u. =   2.54175 Debye 
            1 a.u. =   8.47835 (10**-30) C m (SI)




                           Static polarizabilities (au)
                           ----------------------------

                         Ex          Ey          Ez

            Ex       1.395827   -0.001426   -0.102287
            Ey      -0.001426    5.721213    0.165561
            Ez      -0.102287    0.165561    5.723397



                      Static polarizabilities (angstroms**3)
                      --------------------------------------

                         Ex          Ey          Ez

            Ex       0.206840   -0.000211   -0.015157
            Ey      -0.000211    0.847796    0.024534
            Ez      -0.015157    0.024534    0.848120



                +--------------------------------------------------+
                ! Principal values and axes of polarizability (au) !
                +--------------------------------------------------+



                value              x          y          z
             ---------------------------------------------

                5.8891         -0.0164     0.7022     0.7118
                5.5579          0.0170     0.7120    -0.7020
                1.3934          0.9997    -0.0006     0.0236


            Mean value:    4.2801        Anisotropy:    4.3396





   ****************************************************************************
   ************************ ABACUS - MAGNETIZABILITIES ************************
   ****************************************************************************


  Units:  JT**(-2)/(10**(-30))   (SI) 
          ppm cm**(3) mol**(-1)  (cgs)

 London orbitals (GIAOs) used.


  Magnetizabilities                    au          SI         cgs
  ---------------------------------------------------------------

  Isotropic magnetizability:      -3.2409   -255.7445    -15.4013
  Diamagnetic contribution:       -4.2618   -336.3031    -20.2527
  Paramagnetic contribution:       1.0209     80.5586      4.8514
  1st anisotropy:                 -0.0145     -1.1411     -0.0687
  2nd anisotropy:                  0.0269      2.1204      0.1277



  Principal values (au, SI, and cgs) and axes:
  --------------------------------------------

  khi_aa      -3.2492   -256.3974    -15.4406     -0.0498    0.9257   -0.3749
  khi_bb      -3.2230   -254.3310    -15.3162      0.9931    0.0062   -0.1167
  khi_cc      -3.2506   -256.5053    -15.4471      0.1058    0.3781    0.9197


                        Total magnetizability tensor (au)
                        ---------------------------------

                       Bx                  By                  Bz

  Bx        -3.223409513434      0.000105429444     -0.003169317265
  By         0.000105429444     -3.249417634690     -0.000494326188
  Bz        -0.003169317265     -0.000494326188     -3.250022794969



                     Diamagnetic magnetizability tensor (au)
                     ---------------------------------------

                       Bx                  By                  Bz

  Bx        -4.647057483222     -0.000126038954     -0.017083943398
  By        -0.000126038954     -4.069372400995      0.020800543108
  Bz        -0.017083943398      0.020800543108     -4.069082062780



                     Paramagnetic magnetizability tensor (au)
                     ----------------------------------------

                       Bx                  By                  Bz

  Bx         1.423647969787      0.000231468398      0.013914626133
  By         0.000231468398      0.819954766304     -0.021294869296
  Bz         0.013914626133     -0.021294869296      0.819059267811



 ****************************************************************************************
 ************************ ABACUS - MOLECULAR ROTATIONAL g-TENSOR ************************
 ****************************************************************************************


 London orbitals used.


 Principal moments of inertia (a.u.) and principal axes
 ------------------------------------------------------

   IA    6.378097         -0.017870    0.701060    0.712878
   IB    6.574076          0.018451    0.713102   -0.700818
   IC    9.795831          0.999670   -0.000630    0.025678


  Molecular rotational g-tensor
  -----------------------------

  Isotropic g-tensor       :       0.45011242
  Nuclear contribution     :       0.98512528
  Diamagnetic contribution :      -0.42701286
  Electronic contribution  :      -0.10800000
  1st anisotropy:                  0.03511208
  2nd anisotropy:                  0.01946403



  Molecular rotational g-tensor in principal axis system (a.u.):
  --------------------------------------------------------------

   A            0.47352048     -0.00017813     -0.00007278
   B           -0.00018361      0.46308844      0.00004666
   C           -0.00011178      0.00006952      0.41372835


  Nuclear contribution in principal axis system (a.u.):
  -----------------------------------------------------

   A            0.97765458     -0.00002932     -0.00052630
   B           -0.00003022      0.97830489      0.00052992
   C           -0.00080832      0.00078962      0.99941637


  Electronic contribution in principal axis system (a.u.):
  --------------------------------------------------------

   A           -0.09432565     -0.00015916     -0.00007443
   B           -0.00016405     -0.09921080      0.00004498
   C           -0.00011431      0.00006702     -0.13046354


  Diamagnetic contribution in principal axis system (a.u.):
  ---------------------------------------------------------

   A           -0.40980845      0.00001034      0.00052794
   B            0.00001066     -0.41600565     -0.00052824
   C            0.00081085     -0.00078712     -0.45522449


  ******************************************************************************
  ************************ ABACUS - CHEMICAL SHIELDINGS ************************
  ******************************************************************************



                 Shielding tensors in symmetry coordinates (ppm)
                 -----------------------------------------------

                       Bx             By             Bz

        N    x   290.39406901    -0.01441729    -0.83629269
        N    y    -0.00481446   304.23068384     3.63292743
        N    z    -1.21243251     3.63258013   304.39983916

        H    x    27.33582994    -1.72888467    -3.01145388
        H    y    -2.42469716    31.47412616     4.80112915
        H    z    -4.20480262     4.77858472    36.84443429

        H    x    27.99520626    -1.83254603     3.16299992
        H    y    -2.54498731    31.98366656    -5.04534273
        H    z     4.39914966    -5.05958285    37.99642774

        H    x    27.65742629     3.56329049    -0.01415696
        H    y     4.96704878    40.24448212     0.12798622
        H    z    -0.00692006     0.16522840    28.88061309





  Chemical shielding for N     :
  ==============================


  Shielding constant:    299.6749 ppm
  Anisotropy:            -14.0404 ppm
  Asymmetry:               0.7746    

  S parameter:            15.3805 ppm
  A parameter:             0.1881 ppm


  Total shielding tensor (ppm):
  -----------------------------

 String on input: "N       "
 String on input: "N       "
                    Bx             By             Bz

  N      x   290.39406901    -0.01441729    -0.83629269
  N      y    -0.00481446   304.23068384     3.63292743
  N      z    -1.21243251     3.63258013   304.39983916


  Diamagnetic and paramagnetic contributions (ppm):
[...]
       3      -0.00000000    -0.00000000     6.46390497
    ==== End of matrix output ====

               Column   1     Column   2     Column   3
       1      -0.00000035     0.00000000     0.00042070
       2      -0.00000035    -0.00000000     0.00041424
       3       0.00000000    -0.00000000     6.46404335
    ==== End of matrix output ====


       ********************************************************************
       ****************** ABACUS - VIBRATIONAL AVERAGING ******************
       ********************************************************************

 Coordinate displaced in this calculation:    H    z
 Displacement:                               -0.0500000000

 All displacements are now done - numerical differentiation is complete.

 Dipole moment second derivatives:
 ---------------------------------
     Mode          X                Y                Z
       1         -0.068646        -0.071111        -0.000003
       2         -0.068646         0.071261         0.000003
       3          0.030912         0.000001         0.000000
       4          0.002538        -0.006345         0.000004
       5          0.002538         0.006332        -0.000004
       6          0.408229        -0.000000         0.000000

 Magnetizability tensor second derivatives:
 ------------------------------------------

 Mode      XX          XY          YY          XZ          YZ          ZZ
   1     0.266474    0.084383    0.638329    0.000003   -0.000009    0.153429
   2     0.266474   -0.084359    0.153410   -0.000003    0.000009    0.638348
   3     0.279395   -0.000001    0.510231   -0.000000    0.000000    0.510233
   4    -0.369425    0.167207    0.026811   -0.000093   -0.000006    0.047119
   5    -0.369425   -0.167438    0.047057    0.000092    0.000007    0.026874
   6    -0.144934   -0.000000   -0.441271   -0.000000    0.000000   -0.441271

 Rotational g tensor second derivatives:
 ---------------------------------------

 Mode      XX          XY          YY          XZ          YZ          ZZ
   1    -0.121138   -0.094407   -0.403087   -0.000004    0.000008   -0.005255
   2    -0.121138    0.094448   -0.005236    0.000004   -0.000007   -0.403094
   3     0.013245    0.000000   -0.082765    0.000000   -0.000000   -0.082766
   4     0.080295   -0.089284   -0.135527    0.000050    0.000008   -0.163104
   5     0.080295    0.089377   -0.163083   -0.000049   -0.000009   -0.135564
   6     0.036222    0.000000    0.209058    0.000000   -0.000000    0.209058

 Nuclear shielding tensor second derivatives for: N     
 --------------------------------------------------------

 Mode   Bxmx    Bxmy    Bxmz    Bymx    Bymy    Bymz    Bzmx    Bzmy    Bzmz
   1   -35.564  -4.247  -0.000 -11.936-167.119   0.003  -0.000   0.003 -32.111
   2   -35.564   4.193   0.000  10.728 -32.510  -0.002   0.000  -0.003-167.167
   3   -47.403   0.000   0.000   0.000 -92.681  -0.000   0.000  -0.000 -92.682
   4    55.668 -60.935   0.034  -4.148 -35.141  -0.007   0.002  -0.007  -9.671
   5    55.668  61.125  -0.034   4.877 -10.035   0.006  -0.002   0.008 -35.564
   6    -1.632   0.000  -0.000  -0.000  39.577  -0.000   0.000  -0.000  39.577

 Nuclear shielding tensor second derivatives for: H     
 --------------------------------------------------------

 Mode   Bxmx    Bxmy    Bxmz    Bymx    Bymy    Bymz    Bzmx    Bzmy    Bzmz
   1     6.193   0.032   1.575   1.844   2.020  -4.864   0.843  -1.542   5.577
   2     1.897   1.603   1.252   0.072   1.815   0.309   2.325  -3.018  -7.100
   3     8.895  -0.821  -1.422  -1.876   7.750   3.201  -3.249   3.201  11.446
   4    -2.740  -0.302  -2.467   1.368  -0.674  -1.827   0.807   0.990  -5.473
   5    -9.217   0.480   2.788   0.938  -6.450  -2.279   3.203  -5.029  -6.387
   6    -0.741   0.898   1.556   0.463  -4.223   0.450   0.802   0.450  -3.704

 Nuclear shielding tensor second derivatives for: H     
 --------------------------------------------------------

 Mode   Bxmx    Bxmy    Bxmz    Bymx    Bymy    Bymz    Bzmx    Bzmy    Bzmz
   1     6.193   0.032  -1.575   1.844   2.020   4.865  -0.843   1.542   5.577
   2     1.897   1.603  -1.252   0.072   1.815  -0.309  -2.325   3.018  -7.099
   3     8.895  -0.821   1.422  -1.876   7.750  -3.201   3.249  -3.201  11.446
   4    -2.734  -0.305   2.471   1.367  -0.673   1.825  -0.805  -0.990  -5.468
   5    -9.224   0.483  -2.792   0.940  -6.451   2.280  -3.204   5.029  -6.392
   6    -0.741   0.898  -1.556   0.463  -4.223  -0.450  -0.802  -0.450  -3.704

 Nuclear shielding tensor second derivatives for: H     
 --------------------------------------------------------

 Mode   Bxmx    Bxmy    Bxmz    Bymx    Bymy    Bymz    Bzmx    Bzmy    Bzmz
   1    -0.252  -2.142  -0.000  -2.170 -10.063   0.000   0.000   0.000  -1.777
   2     8.340  -1.129   0.000  -1.607   5.914  -0.000  -0.000  -0.000   8.192
   3     8.896   1.642  -0.000   3.752  13.294   0.000  -0.000   0.000   5.901
   4   -12.460  -5.124  -0.001  -3.988 -12.077   0.002  -0.000   0.000  -4.208
   5     0.508   4.770   0.001  -0.652  -2.095  -0.002   0.001  -0.000  -0.490
   6    -0.741  -1.796   0.000  -0.926  -3.444   0.000  -0.000   0.000  -4.483

 Polarizability second derivatives:
 ----------------------------------

 Mode      XX          XY          YY          XZ          YZ          ZZ
   1     0.697664   -1.155241    1.383829   -0.000044    0.000033    3.103153
   2     0.697663    1.155284    3.102944    0.000044   -0.000033    1.384037
   3     0.628691    0.000008    4.352898   -0.000000   -0.000000    4.352857
   4     0.301361    0.264318    1.397387   -0.000147   -0.000002    1.405695
   5     0.301364   -0.264316    1.405562    0.000146    0.000002    1.397523
   6     2.831437   -0.000002    0.529630   -0.000000   -0.000000    0.529629


          *************************************************************
          ******** Vibrationally averaged molecular properties ********
          *************************************************************



  Vibrational Frequencies
  -----------------------

   mode   cm-1     hartrees 
  --------------------------
   1   4016.18     0.018299
   2   4016.18     0.018299
   3   3736.94     0.017027
   4   2080.17     0.009478
   5   2080.17     0.009478
   6   1422.56     0.006482




----------------------------------------------------------
 Vibrational corrections for temperature T =     0.000000 K
----------------------------------------------------------


                                Dipole moment (au)
                                ------------------

    Effective geometry       <P^(0)_2>_eff      Vibrationally corrected
 -----------------------------------------------------------------------

  X       -0.72795634            0.00793114           -0.72002520
  Y        0.00000002            0.00000095            0.00000096
  Z       -0.00000000            0.00000000            0.00000000


                              Magnetizabilities (au)
                              ----------------------

    Effective geometry       <P^(0)_2>_eff      Vibrationally corrected
 -----------------------------------------------------------------------

 XX       -3.22374168           -0.00751303           -3.23125470
 XY        0.00000005           -0.00000317           -0.00000312
 XZ        0.00000000           -0.00000000           -0.00000000
 YY       -3.25021556            0.00177561           -3.24843995
 YZ       -0.00000000            0.00000002            0.00000002
 ZZ       -3.25021550            0.00177773           -3.24843778


                               Rotational g tensor
                               -------------------

    Effective geometry       <P^(0)_2>_eff      Vibrationally corrected
 -----------------------------------------------------------------------

 AX        0.41392167            0.00138105            0.41530272
 BX       -0.00000000            0.00000166            0.00000166
 CX        0.00000000            0.00000000            0.00000000
 AY       -0.00000001            0.00000262            0.00000262
 BY        0.46853876           -0.00362430            0.46491446
 CY        0.00000000           -0.00000001           -0.00000001
 AZ        0.00000000            0.00000000            0.00000000
 BZ        0.00000000           -0.00000001           -0.00000001
 CZ        0.46853869           -0.00362533            0.46491335


                    Nuclear magnetic shielding constants (ppm)
                    ------------------------------------------


Atom : N     
    Effective geometry       <P^(0)_2>_eff      Vibrationally corrected
 -----------------------------------------------------------------------

 Bxmx      290.43882556            0.66159584          291.10042140
 Bymx        0.00000036            0.00150119            0.00150155
 Bzmx       -0.00000000           -0.00000258           -0.00000258
 Bxmy       -0.00000074            0.00235241            0.00235167
 Bymy      304.43965125           -2.05895565          302.38069560
 Bzmy        0.00000000            0.00001530            0.00001530
 Bxmz       -0.00000000            0.00000298            0.00000298
 Bymz        0.00000000           -0.00001421           -0.00001421
 Bzmz      304.43960795           -2.05718124          302.38242672

Atom : H     
    Effective geometry       <P^(0)_2>_eff      Vibrationally corrected
 -----------------------------------------------------------------------

 Bxmx       27.65775027           -0.05642241           27.60132786
 Bymx       -1.78299547            0.04242023           -1.74057524
 Bzmx       -3.08823937            0.07255993           -3.01567944
 Bxmy       -2.48485956            0.02721509           -2.45764447
 Bymy       31.72638211           -0.10128131           31.62510080
 Bzmy        4.92517949           -0.05731833            4.86786117
 Bxmz       -4.30390412            0.04728989           -4.25661423
 Bymz        4.92517973           -0.05823480            4.86694493
 Bzmz       37.41348878           -0.16919802           37.24429076

Atom : H     
    Effective geometry       <P^(0)_2>_eff      Vibrationally corrected
 -----------------------------------------------------------------------

 Bxmx       27.65775027           -0.05642232           27.60132795
 Bymx       -1.78299547            0.04241999           -1.74057548
 Bzmx        3.08823937           -0.07256007            3.01567930
 Bxmy       -2.48485956            0.02721486           -2.45764469
 Bymy       31.72638211           -0.10128091           31.62510120
 Bzmy       -4.92517949            0.05731781           -4.86786168
 Bxmz        4.30390412           -0.04728970            4.25661442
 Bymz       -4.92517973            0.05823392           -4.86694580
 Bzmz       37.41348878           -0.16919910           37.24428968

Atom : H     
    Effective geometry       <P^(0)_2>_eff      Vibrationally corrected
 -----------------------------------------------------------------------

 Bxmx       27.65774679           -0.05636992           27.60137687
 Bymx        3.56599101           -0.08482469            3.48116631
 Bzmx        0.00000000            0.00000023            0.00000023
 Bxmy        4.96971901           -0.05441105            4.91530796
 Bymy       40.25703729           -0.20192907           40.05510823
 Bzmy       -0.00000000            0.00000051            0.00000051
 Bxmz        0.00000000           -0.00000011           -0.00000011
 Bymz       -0.00000000            0.00000080            0.00000080
 Bzmz       28.88282630           -0.06722744           28.81559887


                           Static polarizabilities (au)
                           ----------------------------


    Effective geometry       <P^(0)_2>_eff      Vibrationally corrected
 -----------------------------------------------------------------------

 XX        1.39498478            0.08415281            1.47913759
 XY        0.00000074            0.00000037            0.00000111
 XZ       -0.00000000           -0.00000001           -0.00000001
 YY        5.71948611            0.12045270            5.83993880
 YZ       -0.00000000            0.00000000            0.00000000
 ZZ        5.71948486            0.12045937            5.83994423

 Numerical differentiation complete.


 CPU time statistics for ABACUS
 ------------------------------




 >>>> Total CPU  time used in ABACUS:   0.24 seconds
 >>>> Total wall time used in ABACUS:   0.25 seconds


                   .-------------------------------------------.
                   | End of Static Property Section (ABACUS) - |
                   `-------------------------------------------'


@  Geometry walk step no.  12:  Molecular energy =    -55.455112   Molecular gradient =  0.021446


                          .-----------------------------.
                          | Geometry walk has converged |
                          `-----------------------------'



 **************************************************************************************
 ****************** Output of molecule and basis set info suppressed ******************
 **************************************************************************************



                     .---------------------------------------.
                     | Starting in Integral Section (HERMIT) |
                     `---------------------------------------'


 Threshold for neglecting two-electron integrals:  1.00D-12
 Number of two-electron integrals written:         538 ( 80.8% )
 Megabytes written:                              0.007

 >>>> Total CPU  time used in HERMIT:   0.00 seconds
 >>>> Total wall time used in HERMIT:   0.00 seconds


                        .----------------------------------.
                        | End of Integral Section (HERMIT) |
                        `----------------------------------'



                   .--------------------------------------------.
                   | Starting in Wave Function Section (SIRIUS) |
                   `--------------------------------------------'


 **********************************************************************
 *SIRIUS* a direct, restricted step, second order MCSCF program       *
 **********************************************************************

 (Wave function specification suppressed here, see output above for initial geometry.)


 >>>>> DIIS optimization of Hartree-Fock <<<<<

 C1-DIIS algorithm; max error vectors =   10

 Iter      Total energy        Error norm    Delta(E)  DIIS dim.
 -----------------------------------------------------------------------------
     (Precalculated two-electron integrals are transformed to P-supermatrix elements.
      Threshold for discarding integrals :  1.00D-12 )
@  1    -55.4550405348        1.94427D-02    7.12D-05    1
      Virial theorem: -V/T =      2.007281
@      MULPOP N      -0.43; H       0.14; H       0.14; H       0.14; 
 -----------------------------------------------------------------------------
@  2    -55.4551056230        8.17059D-03   -6.51D-05    2
      Virial theorem: -V/T =      2.007277
@      MULPOP N      -0.43; H       0.14; H       0.14; H       0.14; 
 -----------------------------------------------------------------------------
@  3    -55.4551188649        1.54538D-03   -1.32D-05    3
      Virial theorem: -V/T =      2.007370
@      MULPOP N      -0.43; H       0.14; H       0.14; H       0.14; 
 -----------------------------------------------------------------------------
@  4    -55.4551193305        1.22921D-04   -4.66D-07    4
      Virial theorem: -V/T =      2.007368
@      MULPOP N      -0.43; H       0.14; H       0.14; H       0.14; 
 -----------------------------------------------------------------------------
@  5    -55.4551193325        2.67475D-06   -1.94D-09    5
      Virial theorem: -V/T =      2.007367
@      MULPOP N      -0.43; H       0.14; H       0.14; H       0.14; 
 -----------------------------------------------------------------------------
@  6    -55.4551193325        1.00714D-07   -6.25D-13    6
      Virial theorem: -V/T =      2.007367
@      MULPOP N      -0.43; H       0.14; H       0.14; H       0.14; 
 -----------------------------------------------------------------------------
@  7    -55.4551193325        5.32982D-10    2.84D-14    7

@ *** DIIS converged in   7 iterations !
@     Converged SCF energy, gradient:    -55.455119332458    5.33D-10
    - total time used in SIRFCK :              0.00 seconds


 *** SCF orbital energy analysis ***

 Only the five lowest virtual orbital energies printed in each symmetry.

 Number of electrons :   10
 Orbital occupations :    5

 Sym       Hartree-Fock orbital energies

  1    -15.31217099    -1.07994131    -0.55779777    -0.55779770    -0.35577002
         0.61299392     0.69342301     0.69342316

    E(LUMO) :     0.61299392 au (symmetry 1)
  - E(HOMO) :    -0.35577002 au (symmetry 1)
  ------------------------------------------
    gap     :     0.96876394 au

 >>> Writing SIRIFC interface file <<<


 Check ratio for geometry walk with converged SCF :



 >>> step control for geometry walk (ABACUS interface)


 (SIRSTP) Close to convergence, ratio set to one.
 Energy difference; actual and predicted:   -7.62020D-06    0.00000D+00


 *** GEOMETRY WALK STEP ACCEPTED.


 >>>> CPU and wall time for SCF :       0.003       0.003


                       .-----------------------------------.
                       | >>> Final results from SIRIUS <<< |
                       `-----------------------------------'


@    Spin multiplicity:           1
@    Spatial symmetry:            1
@    Total charge of molecule:    0

@    Final HF energy:             -55.455119332458                 
@    Nuclear repulsion:            11.631996297964
@    Electronic energy:           -67.087115630421

@    Final gradient norm:           0.000000000533

 
     Date and time (Linux)  : Sun Sep  8 20:39:51 2013
     Host name              : lpqlx131.ups-tlse.fr                    



 >>>> Total CPU  time used in SIRIUS :      0.00 seconds
 >>>> Total wall time used in SIRIUS :      0.00 seconds

 
     Date and time (Linux)  : Sun Sep  8 20:39:51 2013
     Host name              : lpqlx131.ups-tlse.fr                    


                     .---------------------------------------.
                     | End of Wave Function Section (SIRIUS) |
                     `---------------------------------------'


 Center of mass dipole origin  :    0.460792   -0.000000    0.000000

 Center of mass gauge origin   :    0.460792   -0.000000    0.000000


                 .------------------------------------------------.
                 | Starting in Static Property Section (ABACUS) - |
                 `------------------------------------------------'


 
     Date and time (Linux)  : Sun Sep  8 20:39:51 2013
     Host name              : lpqlx131.ups-tlse.fr                    


   ***************************************************************************
   ************************ FINAL RESULTS from ABACUS ************************
   ***************************************************************************


 
     Date and time (Linux)  : Sun Sep  8 20:39:51 2013
     Host name              : lpqlx131.ups-tlse.fr                    


 CPU time statistics for ABACUS
 ------------------------------




 >>>> Total CPU  time used in ABACUS:   0.00 seconds
 >>>> Total wall time used in ABACUS:   0.00 seconds


                   .-------------------------------------------.
                   | End of Static Property Section (ABACUS) - |
                   `-------------------------------------------'

 >>>> Total CPU  time used in DALTON:   3.24 seconds
 >>>> Total wall time used in DALTON:   3.27 seconds

 
     Date and time (Linux)  : Sun Sep  8 20:39:51 2013
     Host name              : lpqlx131.ups-tlse.fr                    
