

     ************************************************************************
     *************** Dalton - An Electronic Structure Program ***************
     ************************************************************************

    This is output from DALTON (Release Dalton2013 patch 0)
   ----------------------------------------------------------------------------
    NOTE:
     
    Dalton is an experimental code for the evaluation of molecular
    properties using (MC)SCF, DFT, CI, and CC wave functions.
    The authors accept no responsibility for the performance of
    the code or for the correctness of the results.
     
    The code (in whole or part) is provided under a licence and
    is not to be reproduced for further distribution without
    the written permission of the authors or their representatives.
     
    See the home page "http://daltonprogram.org" for further information.
     
    If results obtained with this code are published,
    the appropriate citations would be both of:
     
       K. Aidas, C. Angeli, K. L. Bak, V. Bakken, R. Bast,
       L. Boman, O. Christiansen, R. Cimiraglia, S. Coriani,
       P. Dahle, E. K. Dalskov, U. Ekstroem, T. Enevoldsen,
       J. J. Eriksen, P. Ettenhuber, B. Fernandez, L. Ferrighi,
       H. Fliegl, L. Frediani, K. Hald, A. Halkier, C. Haettig,
       H. Heiberg, T. Helgaker, A. C. Hennum, H. Hettema,
       E. Hjertenaes, S. Hoest, I.-M. Hoeyvik, M. F. Iozzi,
       B. Jansik, H. J. Aa. Jensen, D. Jonsson, P. Joergensen,
       J. Kauczor, S. Kirpekar, T. Kjaergaard, W. Klopper,
       S. Knecht, R. Kobayashi, H. Koch, J. Kongsted, A. Krapp,
       K. Kristensen, A. Ligabue, O. B. Lutnaes, J. I. Melo,
       K. V. Mikkelsen, R. H. Myhre, C. Neiss, C. B. Nielsen,
       P. Norman, J. Olsen, J. M. H. Olsen, A. Osted,
       M. J. Packer, F. Pawlowski, T. B. Pedersen, P. F. Provasi,
       S. Reine, Z. Rinkevicius, T. A. Ruden, K. Ruud, V. Rybkin,
       P. Salek, C. C. M. Samson, A. Sanchez de Meras, T. Saue,
       S. P. A. Sauer, B. Schimmelpfennig, K. Sneskov,
       A. H. Steindal, K. O. Sylvester-Hvid, P. R. Taylor,
       A. M. Teale, E. I. Tellgren, D. P. Tew, A. J. Thorvaldsen,
       L. Thoegersen, O. Vahtras, M. A. Watson, D. J. D. Wilson,
       M. Ziolkowski and H. Aagren.
       The Dalton quantum chemistry program system.
       WIREs Comput. Mol. Sci. 2013. doi: 10.1002/wcms.1172
    
    and
    
       Dalton, a Molecular Electronic Structure Program,
       Release DALTON2013.0 (2013), see http://daltonprogram.org
   ----------------------------------------------------------------------------

    Authors in alphabetical order (major contribution(s) in parenthesis):

  Kestutis Aidas,           Vilnius University,           Lithuania   (QM/MM)
  Celestino Angeli,         University of Ferrara,        Italy       (NEVPT2)
  Keld L. Bak,              UNI-C,                        Denmark     (AOSOPPA, non-adiabatic coupling, magnetic properties)
  Vebjoern Bakken,          University of Oslo,           Norway      (DALTON; geometry optimizer, symmetry detection)
  Radovan Bast,             KTH Stockholm                 Sweden      (DALTON installation and execution frameworks)
  Linus Boman,              NTNU,                         Norway      (Cholesky decomposition and subsystems)
  Ove Christiansen,         Aarhus University,            Denmark     (CC module)
  Renzo Cimiraglia,         University of Ferrara,        Italy       (NEVPT2)
  Sonia Coriani,            University of Trieste,        Italy       (CC module, MCD in RESPONS)
  Paal Dahle,               University of Oslo,           Norway      (Parallelization)
  Erik K. Dalskov,          UNI-C,                        Denmark     (SOPPA)
  Thomas Enevoldsen,        Univ. of Southern Denmark,    Denmark     (SOPPA)
  Janus J. Eriksen,         Aarhus University,            Denmark     (PE-MP2/SOPPA, TDA)
  Berta Fernandez,          U. of Santiago de Compostela, Spain       (doublet spin, ESR in RESPONS)
  Lara Ferrighi,            Aarhus University,            Denmark     (PCM Cubic response)
  Heike Fliegl,             University of Oslo,           Norway      (CCSD(R12))
  Luca Frediani,            UiT The Arctic U. of Norway,  Norway      (PCM)
  Bin Gao,                  UiT The Arctic U. of Norway,  Norway      (Gen1Int library)
  Christof Haettig,         Ruhr-University Bochum,       Germany     (CC module)
  Kasper Hald,              Aarhus University,            Denmark     (CC module)
  Asger Halkier,            Aarhus University,            Denmark     (CC module)
  Hanne Heiberg,            University of Oslo,           Norway      (geometry analysis, selected one-electron integrals)
  Trygve Helgaker,          University of Oslo,           Norway      (DALTON; ABACUS, ERI, DFT modules, London, and much more)
  Alf Christian Hennum,     University of Oslo,           Norway      (Parity violation)
  Hinne Hettema,            University of Auckland,       New Zealand (quadratic response in RESPONS; SIRIUS supersymmetry)
  Eirik Hjertenaes,         NTNU,                         Norway      (Cholesky decomposition)
  Maria Francesca Iozzi,    University of Oslo,           Norway      (RPA)
  Brano Jansik              Technical Univ. of Ostrava    Czech Rep.  (DFT cubic response)
  Hans Joergen Aa. Jensen,  Univ. of Southern Denmark,    Denmark     (DALTON; SIRIUS, RESPONS, ABACUS modules, London, and much more)
  Dan Jonsson,              UiT The Arctic U. of Norway,  Norway      (cubic response in RESPONS module)
  Poul Joergensen,          Aarhus University,            Denmark     (RESPONS, ABACUS, and CC modules)
  Joanna Kauczor,           Linkoeping University,        Sweden      (Complex polarization propagator (CPP) module)
  Sheela Kirpekar,          Univ. of Southern Denmark,    Denmark     (Mass-velocity & Darwin integrals)
  Wim Klopper,              KIT Karlsruhe,                Germany     (R12 code in CC, SIRIUS, and ABACUS modules)
  Stefan Knecht,            ETH Zurich,                   Switzerland (Parallel CI and MCSCF)
  Rika Kobayashi,           Australian National Univ.,    Australia   (DIIS in CC, London in MCSCF)
  Henrik Koch,              NTNU,                         Norway      (CC module, Cholesky decomposition)
  Jacob Kongsted,           Univ. of Southern Denmark,    Denmark     (Polarizable embedding, QM/MM)
  Andrea Ligabue,           University of Modena,         Italy       (CTOCD, AOSOPPA)
  Ola B. Lutnaes,           University of Oslo,           Norway      (DFT Hessian)
  Juan I. Melo,             University of Buenos Aires,   Argentina   (LRESC, Relativistic Effects on NMR Shieldings)
  Kurt V. Mikkelsen,        University of Copenhagen,     Denmark     (MC-SCRF and QM/MM)
  Rolf H. Myhre,            NTNU,                         Norway      (Cholesky, subsystems and ECC2)
  Christian Neiss,          Univ. Erlangen-Nuernberg,     Germany     (CCSD(R12))
  Christian B. Nielsen,     University of Copenhagen,     Denmark     (QM/MM)
  Patrick Norman,           Linkoeping University,        Sweden      (Cubic response and complex response in RESPONS)
  Jeppe Olsen,              Aarhus University,            Denmark     (SIRIUS CI/density modules)
  Jogvan Magnus H. Olsen,   Univ. of Southern Denmark,    Denmark     (Polarizable embedding, PE library, QM/MM)
  Anders Osted,             Copenhagen University,        Denmark     (QM/MM)
  Martin J. Packer,         University of Sheffield,      UK          (SOPPA)
  Filip Pawlowski,          Kazimierz Wielki University   Poland      (CC3)
  Thomas B. Pedersen,       University of Oslo,           Norway      (Cholesky decomposition)
  Patricio F. Provasi,      University of Northeastern,   Argentina   (Analysis of coupling constants in localized orbitals)
  Zilvinas Rinkevicius,     KTH Stockholm,                Sweden      (open-shell DFT, ESR)
  Elias Rudberg,            KTH Stockholm,                Sweden      (DFT grid and basis info)
  Torgeir A. Ruden,         University of Oslo,           Norway      (Numerical derivatives in ABACUS)
  Kenneth Ruud,             UiT The Arctic U. of Norway,  Norway      (DALTON; ABACUS magnetic properties and  much more)
  Pawel Salek,              KTH Stockholm,                Sweden      (DALTON; DFT code)
  Claire C. M. Samson       University of Karlsruhe       Germany     (Boys localization, r12 integrals in ERI)
  Alfredo Sanchez de Meras, University of Valencia,       Spain       (CC module, Cholesky decomposition)
  Trond Saue,               Paul Sabatier University,     France      (direct Fock matrix construction)
  Stephan P. A. Sauer,      University of Copenhagen,     Denmark     (SOPPA(CCSD), SOPPA prop., AOSOPPA, vibrational g-factors)
  Bernd Schimmelpfennig,    Forschungszentrum Karlsruhe,  Germany     (AMFI module)
  Kristian Sneskov,         Aarhus University,            Denmark     (QM/MM, PE-CC)
  Arnfinn H. Steindal,      UiT The Arctic U. of Norway,  Norway      (parallel QM/MM)
  K. O. Sylvester-Hvid,     University of Copenhagen,     Denmark     (MC-SCRF)
  Peter R. Taylor,          VLSCI/Univ. of Melbourne,     Australia   (Symmetry handling ABACUS, integral transformation)
  Andrew M. Teale,          University of Nottingham,     England     (DFT-AC, DFT-D)
  David P. Tew,             University of Bristol,        England     (CCSD(R12))
  Olav Vahtras,             KTH Stockholm,                Sweden      (triplet response, spin-orbit, ESR, TDDFT, open-shell DFT)
  David J. Wilson,          La Trobe University,          Australia   (DFT Hessian and DFT magnetizabilities)
  Hans Agren,               KTH Stockholm,                Sweden      (SIRIUS module, RESPONS, MC-SCRF solvation model)
 --------------------------------------------------------------------------------

     Date and time (Linux)  : Sun Sep  8 20:39:44 2013
     Host name              : lpqlx131.ups-tlse.fr                    

 * Work memory size             :    64000000 =  488.28 megabytes.

 * Directories for basis set searches:
   1) /home/bast/DALTON-2013.0-Source/build/test_walk_modeflw
   2) /home/bast/DALTON-2013.0-Source/build/basis


Compilation information
-----------------------

 Who compiled             | bast
 Host                     | lpqlx131.ups-tlse.fr
 System                   | Linux-3.8.5-201.fc18.x86_64
 CMake generator          | Unix Makefiles
 Processor                | x86_64
 64-bit integers          | OFF
 MPI                      | OFF
 Fortran compiler         | /usr/bin/gfortran
 Fortran compiler version | GNU Fortran (GCC) 4.7.2 20121109 (Red Hat 4.7.2-8)
 C compiler               | /usr/bin/gcc
 C compiler version       | gcc (GCC) 4.7.2 20121109 (Red Hat 4.7.2-8)
 C++ compiler             | /usr/bin/g++
 C++ compiler version     | g++ (GCC) 4.7.2 20121109 (Red Hat 4.7.2-8)
 Static linking           | OFF
 Last Git revision        | f34203295a86316e27f9e7b44f9b6769c4a046c0
 Configuration time       | 2013-09-08 20:31:27.952056


   Content of the .dal input file
 ----------------------------------

**DALTON INPUT                                    
.WALK                                             
*WALK                                             
.INDEX                                            
  1                                               
.MODFOL                                           
.MODE                                             
 -1                                               
**WAVE FUNCTION                                   
.HF                                               
**PROPERTIES                                      
.VIBANA                                           
.POPANA                                           
**END OF DALTON INPUT                             


   Content of the .mol file
 ----------------------------

ATOMBASIS                                                                      
Location of saddle point (transition state) by following                       
a specific eigenmode                                                           
Nosymmetry Atomtypes=2 Cartesian                                               
Charge=7.0 Atoms=1      Basis=6-31G**                                          
N          -.2402098951            -.0000003109             .5147128871        
Atoms=3 Charge=1.0      Basis=6-31G**                                          
H          1.4837091636             .0000000802            -.2633317998        
H         -1.1558499044            1.5260201343            -.1256905028        
H         -1.1558492311           -1.5260211423            -.1256905447        


       *******************************************************************
       *********** Output from DALTON general input processing ***********
       *******************************************************************

 --------------------------------------------------------------------------------
   Overall default print level:    0
   Print level for DALTON.STAT:    1

    Geometry optimization
      Starting at iteration:    0
      Maximum number of iterations:   20
    "Old" integral transformation used (limited to max 255 basis functions)
 --------------------------------------------------------------------------------


                  .----------------------------------------------.
                  | Commencing geometry optimization using .WALK |
                  `----------------------------------------------'



     @@>>>>>>>>>> Geometry walk iteration number:    0 <<<<<<<<<<




   ****************************************************************************
   *************** Output of molecule and basis set information ***************
   ****************************************************************************


    The two title cards from your ".mol" input:
    ------------------------------------------------------------------------
 1: Location of saddle point (transition state) by following                
 2: a specific eigenmode                                                    
    ------------------------------------------------------------------------

  Atomic type no.    1
  --------------------
  Nuclear charge:   7.00000
  Number of symmetry independent centers:    1
  Number of basis sets to read;    2
  The basis set is "6-31G**" from the basis set library.
  Basis set file used for this atomic type with Z =   7 :
     "/home/bast/DALTON-2013.0-Source/build/basis/6-31G**"

  Info about the basis set file: your basis has no documentation.
  Basis set: 6-31G**                                                                         

  Atomic type no.    2
  --------------------
  Nuclear charge:   1.00000
  Number of symmetry independent centers:    3
  Number of basis sets to read;    2
  The basis set is "6-31G**" from the basis set library.
  Basis set file used for this atomic type with Z =   1 :
     "/home/bast/DALTON-2013.0-Source/build/basis/6-31G**"

  Info about the basis set file: your basis has no documentation.
  Basis set: 6-31G**                                                                         


                         SYMGRP: Point group information
                         -------------------------------

Point group: C1 


                                 Isotopic Masses
                                 ---------------

                           N          14.003074
                           H           1.007825
                           H           1.007825
                           H           1.007825

                       Total mass:    17.026549 amu
                       Natural abundance:  99.585 %

 Center-of-mass coordinates (a.u.):   -0.246565   -0.000000    0.392847


  Atoms and basis sets
  --------------------

  Number of atom types :    2
  Total number of atoms:    4

  label    atoms   charge   prim   cont     basis
  ----------------------------------------------------------------------
  N           1    7.0000    28    15      [10s4p1d|3s2p1d]                                   
  H           3    1.0000     7     5      [4s1p|2s1p]                                        
  ----------------------------------------------------------------------
  total:      4   10.0000    49    30
  ----------------------------------------------------------------------
  Cartesian basis used.
  (Note that d, f, ... atomic GTOs are not all normalized.)

  Threshold for neglecting AO integrals:  1.00D-12


  Cartesian Coordinates (a.u.)
  ----------------------------

  Total number of coordinates:   12
  N       :     1  x  -0.2402098951    2  y  -0.0000003109    3  z   0.5147128871
  H       :     4  x   1.4837091636    5  y   0.0000000802    6  z  -0.2633317998
  H       :     7  x  -1.1558499044    8  y   1.5260201343    9  z  -0.1256905028
  H       :    10  x  -1.1558492311   11  y  -1.5260211423   12  z  -0.1256905447


   Interatomic separations (in Angstrom):
   --------------------------------------

            N           H           H           H     
            ------      ------      ------      ------
 N     :    0.000000
 H     :    1.000866    0.000000
 H     :    1.000866    1.615071    0.000000
 H     :    1.000866    1.615071    1.615071    0.000000


  Max    interatomic separation is    1.6151 Angstrom (    3.0520 Bohr)
  between atoms    4 and    3, "H     " and "H     ".

  Min HX interatomic separation is    1.0009 Angstrom (    1.8914 Bohr)


  Bond distances (Angstrom):
  --------------------------

                  atom 1     atom 2       distance
                  ------     ------       --------
  bond distance:  H          N            1.000866
  bond distance:  H          N            1.000866
  bond distance:  H          N            1.000866


  Bond angles (degrees):
  ----------------------

                  atom 1     atom 2     atom 3         angle
                  ------     ------     ------         -----
  bond angle:     H          N          H            107.576
  bond angle:     H          N          H            107.576
  bond angle:     H          N          H            107.576




 Principal moments of inertia (u*A**2) and principal axes
 --------------------------------------------------------

   IA       1.643278          0.000011    1.000000   -0.000001
   IB       1.643278          0.998643   -0.000011   -0.052075
   IC       2.628864          0.052075   -0.000000    0.998643


 Rotational constants
 --------------------

               A                   B                   C

         307543.2717         307543.2172         192242.3410 MHz
           10.258539           10.258537            6.412514 cm-1


@  Nuclear repulsion energy :   12.086057093049 Hartree


                     .---------------------------------------.
                     | Starting in Integral Section (HERMIT) |
                     `---------------------------------------'



    *************************************************************************
    ****************** Output from HERMIT input processing ******************
    *************************************************************************



     ************************************************************************
     ************************** Output from HERINT **************************
     ************************************************************************


 Threshold for neglecting two-electron integrals:  1.00D-12
 Number of two-electron integrals written:      101749 ( 93.9% )
 Megabytes written:                              1.168

 >>>> Total CPU  time used in HERMIT:   0.05 seconds
 >>>> Total wall time used in HERMIT:   0.05 seconds


                        .----------------------------------.
                        | End of Integral Section (HERMIT) |
                        `----------------------------------'



                   .--------------------------------------------.
                   | Starting in Wave Function Section (SIRIUS) |
                   `--------------------------------------------'


 *** Output from Huckel module :

     Using EWMO model:          T
     Using EHT  model:          F
     Number of Huckel orbitals each symmetry:    8

 EWMO - Energy Weighted Maximum Overlap - is a Huckel type method,
        which normally is better than Extended Huckel Theory.
 Reference: Linderberg and Ohrn, Propagators in Quantum Chemistry (Wiley, 1973)

 Huckel EWMO eigenvalues for symmetry :  1
          -15.674326      -1.546765      -0.712695      -0.712695      -0.538925
           -0.181334      -0.144730      -0.144730

 **********************************************************************
 *SIRIUS* a direct, restricted step, second order MCSCF program       *
 **********************************************************************

 
     Date and time (Linux)  : Sun Sep  8 20:39:44 2013
     Host name              : lpqlx131.ups-tlse.fr                    

 Title lines from ".mol" input file:
     Location of saddle point (transition state) by following                
     a specific eigenmode                                                    

 Print level on unit LUPRI =   2 is   0
 Print level on unit LUW4  =   2 is   5

@    Restricted, closed shell Hartree-Fock calculation.

 Initial molecular orbitals are obtained according to
 ".MOSTART EWMO  " input option

     Wave function specification
     ============================
@    For the wave function of type :      >>> HF <<<
@    Number of closed shell electrons          10
@    Number of electrons in active shells       0
@    Total charge of the molecule               0

@    Spin multiplicity and 2 M_S                1         0
     Total number of symmetries                 1
@    Reference state symmetry                   1

     Orbital specifications
     ======================
     Abelian symmetry species          All |    1
                                       --- |  ---
@    Occupied SCF orbitals               5 |    5
     Secondary orbitals                 25 |   25
     Total number of orbitals           30 |   30
     Number of basis functions          30 |   30

     Optimization information
     ========================
@    Number of configurations                 1
@    Number of orbital rotations            125
     ------------------------------------------
@    Total number of variables              126

     Maximum number of Fock   iterations      0
     Maximum number of DIIS   iterations     60
     Maximum number of QC-SCF iterations     60
     Threshold for SCF convergence     1.00D-05


 >>>>> DIIS optimization of Hartree-Fock <<<<<

 C1-DIIS algorithm; max error vectors =   10

 Iter      Total energy        Error norm    Delta(E)  DIIS dim.
 -----------------------------------------------------------------------------
     (Precalculated two-electron integrals are transformed to P-supermatrix elements.
      Threshold for discarding integrals :  1.00D-12 )
@  1    -56.0027393775        1.62054D+00   -5.60D+01    1
      Virial theorem: -V/T =      2.013363
@      MULPOP N      -0.36; H       0.12; H       0.12; H       0.12; 
 -----------------------------------------------------------------------------
@  2    -56.1832738586        4.34361D-01   -1.81D-01    2
      Virial theorem: -V/T =      1.995632
@      MULPOP N      -0.78; H       0.26; H       0.26; H       0.26; 
 -----------------------------------------------------------------------------
@  3    -56.1938513449        1.66425D-01   -1.06D-02    3
      Virial theorem: -V/T =      2.005204
@      MULPOP N      -0.73; H       0.24; H       0.24; H       0.24; 
 -----------------------------------------------------------------------------
@  4    -56.1954451446        3.05174D-02   -1.59D-03    4
      Virial theorem: -V/T =      2.001325
@      MULPOP N      -0.79; H       0.26; H       0.26; H       0.26; 
 -----------------------------------------------------------------------------
@  5    -56.1955412932        6.12742D-03   -9.61D-05    5
      Virial theorem: -V/T =      2.001640
@      MULPOP N      -0.79; H       0.26; H       0.26; H       0.26; 
 -----------------------------------------------------------------------------
@  6    -56.1955446139        9.30304D-04   -3.32D-06    6
      Virial theorem: -V/T =      2.001559
@      MULPOP N      -0.79; H       0.26; H       0.26; H       0.26; 
 -----------------------------------------------------------------------------
@  7    -56.1955447451        1.78989D-04   -1.31D-07    7
      Virial theorem: -V/T =      2.001570
@      MULPOP N      -0.79; H       0.26; H       0.26; H       0.26; 
 -----------------------------------------------------------------------------
@  8    -56.1955447523        3.33246D-05   -7.23D-09    8
      Virial theorem: -V/T =      2.001569
@      MULPOP N      -0.79; H       0.26; H       0.26; H       0.26; 
 -----------------------------------------------------------------------------
@  9    -56.1955447526        7.01594D-06   -3.17D-10    9

@ *** DIIS converged in   9 iterations !
@     Converged SCF energy, gradient:    -56.195544752636    7.02D-06
    - total time used in SIRFCK :              0.00 seconds


 *** SCF orbital energy analysis ***

 Only the five lowest virtual orbital energies printed in each symmetry.

 Number of electrons :   10
 Orbital occupations :    5

 Sym       Hartree-Fock orbital energies

  1    -15.53381397    -1.13951692    -0.62588859    -0.62588855    -0.41833689
         0.22430369     0.32584154     0.32584156     0.89450504     0.89450507

    E(LUMO) :     0.22430369 au (symmetry 1)
  - E(HOMO) :    -0.41833689 au (symmetry 1)
  ------------------------------------------
    gap     :     0.64264059 au

 >>> Writing SIRIFC interface file <<<

 >>>> CPU and wall time for SCF :       0.019       0.019


                       .-----------------------------------.
                       | >>> Final results from SIRIUS <<< |
                       `-----------------------------------'


@    Spin multiplicity:           1
@    Spatial symmetry:            1
@    Total charge of molecule:    0

@    Final HF energy:             -56.195544752636                 
@    Nuclear repulsion:            12.086057093049
@    Electronic energy:           -68.281601845685

@    Final gradient norm:           0.000007015939

 
     Date and time (Linux)  : Sun Sep  8 20:39:44 2013
     Host name              : lpqlx131.ups-tlse.fr                    


 INFO: Sorry, plot of MOs with Molden is only implemented for spherical GTOs

 (Only coefficients >0.0100 are printed.)

 Molecular orbitals for symmetry species  1
 ------------------------------------------

    Orbital         1        2        3        4        5        6        7
   1 N   :s      0.9950  -0.1994   0.0000  -0.0000   0.0621   0.1260  -0.0000
   2 N   :s      0.0248   0.4084  -0.0000   0.0000  -0.1430  -0.0989   0.0000
   3 N   :s     -0.0015   0.4155  -0.0000   0.0000  -0.2774  -2.0197   0.0000
   4 N   :px    -0.0001  -0.0041   0.4660  -0.0002  -0.0289   0.0073   0.0001
   5 N   :py     0.0000   0.0000   0.0002   0.4666   0.0000  -0.0000  -0.3313
   6 N   :pz    -0.0017  -0.0787  -0.0243   0.0000  -0.5543   0.1393  -0.0000
   7 N   :px     0.0000  -0.0020   0.2554  -0.0001  -0.0250   0.0252   0.0003
   8 N   :py    -0.0000   0.0000   0.0001   0.2558   0.0000  -0.0000  -1.1488
   9 N   :pz     0.0008  -0.0384  -0.0133   0.0000  -0.4796   0.4842  -0.0000
  10 N   :dxx   -0.0018  -0.0006   0.0079  -0.0000  -0.0035   0.0232   0.0000
  11 N   :dxy    0.0000   0.0000  -0.0000  -0.0206  -0.0000  -0.0000   0.0077
  12 N   :dxz   -0.0000  -0.0002  -0.0318   0.0000   0.0020   0.0000  -0.0000
  13 N   :dyy   -0.0018  -0.0006  -0.0095   0.0000  -0.0036   0.0232  -0.0000
  14 N   :dyz    0.0000   0.0000  -0.0000  -0.0299  -0.0000   0.0000   0.0224
  15 N   :dzz   -0.0018  -0.0028   0.0016  -0.0000   0.0154   0.0237   0.0000
  16 H   :s      0.0000   0.1457   0.2824  -0.0001   0.0642   0.0257  -0.0000
  17 H   :s      0.0005   0.0176   0.1826  -0.0001   0.0501   0.9886  -0.0005
  18 H   :px     0.0003  -0.0187  -0.0127   0.0000  -0.0079  -0.0004   0.0000
  19 H   :py     0.0000  -0.0000   0.0000   0.0116  -0.0000  -0.0000  -0.0036
  20 H   :pz    -0.0001   0.0065   0.0093  -0.0000  -0.0136  -0.0008  -0.0000
  21 H   :s      0.0000   0.1457  -0.1411   0.2447   0.0642   0.0257   0.0394
  22 H   :s      0.0005   0.0176  -0.0912   0.1582   0.0501   0.9886   1.5781
  23 H   :px    -0.0002   0.0098   0.0052   0.0111   0.0029   0.0001   0.0047
  24 H   :py     0.0003  -0.0165   0.0107  -0.0069  -0.0062  -0.0003  -0.0117
  25 H   :pz    -0.0001   0.0050  -0.0046   0.0069  -0.0142  -0.0008   0.0013
  26 H   :s      0.0000   0.1457  -0.1414  -0.2445   0.0642   0.0257  -0.0394
  27 H   :s      0.0005   0.0176  -0.0914  -0.1581   0.0501   0.9886  -1.5776
  28 H   :px    -0.0002   0.0098   0.0052  -0.0111   0.0029   0.0001  -0.0047
  29 H   :py    -0.0003   0.0165  -0.0107  -0.0069   0.0062   0.0003  -0.0117
  30 H   :pz    -0.0001   0.0050  -0.0046  -0.0069  -0.0142  -0.0008  -0.0013



 >>>> Total CPU  time used in SIRIUS :      0.02 seconds
 >>>> Total wall time used in SIRIUS :      0.03 seconds

 
     Date and time (Linux)  : Sun Sep  8 20:39:44 2013
     Host name              : lpqlx131.ups-tlse.fr                    

 NOTE:    1 informational messages have been issued.
 Check output, result, and error files for "INFO".


                     .---------------------------------------.
                     | End of Wave Function Section (SIRIUS) |
                     `---------------------------------------'



 Changes of defaults for WALK:
 -----------------------------


 Walk type: Level-shifted Newton walk (mode following)

 Index of critical point searched: 1

 Tolerance for stationary point :
 Molecular gradient norm less than  0.00010000

 Hessian mode selection :        -1

 Restricted step control parameters
 ----------------------------------
 Initial trust radius   :    0.3000
 Trust radius increment :    1.2000
 Trust radius decrement :    0.7000
 Bad prediction ratio   :    0.4000
 Good prediction ratio  :    0.8000
 Rejection ratio, low   :    0.1000
 Rejection ratio, high  :    1.9000

 No scaling in this run.




 Center of mass dipole origin  :   -0.246565   -0.000000    0.392847

 Center of mass gauge origin   :   -0.246565   -0.000000    0.392847


 Changes of defaults for WALK:
 -----------------------------


 Walk type: Level-shifted Newton walk (mode following)

 Index of critical point searched: 1

 Tolerance for stationary point :
 Molecular gradient norm less than  0.00010000

 Hessian mode selection :        -1

 Restricted step control parameters
 ----------------------------------
 Initial trust radius   :    0.3000
 Trust radius increment :    1.2000
 Trust radius decrement :    0.7000
 Bad prediction ratio   :    0.4000
 Good prediction ratio  :    0.8000
 Rejection ratio, low   :    0.1000
 Rejection ratio, high  :    1.9000

 No scaling in this run.





                 .------------------------------------------------.
                 | Starting in Static Property Section (ABACUS) - |
                 `------------------------------------------------'


 
     Date and time (Linux)  : Sun Sep  8 20:39:44 2013
     Host name              : lpqlx131.ups-tlse.fr                    

 Largest deviation from tra-rot symmetry is in gradient element  4:  3.58E-12


   ***************************************************************************
   ************************ FINAL RESULTS from ABACUS ************************
   ***************************************************************************


 
     Date and time (Linux)  : Sun Sep  8 20:39:45 2013
     Host name              : lpqlx131.ups-tlse.fr                    


                             Molecular geometry (au)
                             -----------------------

 N         -0.2402098951           -0.0000003109            0.5147128871
 H          1.4837091636            0.0000000802           -0.2633317998
 H         -1.1558499044            1.5260201343           -0.1256905028
 H         -1.1558492311           -1.5260211423           -0.1256905447





                        Molecular wave function and energy
                        ----------------------------------

     Spin multiplicity  1     State number       1     Total charge       0

     Total energy        -56.1955447526 au (Hartrees)
                         -1529.15855915 eV
                           -147541.3800 kJ/mol


                             Relativistic corrections
                             ------------------------

     Darwin correction:                          0.1121110156 au
     Mass-velocity correction:                  -0.1405669909 au

     Total relativistic correction:             -0.0284559753 au (0.0506%)
     Non-relativistic + relativistic energy:   -56.2240007280 au




                             Molecular gradient (au)
                             -----------------------

 N          0.0000004156           -0.0000000001            0.0000054768
 H          0.0000003852            0.0000000000           -0.0000018191
 H         -0.0000004004            0.0000005370           -0.0000018289
 H         -0.0000004004           -0.0000005369           -0.0000018288





                              Molecular Hessian (au)
                              ----------------------

           N    x      N    y      N    z      H    x      H    y      H    z

 N    x    0.745342
 N    y   -0.000001    0.746696
 N    z   -0.025981   -0.000000    0.248463

 H    x   -0.406354   -0.000003    0.149327    0.443638
 H    y    0.000001   -0.073531    0.000000    0.000005    0.069261
 H    z    0.211033    0.000000   -0.100280   -0.173522   -0.000000    0.095035

 H    x   -0.169493    0.160423   -0.061673   -0.018639    0.037838   -0.018756
 H    y    0.157637   -0.336582    0.106625   -0.003396    0.002135    0.001435
 H    z   -0.092526    0.159992   -0.074092    0.012097   -0.018552    0.002622

 H    x   -0.169495   -0.160420   -0.061673   -0.018645   -0.037843   -0.018756
 H    y   -0.157637   -0.336583   -0.106625    0.003394    0.002135   -0.001435
 H    z   -0.092526   -0.159992   -0.074092    0.012098    0.018552    0.002622


           H    x      H    y      H    z      H    x      H    y      H    z

 H    x    0.174919
 H    y   -0.176252    0.362878
 H    z    0.072169   -0.124750    0.070142

 H    x    0.013213    0.022010    0.008260    0.174926
 H    y   -0.022009   -0.028431   -0.016690    0.176253    0.362878
 H    z    0.008259    0.016690    0.001327    0.072168    0.124750    0.070142





                                  Dipole moment
                                  -------------

                 au               Debye          C m (/(10**-30)
              0.723304           1.838457           6.132431


                             Dipole moment components
                             ------------------------

                 au               Debye          C m (/(10**-30)

      x     -0.03766597        -0.09573734        -0.31934538
      y      0.00000000         0.00000000         0.00000001
      z     -0.72232311        -1.83596209        -6.12411033


   Units:   1 a.u. =   2.54175 Debye 
            1 a.u. =   8.47835 (10**-30) C m (SI)




   Interatomic separations (in Angstrom):
   --------------------------------------

            N           H           H           H     
            ------      ------      ------      ------
 N     :    0.000000
 H     :    1.000866    0.000000
 H     :    1.000866    1.615071    0.000000
 H     :    1.000866    1.615071    1.615071    0.000000


  Max    interatomic separation is    1.6151 Angstrom (    3.0520 Bohr)
  between atoms    4 and    3, "H     " and "H     ".

  Min HX interatomic separation is    1.0009 Angstrom (    1.8914 Bohr)


  Bond distances (Angstrom):
  --------------------------

                  atom 1     atom 2       distance
                  ------     ------       --------
  bond distance:  H          N            1.000866
  bond distance:  H          N            1.000866
  bond distance:  H          N            1.000866


  Bond angles (degrees):
  ----------------------

                  atom 1     atom 2     atom 3         angle
                  ------     ------     ------         -----
  bond angle:     H          N          H            107.576
  bond angle:     H          N          H            107.576
  bond angle:     H          N          H            107.576



 Largest deviation from orthonormality of OMOs:0.321965E-13
 - found for element   17  17


   ***************************************************************************
   ************************* FINAL RESULTS FROM WALK *************************
   ***************************************************************************


 Walk type: mode-following                            

 Iteration number:  0

  Norm of molecular gradient:     0.0000064197

@ Energy at current point:   -56.1955447526

@ Hessian index: 0
  Initial index: 0
  Target index:  1

@ Eigenmode followed: 1



   sym        #int        #ext       gradient     index       cond. num.
   ---------------------------------------------------------------------
    1           6           6       6.419730D-06    0          9.60D+00



                      +-------------------------------------+
                      ! Analysis in diagonal representation !
                      +-------------------------------------+


@  iter   sym     mode      gradient     eigenvalue       step        energy 
@  ----------------------------------------------------------------------------
@    0     1       1<     0.00000443    0.12681956   -0.30000000<   0.00570555<
@    0     1       2     -0.00000001    0.16375932    0.00000000   -0.00000000 
@    0     1       3     -0.00000002    0.16377371    0.00000000   -0.00000000 
@    0     1       4      0.00000464<   0.67564205    0.00000000    0.00000000 
@    0     1       5      0.00000018    1.21716108    0.00000000    0.00000000 
@    0     1       6      0.00000001    1.21716365<   0.00000000    0.00000000 


                              +----------------------+
                              ! Hessian eigenvectors !
                              +----------------------+


   sym 1            1           2           3           4           5
  ----------------------------------------------------------------------

   N    x       0.035787    0.188027    0.246763    0.027399    0.773495
   N    y      -0.000034    0.247099   -0.188278   -0.000003   -0.023827
   N    z       0.686858   -0.009695   -0.012857    0.525542   -0.040334

   H    x      -0.362345    0.264175    0.346763    0.448767   -0.461782
   H    y       0.000069   -0.508621    0.387547    0.000007    0.001336
   H    z      -0.210688    0.035206    0.046247   -0.199060    0.225735

   H    x       0.163329   -0.591850   -0.018078   -0.238078   -0.161849
   H    y      -0.303804   -0.150553   -0.468786    0.397097    0.197210
   H    z      -0.238095    0.062031   -0.073679   -0.163242   -0.097760

   H    x       0.163229    0.139648   -0.575448   -0.238088   -0.149863
   H    y       0.303769    0.412074    0.269517   -0.397101   -0.174719
   H    z      -0.238075   -0.087542    0.040289   -0.163240   -0.087641


   sym 1            6
  ----------------------
   N    x       0.023794
   N    y       0.774545
   N    z      -0.001241

   H    x      -0.014206
   H    y      -0.043449
   H    z       0.006944

   H    x       0.190000
   H    y      -0.359827
   H    z       0.161629

   H    x      -0.199588
   H    y      -0.371269
   H    z      -0.167332



 Input trust radius:            0.300000
 Updated trust radius:          0.300000
 Level shift employed:          0.0000000000


 Predicted energy change    0.0057055501


                               +--------------------+
                               ! Change in geometry !
                               +--------------------+



                           Cartesian displacements (au)
                           ----------------------------

 N         -0.0107359504            0.0000101988           -0.2060574434
 H          0.1087036143           -0.0000208300            0.0632063703
 H         -0.0489988273            0.0911412065            0.0714286181
 H         -0.0489688366           -0.0911305753            0.0714224550





   Differential interatomic separations (in Angstrom):
   ---------------------------------------------------

            N           H           H           H     
            ------      ------      ------      ------
 N     :    0.000000
 H     :    0.011071    0.000000
 H     :    0.011070    0.096491    0.000000
 H     :    0.011067    0.096463    0.096454    0.000000


  Max differential change in interatomic separation is    0.096491 Angstrom
  between atoms    3 and    2, "H     " and "H     ".




                              +---------------------+
                              ! Geometry after step !
                              +---------------------+



                            Cartesian coordinates (au)
                            --------------------------

 N         -0.2509458455            0.0000098879            0.3086554437
 H          1.5924127779           -0.0000207498           -0.2001254295
 H         -1.2048487317            1.6171613408           -0.0542618847
 H         -1.2048180677           -1.6171517176           -0.0542680897





   Interatomic separations (in Angstrom):
   --------------------------------------

            N           H           H           H     
            ------      ------      ------      ------
 N     :    0.000000
 H     :    1.011937    0.000000
 H     :    1.011936    1.711561    0.000000
 H     :    1.011933    1.711533    1.711525    0.000000


  Max    interatomic separation is    1.7116 Angstrom (    3.2344 Bohr)
  between atoms    3 and    2, "H     " and "H     ".

  Min HX interatomic separation is    1.0119 Angstrom (    1.9123 Bohr)


  Bond distances (Angstrom):
  --------------------------

                  atom 1     atom 2       distance
                  ------     ------       --------
  bond distance:  H          N            1.011937
  bond distance:  H          N            1.011936
  bond distance:  H          N            1.011933


  Bond angles (degrees):
  ----------------------

                  atom 1     atom 2     atom 3         angle
                  ------     ------     ------         -----
  bond angle:     H          N          H            115.491
  bond angle:     H          N          H            115.488
  bond angle:     H          N          H            115.488




 CPU time statistics for ABACUS
 ------------------------------




 >>>> Total CPU  time used in ABACUS:   0.55 seconds
 >>>> Total wall time used in ABACUS:   0.56 seconds


                   .-------------------------------------------.
                   | End of Static Property Section (ABACUS) - |
                   `-------------------------------------------'


@  Geometry walk step no.   0:  Molecular energy =    -56.195545   Molecular gradient =  0.000006


     @@>>>>>>>>>> Geometry walk iteration number:    1 <<<<<<<<<<




 **************************************************************************************
 ****************** Output of molecule and basis set info suppressed ******************
 **************************************************************************************



                     .---------------------------------------.
                     | Starting in Integral Section (HERMIT) |
                     `---------------------------------------'



     ************************************************************************
     ************************** Output from HERINT **************************
     ************************************************************************


 Threshold for neglecting two-electron integrals:  1.00D-12
 Number of two-electron integrals written:      101794 ( 94.0% )
 Megabytes written:                              1.168

 >>>> Total CPU  time used in HERMIT:   0.05 seconds
 >>>> Total wall time used in HERMIT:   0.05 seconds


                        .----------------------------------.
                        | End of Integral Section (HERMIT) |
                        `----------------------------------'



                   .--------------------------------------------.
                   | Starting in Wave Function Section (SIRIUS) |
                   `--------------------------------------------'


 **********************************************************************
 *SIRIUS* a direct, restricted step, second order MCSCF program       *
 **********************************************************************

 (Wave function specification suppressed here, see output above for initial geometry.)


 >>>>> DIIS optimization of Hartree-Fock <<<<<

 C1-DIIS algorithm; max error vectors =   10

 Iter      Total energy        Error norm    Delta(E)  DIIS dim.
 -----------------------------------------------------------------------------
     (Precalculated two-electron integrals are transformed to P-supermatrix elements.
      Threshold for discarding integrals :  1.00D-12 )
@  1    -55.7783383448        3.38343D+00    4.17D-01    1
      Virial theorem: -V/T =      1.987598
@      MULPOP N      -0.83; H       0.28; H       0.28; H       0.28; 
 -----------------------------------------------------------------------------
@  2    -56.1819105505        3.82386D-01   -4.04D-01    2
      Virial theorem: -V/T =      2.001253
@      MULPOP N      -0.86; H       0.29; H       0.29; H       0.29; 
 -----------------------------------------------------------------------------
@  3    -56.1900459899        6.59544D-02   -8.14D-03    3
      Virial theorem: -V/T =      2.004185
@      MULPOP N      -0.82; H       0.27; H       0.27; H       0.27; 
 -----------------------------------------------------------------------------
@  4    -56.1905836798        3.10598D-02   -5.38D-04    4
      Virial theorem: -V/T =      2.003062
@      MULPOP N      -0.84; H       0.28; H       0.28; H       0.28; 
 -----------------------------------------------------------------------------
@  5    -56.1907513249        9.35453D-03   -1.68D-04    5
      Virial theorem: -V/T =      2.003628
@      MULPOP N      -0.84; H       0.28; H       0.28; H       0.28; 
 -----------------------------------------------------------------------------
@  6    -56.1907763917        1.93062D-03   -2.51D-05    6
      Virial theorem: -V/T =      2.003586
@      MULPOP N      -0.84; H       0.28; H       0.28; H       0.28; 
 -----------------------------------------------------------------------------
@  7    -56.1907773296        2.00640D-04   -9.38D-07    7
      Virial theorem: -V/T =      2.003603
@      MULPOP N      -0.84; H       0.28; H       0.28; H       0.28; 
 -----------------------------------------------------------------------------
@  8    -56.1907773348        2.04129D-05   -5.15D-09    8
      Virial theorem: -V/T =      2.003602
@      MULPOP N      -0.84; H       0.28; H       0.28; H       0.28; 
 -----------------------------------------------------------------------------
@  9    -56.1907773348        4.58505D-06   -5.42D-11    9

@ *** DIIS converged in   9 iterations !
@     Converged SCF energy, gradient:    -56.190777334828    4.59D-06
    - total time used in SIRFCK :              0.00 seconds


 *** SCF orbital energy analysis ***

 Only the five lowest virtual orbital energies printed in each symmetry.

 Number of electrons :   10
 Orbital occupations :    5

 Sym       Hartree-Fock orbital energies

  1    -15.52824834    -1.11593071    -0.62853620    -0.62852929    -0.39279509
         0.22506274     0.32595000     0.32595066     0.91953996     0.91955708

    E(LUMO) :     0.22506274 au (symmetry 1)
  - E(HOMO) :    -0.39279509 au (symmetry 1)
  ------------------------------------------
    gap     :     0.61785783 au

 >>> Writing SIRIFC interface file <<<


 Check ratio for geometry walk with converged SCF :



 >>> step control for geometry walk (ABACUS interface)


 (SIRSTP) Energy difference;
 actual, predicted and ratio:   0.0047674178   0.0057055501    0.835575


 *** GEOMETRY WALK STEP ACCEPTED.


 >>>> CPU and wall time for SCF :       0.020       0.020


                       .-----------------------------------.
                       | >>> Final results from SIRIUS <<< |
                       `-----------------------------------'


@    Spin multiplicity:           1
@    Spatial symmetry:            1
@    Total charge of molecule:    0

@    Final HF energy:             -56.190777334828                 
@    Nuclear repulsion:            11.909201008221
@    Electronic energy:           -68.099978343048

@    Final gradient norm:           0.000004585047

 
     Date and time (Linux)  : Sun Sep  8 20:39:45 2013
     Host name              : lpqlx131.ups-tlse.fr                    



 >>>> Total CPU  time used in SIRIUS :      0.02 seconds
 >>>> Total wall time used in SIRIUS :      0.02 seconds

 
     Date and time (Linux)  : Sun Sep  8 20:39:45 2013
     Host name              : lpqlx131.ups-tlse.fr                    

 NOTE:    1 informational messages have been issued.
 Check output, result, and error files for "INFO".


                     .---------------------------------------.
                     | End of Wave Function Section (SIRIUS) |
                     `---------------------------------------'


 Center of mass dipole origin  :   -0.254759    0.000007    0.235576

 Center of mass gauge origin   :   -0.254759    0.000007    0.235576


                 .------------------------------------------------.
                 | Starting in Static Property Section (ABACUS) - |
                 `------------------------------------------------'


 
     Date and time (Linux)  : Sun Sep  8 20:39:45 2013
     Host name              : lpqlx131.ups-tlse.fr                    

 Old LUGDR file opened in ORTREL.

 Largest deviation from tra-rot symmetry is in gradient element  1:  1.99E-09


   ***************************************************************************
   ************************ FINAL RESULTS from ABACUS ************************
   ***************************************************************************


 
     Date and time (Linux)  : Sun Sep  8 20:39:46 2013
     Host name              : lpqlx131.ups-tlse.fr                    


                             Molecular geometry (au)
                             -----------------------

 N         -0.2509458455            0.0000098879            0.3086554437
 H          1.5924127779           -0.0000207498           -0.2001254295
 H         -1.2048487317            1.6171613408           -0.0542618847
 H         -1.2048180677           -1.6171517176           -0.0542680897





                        Molecular wave function and energy
                        ----------------------------------

     Spin multiplicity  1     State number       1     Total charge       0

     Total energy        -56.1907773348 au (Hartrees)
                         -1529.02883111 eV
                           -147528.8631 kJ/mol


                             Relativistic corrections
                             ------------------------

     Darwin correction:                          0.1119366713 au
     Mass-velocity correction:                  -0.1403113510 au

     Total relativistic correction:             -0.0283746798 au (0.0505%)
     Non-relativistic + relativistic energy:   -56.2191520146 au




                             Molecular gradient (au)
                             -----------------------

 N         -0.0004595042            0.0000019321           -0.0088364480
 H          0.0204866927           -0.0000034747            0.0018854318
 H         -0.0100160340            0.0176292079            0.0034759444
 H         -0.0100111544           -0.0176276653            0.0034750718





                              Molecular Hessian (au)
                              ----------------------

           N    x      N    y      N    z      H    x      H    y      H    z

 N    x    0.789434
 N    y   -0.000007    0.791373
 N    z   -0.037309    0.000004    0.075830

 H    x   -0.430065   -0.000001    0.099330    0.452389
 H    y    0.000008   -0.086093   -0.000001    0.000002    0.075374
 H    z    0.140730   -0.000001   -0.036043   -0.113933    0.000001    0.043815

 H    x   -0.179685    0.159085   -0.031010   -0.011157    0.033458   -0.013399
 H    y    0.157209   -0.352635    0.059607   -0.006081    0.005360    0.000386
 H    z   -0.051710    0.095413   -0.019893    0.007301   -0.013643   -0.003886

 H    x   -0.179684   -0.159077   -0.031011   -0.011166   -0.033468   -0.013398
 H    y   -0.157210   -0.352645   -0.059610    0.006080    0.005359   -0.000387
 H    z   -0.051711   -0.095416   -0.019894    0.007303    0.013642   -0.003885


           H    x      H    y      H    z      H    x      H    y      H    z

 H    x    0.176728
 H    y   -0.171835    0.366201
 H    z    0.038546   -0.070882    0.028662

 H    x    0.014114    0.020708    0.005863    0.176736
 H    y   -0.020707   -0.018926   -0.010888    0.171837    0.366211
 H    z    0.005862    0.010888   -0.004882    0.038545    0.070885    0.028662





                                  Dipole moment
                                  -------------

                 au               Debye          C m (/(10**-30)
              0.467828           1.189100           3.966412


                             Dipole moment components
                             ------------------------

                 au               Debye          C m (/(10**-30)

      x     -0.02436791        -0.06193704        -0.20659972
      y     -0.00000648        -0.00001647        -0.00005494
      z     -0.46719310        -1.18748634        -3.96102805


   Units:   1 a.u. =   2.54175 Debye 
            1 a.u. =   8.47835 (10**-30) C m (SI)




   Interatomic separations (in Angstrom):
   --------------------------------------

            N           H           H           H     
            ------      ------      ------      ------
 N     :    0.000000
 H     :    1.011937    0.000000
 H     :    1.011936    1.711561    0.000000
 H     :    1.011933    1.711533    1.711525    0.000000


  Max    interatomic separation is    1.7116 Angstrom (    3.2344 Bohr)
  between atoms    3 and    2, "H     " and "H     ".

  Min HX interatomic separation is    1.0119 Angstrom (    1.9123 Bohr)


  Bond distances (Angstrom):
  --------------------------

                  atom 1     atom 2       distance
                  ------     ------       --------
  bond distance:  H          N            1.011937
  bond distance:  H          N            1.011936
  bond distance:  H          N            1.011933


  Bond angles (degrees):
  ----------------------

                  atom 1     atom 2     atom 3         angle
                  ------     ------     ------         -----
  bond angle:     H          N          H            115.491
  bond angle:     H          N          H            115.488
  bond angle:     H          N          H            115.488



 Overlap between normal coordinate  1 and the normal coordinate walk 
 direction of the previous iteration is equal to 0.95568

 Step length at zero derivative  0.1943

 Largest deviation from orthonormality of OMOs:0.894840E-13
 - found for element    1   1


   ***************************************************************************
   ************************* FINAL RESULTS FROM WALK *************************
   ***************************************************************************


 Walk type: mode-following                            

 Iteration number:  1

  Norm of molecular gradient:     0.0367121154

@ Energy at current point:   -56.1907773348
  Energy at initial point:   -56.1955447526

  Change in energy since start of walk: 0.0047674178 au
                                               12.52 kJ/mol
                                                2.99 kCal/mol

@ Ratio between actual and predicted energies:  0.84

@ Hessian index: 0
  Initial index: 0
  Target index:  1

@ Eigenmode followed: 1

@ Angle between gradient and walk mode: 53.54 deg 
@ Angle between old and new walk modes: 17.12 deg 
@ Angle between old and new steps:      28.42 deg 


   sym        #int        #ext       gradient     index       cond. num.
   ---------------------------------------------------------------------
    1           6           6       3.671212D-02    0          3.01D+01



                      +-------------------------------------+
                      ! Analysis in diagonal representation !
                      +-------------------------------------+


@  iter   sym     mode      gradient     eigenvalue       step        energy 
@  ----------------------------------------------------------------------------
@    1     1       1<    -0.02181609    0.04066764   -0.35302865<   0.01023589<
@    1     1       2      0.00000720    0.16569327   -0.00011393    0.00000000 
@    1     1       3     -0.00000117    0.16571501    0.00001855    0.00000000 
@    1     1       4      0.02952690<   0.52126414   -0.07050361   -0.00078621 
@    1     1       5      0.00000051    1.22361822   -0.00000045   -0.00000000 
@    1     1       6      0.00000033    1.22362760<  -0.00000030   -0.00000000 


                              +----------------------+
                              ! Hessian eigenvectors !
                              +----------------------+


   sym 1            1           2           3           4           5
  ----------------------------------------------------------------------

   N    x       0.042292    0.173063   -0.259712    0.015625    0.684363
   N    y      -0.000009    0.260081    0.173295   -0.000012    0.406047
   N    z       0.811135   -0.008991    0.013539    0.300046   -0.035679

   H    x      -0.214139    0.241272   -0.362081    0.535545   -0.404025
   H    y       0.000016   -0.533954   -0.355791    0.000011   -0.027852
   H    z      -0.259952    0.012938   -0.019432   -0.128217    0.122026

   H    x       0.085935   -0.592257    0.054289   -0.275579   -0.044508
   H    y      -0.173460   -0.121161    0.478591    0.468948   -0.031979
   H    z      -0.275597    0.051290    0.038438   -0.085917    0.003646

   H    x       0.085913    0.177922    0.567504   -0.275591   -0.235830
   H    y       0.173453    0.395035   -0.296096   -0.468947   -0.346216
   H    z      -0.275586   -0.055237   -0.032545   -0.085912   -0.089993


   sym 1            6
  ----------------------
   N    x      -0.405502
   N    y       0.685290
   N    z       0.021146

   H    x       0.239395
   H    y      -0.047019
   H    z      -0.072304

   H    x       0.244503
   H    y      -0.412223
   H    z       0.104594

   H    x      -0.078396
   H    y      -0.226049
   H    z      -0.053437



 Old trust radius:              0.300000
 Updated trust radius:          0.360000
 Finite-difference estimate of harmonic radius    0.424841
 Level shift employed:         -0.1024645479


 Predicted energy change    0.0094496792


                               +--------------------+
                               ! Change in geometry !
                               +--------------------+



                           Cartesian displacements (au)
                           ----------------------------

 N         -0.0160564845           -0.0000227460           -0.3075068578
 H          0.0378052433            0.0000477445            0.1008082346
 H         -0.0108397387            0.0281966739            0.1033459396
 H         -0.0109090201           -0.0282216723            0.1033526836





   Differential interatomic separations (in Angstrom):
   ---------------------------------------------------

            N           H           H           H     
            ------      ------      ------      ------
 N     :    0.000000
 H     :   -0.006565    0.000000
 H     :   -0.006562    0.029771    0.000000
 H     :   -0.006553    0.029835    0.029855    0.000000


  Max differential change in interatomic separation is    0.029855 Angstrom
  between atoms    4 and    3, "H     " and "H     ".




                              +---------------------+
                              ! Geometry after step !
                              +---------------------+



                            Cartesian coordinates (au)
                            --------------------------

 N         -0.2670023299           -0.0000128581            0.0011485859
 H          1.6302180211            0.0000269947           -0.0993171949
 H         -1.2156884704            1.6453580146            0.0490840549
 H         -1.2157270878           -1.6453733899            0.0490845939





   Interatomic separations (in Angstrom):
   --------------------------------------

            N           H           H           H     
            ------      ------      ------      ------
 N     :    0.000000
 H     :    1.005372    0.000000
 H     :    1.005374    1.741332    0.000000
 H     :    1.005379    1.741368    1.741380    0.000000


  Max    interatomic separation is    1.7414 Angstrom (    3.2907 Bohr)
  between atoms    4 and    3, "H     " and "H     ".

  Min HX interatomic separation is    1.0054 Angstrom (    1.8999 Bohr)


  Bond distances (Angstrom):
  --------------------------

                  atom 1     atom 2       distance
                  ------     ------       --------
  bond distance:  H          N            1.005372
  bond distance:  H          N            1.005374
  bond distance:  H          N            1.005379


  Bond angles (degrees):
  ----------------------

                  atom 1     atom 2     atom 3         angle
                  ------     ------     ------         -----
  bond angle:     H          N          H            119.997
  bond angle:     H          N          H            120.001
  bond angle:     H          N          H            120.002




 CPU time statistics for ABACUS
 ------------------------------

 REST       00:00:02     297 %



 >>>> Total CPU  time used in ABACUS:   0.56 seconds
 >>>> Total wall time used in ABACUS:   0.57 seconds


                   .-------------------------------------------.
                   | End of Static Property Section (ABACUS) - |
                   `-------------------------------------------'


@  Geometry walk step no.   1:  Molecular energy =    -56.190777   Molecular gradient =  0.036712


     @@>>>>>>>>>> Geometry walk iteration number:    2 <<<<<<<<<<




 **************************************************************************************
 ****************** Output of molecule and basis set info suppressed ******************
 **************************************************************************************



                     .---------------------------------------.
                     | Starting in Integral Section (HERMIT) |
                     `---------------------------------------'



     ************************************************************************
     ************************** Output from HERINT **************************
     ************************************************************************


 Threshold for neglecting two-electron integrals:  1.00D-12
 Number of two-electron integrals written:      101782 ( 93.9% )
 Megabytes written:                              1.168

 >>>> Total CPU  time used in HERMIT:   0.05 seconds
 >>>> Total wall time used in HERMIT:   0.05 seconds


                        .----------------------------------.
                        | End of Integral Section (HERMIT) |
                        `----------------------------------'



                   .--------------------------------------------.
                   | Starting in Wave Function Section (SIRIUS) |
                   `--------------------------------------------'


 **********************************************************************
 *SIRIUS* a direct, restricted step, second order MCSCF program       *
 **********************************************************************

 (Wave function specification suppressed here, see output above for initial geometry.)


 >>>>> DIIS optimization of Hartree-Fock <<<<<

 C1-DIIS algorithm; max error vectors =   10

 Iter      Total energy        Error norm    Delta(E)  DIIS dim.
 -----------------------------------------------------------------------------
     (Precalculated two-electron integrals are transformed to P-supermatrix elements.
      Threshold for discarding integrals :  1.00D-12 )
@  1    -55.3423013692        4.69921D+00    8.48D-01    1
      Virial theorem: -V/T =      1.974616
@      MULPOP N      -0.90; H       0.30; H       0.30; H       0.30; 
 -----------------------------------------------------------------------------
@  2    -56.1648282323        5.70245D-01   -8.23D-01    2
      Virial theorem: -V/T =      1.999252
@      MULPOP N      -0.94; H       0.31; H       0.31; H       0.31; 
 -----------------------------------------------------------------------------
@  3    -56.1834378529        1.36309D-01   -1.86D-02    3
      Virial theorem: -V/T =      2.005908
@      MULPOP N      -0.85; H       0.28; H       0.28; H       0.28; 
 -----------------------------------------------------------------------------
@  4    -56.1850911826        5.24898D-02   -1.65D-03    4
      Virial theorem: -V/T =      2.003130
@      MULPOP N      -0.88; H       0.29; H       0.29; H       0.29; 
 -----------------------------------------------------------------------------
@  5    -56.1856681153        1.46914D-02   -5.77D-04    5
      Virial theorem: -V/T =      2.003729
@      MULPOP N      -0.87; H       0.29; H       0.29; H       0.29; 
 -----------------------------------------------------------------------------
@  6    -56.1857325766        2.88580D-03   -6.45D-05    6
      Virial theorem: -V/T =      2.003627
@      MULPOP N      -0.87; H       0.29; H       0.29; H       0.29; 
 -----------------------------------------------------------------------------
@  7    -56.1857348770        3.25445D-04   -2.30D-06    7
      Virial theorem: -V/T =      2.003629
@      MULPOP N      -0.87; H       0.29; H       0.29; H       0.29; 
 -----------------------------------------------------------------------------
@  8    -56.1857348921        3.52792D-05   -1.51D-08    8
      Virial theorem: -V/T =      2.003628
@      MULPOP N      -0.87; H       0.29; H       0.29; H       0.29; 
 -----------------------------------------------------------------------------
@  9    -56.1857348923        8.19154D-06   -1.75D-10    9

@ *** DIIS converged in   9 iterations !
@     Converged SCF energy, gradient:    -56.185734892256    8.19D-06
    - total time used in SIRFCK :              0.00 seconds


 *** SCF orbital energy analysis ***

 Only the five lowest virtual orbital energies printed in each symmetry.

 Number of electrons :   10
 Orbital occupations :    5

 Sym       Hartree-Fock orbital energies

  1    -15.52028606    -1.10866126    -0.63430941    -0.63430103    -0.37915145
         0.22773798     0.32895925     0.32896055     0.93306393     0.93308954

    E(LUMO) :     0.22773798 au (symmetry 1)
  - E(HOMO) :    -0.37915145 au (symmetry 1)
  ------------------------------------------
    gap     :     0.60688943 au

 >>> Writing SIRIFC interface file <<<


 Check ratio for geometry walk with converged SCF :



 >>> step control for geometry walk (ABACUS interface)


 (SIRSTP) Energy difference;
 actual, predicted and ratio:   0.0050424426   0.0094496792    0.533610


 *** GEOMETRY WALK STEP ACCEPTED.


 >>>> CPU and wall time for SCF :       0.019       0.020


                       .-----------------------------------.
                       | >>> Final results from SIRIUS <<< |
                       `-----------------------------------'


@    Spin multiplicity:           1
@    Spatial symmetry:            1
@    Total charge of molecule:    0

@    Final HF energy:             -56.185734892256                 
@    Nuclear repulsion:            11.964969652070
@    Electronic energy:           -68.150704544327

@    Final gradient norm:           0.000008191540

 
     Date and time (Linux)  : Sun Sep  8 20:39:46 2013
     Host name              : lpqlx131.ups-tlse.fr                    



 >>>> Total CPU  time used in SIRIUS :      0.02 seconds
 >>>> Total wall time used in SIRIUS :      0.02 seconds

 
     Date and time (Linux)  : Sun Sep  8 20:39:46 2013
     Host name              : lpqlx131.ups-tlse.fr                    

 NOTE:    1 informational messages have been issued.
 Check output, result, and error files for "INFO".


                     .---------------------------------------.
                     | End of Wave Function Section (SIRIUS) |
                     `---------------------------------------'


 Center of mass dipole origin  :   -0.267014   -0.000010    0.000877

 Center of mass gauge origin   :   -0.267014   -0.000010    0.000877


                 .------------------------------------------------.
                 | Starting in Static Property Section (ABACUS) - |
                 `------------------------------------------------'


 
     Date and time (Linux)  : Sun Sep  8 20:39:46 2013
     Host name              : lpqlx131.ups-tlse.fr                    

 Old LUGDR file opened in ORTREL.

 Largest deviation from tra-rot symmetry is in gradient element  3:  3.28E-09


   ***************************************************************************
   ************************ FINAL RESULTS from ABACUS ************************
   ***************************************************************************


 
     Date and time (Linux)  : Sun Sep  8 20:39:46 2013
     Host name              : lpqlx131.ups-tlse.fr                    


                             Molecular geometry (au)
                             -----------------------

 N         -0.2670023299           -0.0000128581            0.0011485859
 H          1.6302180211            0.0000269947           -0.0993171949
 H         -1.2156884704            1.6453580146            0.0490840549
 H         -1.2157270878           -1.6453733899            0.0490845939





                        Molecular wave function and energy
                        ----------------------------------

     Spin multiplicity  1     State number       1     Total charge       0

     Total energy        -56.1857348923 au (Hartrees)
                         -1528.89161927 eV
                           -147515.6242 kJ/mol


                             Relativistic corrections
                             ------------------------

     Darwin correction:                          0.1118224667 au
     Mass-velocity correction:                  -0.1401518540 au

     Total relativistic correction:             -0.0283293874 au (0.0504%)
     Non-relativistic + relativistic energy:   -56.2140642796 au




                             Molecular gradient (au)
                             -----------------------

 N         -0.0000054869           -0.0000009140           -0.0000810708
 H          0.0188477102            0.0000043259           -0.0009557015
 H         -0.0094176408            0.0163479245            0.0005182110
 H         -0.0094245824           -0.0163513363            0.0005185614





                              Molecular Hessian (au)
                              ----------------------

           N    x      N    y      N    z      H    x      H    y      H    z

 N    x    0.868084
 N    y    0.000004    0.870599
 N    z   -0.048016   -0.000000   -0.050227

 H    x   -0.489233   -0.000007    0.026756    0.503646
 H    y   -0.000009   -0.089749    0.000001    0.000006    0.074638
 H    z    0.026924    0.000000    0.016155   -0.026606   -0.000000    0.002171

 H    x   -0.189424    0.173376    0.010630   -0.007208    0.032949   -0.000159
 H    y    0.173371   -0.390434   -0.008756   -0.007426    0.007555    0.000386
 H    z    0.010546   -0.008610    0.017035   -0.000075   -0.001768   -0.009162

 H    x   -0.189428   -0.173373    0.010630   -0.007206   -0.032946   -0.000159
 H    y   -0.173367   -0.390416    0.008755    0.007426    0.007556   -0.000386
 H    z    0.010546    0.008610    0.017037   -0.000075    0.001768   -0.009164


           H    x      H    y      H    z      H    x      H    y      H    z

 H    x    0.181761
 H    y   -0.186134    0.397453
 H    z   -0.009247    0.009374    0.001236

 H    x    0.014871    0.020189   -0.001224    0.181762
 H    y   -0.020190   -0.014575    0.001004    0.186130    0.397436
 H    z   -0.001224   -0.001004   -0.009110   -0.009247   -0.009374    0.001238





                                  Dipole moment
                                  -------------

                 au               Debye          C m (/(10**-30)
              0.001846           0.004691           0.015649


                             Dipole moment components
                             ------------------------

                 au               Debye          C m (/(10**-30)

      x     -0.00008861        -0.00022523        -0.00075130
      y      0.00000771         0.00001959         0.00006535
      z     -0.00184362        -0.00468602        -0.01563089


   Units:   1 a.u. =   2.54175 Debye 
            1 a.u. =   8.47835 (10**-30) C m (SI)




   Interatomic separations (in Angstrom):
   --------------------------------------

            N           H           H           H     
            ------      ------      ------      ------
 N     :    0.000000
 H     :    1.005372    0.000000
 H     :    1.005374    1.741332    0.000000
 H     :    1.005379    1.741368    1.741380    0.000000


  Max    interatomic separation is    1.7414 Angstrom (    3.2907 Bohr)
  between atoms    4 and    3, "H     " and "H     ".

  Min HX interatomic separation is    1.0054 Angstrom (    1.8999 Bohr)


  Bond distances (Angstrom):
  --------------------------

                  atom 1     atom 2       distance
                  ------     ------       --------
  bond distance:  H          N            1.005372
  bond distance:  H          N            1.005374
  bond distance:  H          N            1.005379


  Bond angles (degrees):
  ----------------------

                  atom 1     atom 2     atom 3         angle
                  ------     ------     ------         -----
  bond angle:     H          N          H            119.997
  bond angle:     H          N          H            120.001
  bond angle:     H          N          H            120.002



 Overlap between normal coordinate  1 and the normal coordinate walk 
 direction of the previous iteration is equal to 0.93829

 Largest deviation from orthonormality of OMOs:0.112133E-12
 - found for element   18  18


   ***************************************************************************
   ************************* FINAL RESULTS FROM WALK *************************
   ***************************************************************************


 Walk type: mode-following                            

 Iteration number:  2

  Norm of molecular gradient:     0.0326929528

@ Energy at current point:   -56.1857348923
  Energy at initial point:   -56.1955447526

  Change in energy since start of walk: 0.0098098604 au
                                               25.76 kJ/mol
                                                6.16 kCal/mol

@ Ratio between actual and predicted energies:  0.53

@ Hessian index: 1
  Initial index: 0
  Target index:  1

@ Eigenmode followed: 1

@ Angle between gradient and walk mode: 89.77 deg 
@ Angle between old and new walk modes: 20.23 deg 
@ Angle between old and new steps:      82.70 deg 


   sym        #int        #ext       gradient     index       cond. num.
   ---------------------------------------------------------------------
    1           6           6       3.269295D-02    1          1.88D+01



                      +-------------------------------------+
                      ! Analysis in diagonal representation !
                      +-------------------------------------+


@  iter   sym     mode      gradient     eigenvalue       step        energy 
@  ----------------------------------------------------------------------------
@    2     1       1<    -0.00013151   -0.07030891   -0.00187053    0.00000012 
@    2     1       2     -0.00000420    0.16351751    0.00002569   -0.00000000 
@    2     1       3      0.00000805    0.16352021   -0.00004921   -0.00000000 
@    2     1       4     -0.03269269<   0.49936568    0.06546843<  -0.00107017<
@    2     1       5      0.00000030    1.32194706   -0.00000023   -0.00000000 
@    2     1       6      0.00000109    1.32195246<  -0.00000082   -0.00000000 

  This is Newton step.


                              +----------------------+
                              ! Hessian eigenvectors !
                              +----------------------+


   sym 1            1           2           3           4           5
  ----------------------------------------------------------------------

   N    x       0.045098    0.310112   -0.088818   -0.000063    0.786203
   N    y       0.000000   -0.088946   -0.310521   -0.000012   -0.160815
   N    z       0.864850   -0.016171    0.004633   -0.000997   -0.040997

   H    x      -0.015697    0.410920   -0.117706   -0.576538   -0.472756
   H    y      -0.000001    0.177157    0.618492   -0.000004    0.010499
   H    z      -0.288244   -0.021260    0.006090    0.030397    0.025076

   H    x      -0.014701   -0.232957    0.548633    0.288293   -0.193998
   H    y      -0.000577   -0.490087   -0.026248   -0.499998    0.257874
   H    z      -0.288299    0.012022   -0.028730   -0.014700    0.009829

   H    x      -0.014700   -0.488075   -0.342109    0.288307   -0.119449
   H    y       0.000577    0.401876   -0.281722    0.500015   -0.107558
   H    z      -0.288307    0.025409    0.018008   -0.014700    0.006092


   sym 1            6
  ----------------------
   N    x       0.160600
   N    y       0.787276
   N    z      -0.008374

   H    x      -0.096578
   H    y      -0.051440
   H    z       0.005123

   H    x       0.150473
   H    y      -0.330607
   H    z      -0.007523

   H    x      -0.214494
   H    y      -0.405229
   H    z       0.010774



 Old trust radius:              0.360000
 Updated trust radius:          0.252000
 Finite-difference estimate of harmonic radius    0.684231
 Level shift employed:          0.0000000000


 Predicted energy change   -0.0010700467


                               +--------------------+
                               ! Change in geometry !
                               +--------------------+



                           Cartesian displacements (au)
                           ----------------------------

 N         -0.0000764368            0.0000115797           -0.0016836061
 H         -0.0376991207           -0.0000261365            0.0025283572
 H          0.0188685263           -0.0327441013           -0.0004213895
 H          0.0189070311            0.0327586581           -0.0004233616





   Differential interatomic separations (in Angstrom):
   ---------------------------------------------------

[...]
  bond angle:     H          N          H            120.000
  bond angle:     H          N          H            120.000
  bond angle:     H          N          H            120.000




   ***************************************************************************
   ************************* FINAL RESULTS FROM WALK *************************
   ***************************************************************************


 Walk type: mode-following                            

 Iteration number:  4

  Norm of molecular gradient:     0.0000109555

@ Energy at current point:   -56.1867624394
  Energy at initial point:   -56.1955447526

  Change in energy since start of walk: 0.0087823133 au
                                               23.06 kJ/mol
                                                5.51 kCal/mol

@ Ratio between actual and predicted energies:  1.00

@ Hessian index: 1

@ Geometry optimization has converged.

@ Eigenmode followed: 1



   sym        #int        #ext       gradient     index       cond. num.
   ---------------------------------------------------------------------
    1           6           6       1.095547D-05    1          1.42D+01



                +-------------------------------------------------+
                ! Gradient and Hessian in diagonal representation !
                +-------------------------------------------------+


           @sym        mode          gradient        eigenvalue    
           @-------------------------------------------------------
            @ 1           1         0.0000073402    -0.1037594596
            @ 1           2         0.0000000014     0.1578377211
            @ 1           3         0.0000000013     0.1578394289
            @ 1           4        -0.0000081329     0.5625529635
            @ 1           5        -0.0000000065     1.4729492098
            @ 1           6        -0.0000000042     1.4729503247


                              +----------------------+
                              ! Hessian eigenvectors !
                              +----------------------+


   sym 1            1           2           3           4           5
  ----------------------------------------------------------------------

   N    x       0.045096   -0.000479    0.334612   -0.000001    0.096672
   N    y      -0.000004    0.335067    0.000480    0.000000    0.792691
   N    z       0.864850    0.000030   -0.017446   -0.000022   -0.005039

   H    x      -0.015019   -0.000602    0.420126    0.576567   -0.059265
   H    y       0.000004   -0.644075   -0.000922    0.000000   -0.042499
   H    z      -0.288284    0.000029   -0.021913   -0.030058    0.003089

   H    x      -0.015036   -0.459894   -0.378028   -0.288283    0.173060
   H    y       0.000014    0.155164   -0.460839    0.500000   -0.351646
   H    z      -0.288283    0.023976    0.019713    0.015040   -0.009033

   H    x      -0.015041    0.460975   -0.376710   -0.288283   -0.210467
   H    y      -0.000014    0.153844    0.461281   -0.500000   -0.398546
   H    z      -0.288283   -0.024036    0.019645    0.015040    0.010983


   sym 1            6
  ----------------------
   N    x       0.791616
   N    y      -0.096803
   N    z      -0.041278

   H    x      -0.485302
   H    y       0.005190
   H    z       0.025296

   H    x      -0.176575
   H    y       0.237831
   H    z       0.009213

   H    x      -0.129739
   H    y      -0.146218
   H    z       0.006769




                                 +----------------+
                                 ! Final geometry !
                                 +----------------+



                            Cartesian coordinates (au)
                            --------------------------

 N         -0.2670512983           -0.0000003095           -0.0000255350
 H          1.5947082294            0.0000000966           -0.0970733066
 H         -1.1979287229            1.6145195640            0.0485501780
 H         -1.1979280752           -1.6145205899            0.0485487035





   Interatomic separations (in Angstrom):
   --------------------------------------

            N           H           H           H     
            ------      ------      ------      ------
 N     :    0.000000
 H     :    0.986538    0.000000
 H     :    0.986538    1.708734    0.000000
 H     :    0.986538    1.708734    1.708734    0.000000


  Max    interatomic separation is    1.7087 Angstrom (    3.2290 Bohr)
  between atoms    3 and    2, "H     " and "H     ".

  Min HX interatomic separation is    0.9865 Angstrom (    1.8643 Bohr)


  Bond distances (Angstrom):
  --------------------------

                  atom 1     atom 2       distance
                  ------     ------       --------
  bond distance:  H          N            0.986538
  bond distance:  H          N            0.986538
  bond distance:  H          N            0.986538


  Bond angles (degrees):
  ----------------------

                  atom 1     atom 2     atom 3         angle
                  ------     ------     ------         -----
  bond angle:     H          N          H            120.000
  bond angle:     H          N          H            120.000
  bond angle:     H          N          H            120.000




 CPU time statistics for ABACUS
 ------------------------------

 REST       00:00:01     200 %



 >>>> Total CPU  time used in ABACUS:   0.55 seconds
 >>>> Total wall time used in ABACUS:   0.56 seconds


                   .-------------------------------------------.
                   | End of Static Property Section (ABACUS) - |
                   `-------------------------------------------'


@  Geometry walk step no.   4:  Molecular energy =    -56.186762   Molecular gradient =  0.000011


                          .-----------------------------.
                          | Geometry walk has converged |
                          `-----------------------------'



        *****************************************************************
        ******** Output from **PROPE input processing for ABACUS ********
        *****************************************************************



 The following molecular properties will be calculated in this run:
 ------------------------------------------------------------------

 Default print level:        0

      Vibrational analysis
      Cioslowski population analysis and static polarizabilities only.
      Natural orbital connection is used
      for perturbation dependent basis sets.

 Center of mass dipole origin  :   -0.267051   -0.000000   -0.000019

 Center of mass gauge origin   :   -0.267051   -0.000000   -0.000019


                 .------------------------------------------------.
                 | Starting in Static Property Section (ABACUS) - |
                 `------------------------------------------------'


 
     Date and time (Linux)  : Sun Sep  8 20:39:47 2013
     Host name              : lpqlx131.ups-tlse.fr                    

 Old LUGDR file opened in ORTREL.


   ***************************************************************************
   ************************ FINAL RESULTS from ABACUS ************************
   ***************************************************************************


 
     Date and time (Linux)  : Sun Sep  8 20:39:48 2013
     Host name              : lpqlx131.ups-tlse.fr                    


                             Molecular geometry (au)
                             -----------------------

 N         -0.2670512983           -0.0000003095           -0.0000255350
 H          1.5947082294            0.0000000966           -0.0970733066
 H         -1.1979287229            1.6145195640            0.0485501780
 H         -1.1979280752           -1.6145205899            0.0485487035





                        Molecular wave function and energy
                        ----------------------------------

     Spin multiplicity  1     State number       1     Total charge       0

     Total energy        -56.1867624394 au (Hartrees)
                         -1528.91958025 eV
                           -147518.3220 kJ/mol


                             Relativistic corrections
                             ------------------------

     Darwin correction:                          0.1118441731 au
     Mass-velocity correction:                  -0.1401940255 au

     Total relativistic correction:             -0.0283498524 au (0.0505%)
     Non-relativistic + relativistic energy:   -56.2151122918 au




                                  Dipole moment
                                  -------------

                 au               Debye          C m (/(10**-30)
              0.000035           0.000090           0.000299


                             Dipole moment components
                             ------------------------

                 au               Debye          C m (/(10**-30)

      x      0.00000184         0.00000468         0.00001560
      y      0.00000000         0.00000000         0.00000000
      z      0.00003528         0.00008966         0.00029908


   Units:   1 a.u. =   2.54175 Debye 
            1 a.u. =   8.47835 (10**-30) C m (SI)




                           Dipole moment gradient (au)
                           ---------------------------

                       Ex             Ey             Ez

        N    x    -0.46730254     0.00000001    -0.03917200
        N    y     0.00000002    -0.46525963     0.00000033
        N    z    -0.03917722    -0.00000874    -1.21646871

        H    x     0.15209958    -0.00000001     0.01324525
        H    y    -0.00000000     0.15876355    -0.00000010
        H    z     0.01324338     0.00000291     0.40548013

        H    x     0.15760148     0.00317974     0.01296338
        H    y     0.00318006     0.15324805    -0.00016884
        H    z     0.01296692    -0.00016893     0.40549429

        H    x     0.15760148    -0.00317975     0.01296337
        H    y    -0.00318007     0.15324804     0.00016862
        H    z     0.01296692     0.00017475     0.40549429





                            +-------------------------+
                            ! APT Population Analysis !
                            +-------------------------+


      [ Reference : J. Cioslowski, J.Am.Chem.Soc. 111 (1989) 8333 ]

                            N        -0.716344
                            H         0.238781
                            H         0.238781
                            H         0.238781



                           Static polarizabilities (au)
                           ----------------------------

                         Ex          Ey          Ez

            Ex       8.467665    0.000000   -0.225964
            Ey       0.000000    8.479448    0.000002
            Ez      -0.225964    0.000002    4.146087



                      Static polarizabilities (angstroms**3)
                      --------------------------------------

                         Ex          Ey          Ez

            Ex       1.254778    0.000000   -0.033484
            Ey       0.000000    1.256525    0.000000
            Ez      -0.033484    0.000000    0.614387



                +--------------------------------------------------+
                ! Principal values and axes of polarizability (au) !
                +--------------------------------------------------+



                value              x          y          z
             ---------------------------------------------

                8.4794          0.9000    -0.4334    -0.0469
                8.4794          0.4329     0.9012    -0.0226
                4.1343          0.0521    -0.0000     0.9986


            Mean value:    7.0311        Anisotropy:    4.3451





   Interatomic separations (in Angstrom):
   --------------------------------------

            N           H           H           H     
            ------      ------      ------      ------
 N     :    0.000000
 H     :    0.986538    0.000000
 H     :    0.986538    1.708734    0.000000
 H     :    0.986538    1.708734    1.708734    0.000000


  Max    interatomic separation is    1.7087 Angstrom (    3.2290 Bohr)
  between atoms    3 and    2, "H     " and "H     ".

  Min HX interatomic separation is    0.9865 Angstrom (    1.8643 Bohr)


  Bond distances (Angstrom):
  --------------------------

                  atom 1     atom 2       distance
                  ------     ------       --------
  bond distance:  H          N            0.986538
  bond distance:  H          N            0.986538
  bond distance:  H          N            0.986538


  Bond angles (degrees):
  ----------------------

                  atom 1     atom 2     atom 3         angle
                  ------     ------     ------         -----
  bond angle:     H          N          H            120.000
  bond angle:     H          N          H            120.000
  bond angle:     H          N          H            120.000




   ****************************************************************************
   *************** ABACUS - ROTATIONAL AND VIBRATIONAL ANALYSIS ***************
   ****************************************************************************


 Norm of (unprojected) molecular gradient (au) :     0.00000000


 Conversion factors used:

    Hartree to (cm)-1      : 219474.62934
    a.m.u.  to a.u.        :   1822.88848
    Bohr    to Angstrom    :  0.529177211
    a.u.    to A**4amu-1   :   142.943572
    a.u.    to km (mol)-1  :      974.864


 Vibrational analysis for parent molecule only.
  Norm of projected gradient     0.000000


                         Isotopic Molecule No. 1
                         ======================= 


                                 Isotopic Masses
                                 ---------------

                           N          14.003074
                           H           1.007825
                           H           1.007825
                           H           1.007825

                       Total mass:    17.026549 amu
                       Natural abundance:  99.585 %

 Center-of-mass coordinates (a.u.):   -0.267051   -0.000000   -0.000019


 Principal moments of inertia (u*A**2) and principal axes
 --------------------------------------------------------

   IA       1.471310          0.913287   -0.404524   -0.047624
   IB       1.471310          0.403975    0.914527   -0.021065
   IC       2.942621          0.052075   -0.000000    0.998643


 Rotational constants
 --------------------

 The molecule is planar.

               A                   B                   C

         343489.0599         343489.0542         171744.5286 MHz
           11.457562           11.457562            5.728781 cm-1



  Vibrational Frequencies and IR Intensities
  ------------------------------------------



  mode   irrep        frequency             IR intensity
  ============================================================
                 cm-1       hartrees     km/mol   (D/A)**2/amu
  ------------------------------------------------------------

   1      A      4065.94    0.018526     43.348   1.0258
   2      A      4065.94    0.018526     43.347   1.0258
   3      A      3840.55    0.017499      0.000   0.0000
   4      A      1714.29    0.007811     41.557   0.9835
   5      A      1714.28    0.007811     41.557   0.9835
   6      A       909.38i   0.004143i






  Normal Coordinates (bohrs*amu**(1/2)):
  --------------------------------------


                1  4066     2  4066     3  3841     4  1714     5  1714 
  ----------------------------------------------------------------------

    N      x    0.018446   -0.079925   -0.000000   -0.076931   -0.000267
    N      y   -0.080034   -0.018471    0.000000    0.000268   -0.077035
    N      z   -0.000962    0.004168   -0.000002    0.004011    0.000013

    H      x   -0.173782    0.752997    0.574325   -0.062607   -0.000217
    H      y   -0.012674   -0.002925    0.000000   -0.002697    0.776262
    H      z    0.009059   -0.039251   -0.029940    0.003279    0.000015

    H      x   -0.372792    0.102242   -0.287162    0.564494    0.364751
    H      y    0.638965   -0.202205    0.498055    0.362767    0.148308
    H      z    0.019453   -0.005335    0.014983   -0.029440   -0.019006

    H      x    0.290282    0.255271   -0.287162    0.567015   -0.360820
    H      y    0.485728    0.461771   -0.498055   -0.363789    0.145784
    H      z   -0.015146   -0.013320    0.014982   -0.029572    0.018807


                6   909i
  ----------------------

    N      x   -0.005864
    N      y    0.000001
    N      z   -0.112458

    H      x    0.027150
    H      y   -0.000004
    H      z    0.520842

    H      x    0.027160
    H      y   -0.000010
    H      z    0.520841

    H      x    0.027164
    H      y    0.000007
    H      z    0.520841




  Dipole Gradient in Normal Coordinate Basis (D/(A*amu**(1/2)))
  -------------------------------------------------------------


  mode           dMA/dQi        dMB/dQi        dMC/dQi
  ----------------------------------------------------
   1           -0.227455       0.986900       0.011865
   2            0.985560       0.227763      -0.051388
   3            0.000001      -0.000000       0.000030
   4            0.990355      -0.003446      -0.051631
   5            0.003442       0.991698      -0.000159
   6            0.193291       0.000019       3.706546



                              Total Molecular Energy
                              ----------------------

             electronic     vibrational           total    energy 

             -56.186762        0.035086      -56.151676    Hartrees
           -12331568.86         7700.51    -12323868.35    cm-1
             -147518.32           92.12      -147426.20    kJ/mol
              -35257.73           22.02       -35235.71    kcal/mol


                          Molecular Partition Functions
                          -----------------------------

 Qtran is evaluated per mol at 1 atm. pressure.
 Qrot does not include symmetry numbers.
 Qvib does not include zero point energies
 (i.e., energy scale has vibrational ground state as zero).


 Temp.(K)  Translational     Rotational    Vibrational      Total

    50.00     3.1804D+04          13.97         1.0000   4.442441D+05
   100.00     1.7991D+05          38.48         1.0000   6.922787D+06
   200.00     1.0177D+06         107.38         1.0000   1.092846D+08
   273.15     2.2185D+06         170.77         1.0002   3.789354D+08
   298.15     2.7615D+06         194.58         1.0005   5.375943D+08
   300.00     2.8045D+06         196.38         1.0005   5.510456D+08
   400.00     5.7571D+06         301.66         1.0042   1.744009D+09
   500.00     1.0057D+07         421.01         1.0146   4.296005D+09
   600.00     1.5865D+07         552.93         1.0338   9.068831D+09
   700.00     2.3324D+07         696.31         1.0626   1.725732D+10
   800.00     3.2567D+07         850.32         1.1009   3.048666D+10
   900.00     4.3718D+07        1014.25         1.1487   5.093233D+10
  1000.00     5.6892D+07        1187.54         1.2058   8.146795D+10
  1500.00     1.5678D+08        2179.65         1.6414   5.609089D+11
  2000.00     3.2183D+08        3354.26         2.3733   2.562017D+12


 CPU time statistics for ABACUS
 ------------------------------




 >>>> Total CPU  time used in ABACUS:   0.34 seconds
 >>>> Total wall time used in ABACUS:   0.35 seconds


                   .-------------------------------------------.
                   | End of Static Property Section (ABACUS) - |
                   `-------------------------------------------'

 >>>> Total CPU  time used in DALTON:   3.46 seconds
 >>>> Total wall time used in DALTON:   3.49 seconds

 
     Date and time (Linux)  : Sun Sep  8 20:39:48 2013
     Host name              : lpqlx131.ups-tlse.fr                    
