

     ************************************************************************
     *************** Dalton - An Electronic Structure Program ***************
     ************************************************************************

    This is output from DALTON (Release Dalton2013 patch 0)
   ----------------------------------------------------------------------------
    NOTE:
     
    Dalton is an experimental code for the evaluation of molecular
    properties using (MC)SCF, DFT, CI, and CC wave functions.
    The authors accept no responsibility for the performance of
    the code or for the correctness of the results.
     
    The code (in whole or part) is provided under a licence and
    is not to be reproduced for further distribution without
    the written permission of the authors or their representatives.
     
    See the home page "http://daltonprogram.org" for further information.
     
    If results obtained with this code are published,
    the appropriate citations would be both of:
     
       K. Aidas, C. Angeli, K. L. Bak, V. Bakken, R. Bast,
       L. Boman, O. Christiansen, R. Cimiraglia, S. Coriani,
       P. Dahle, E. K. Dalskov, U. Ekstroem, T. Enevoldsen,
       J. J. Eriksen, P. Ettenhuber, B. Fernandez, L. Ferrighi,
       H. Fliegl, L. Frediani, K. Hald, A. Halkier, C. Haettig,
       H. Heiberg, T. Helgaker, A. C. Hennum, H. Hettema,
       E. Hjertenaes, S. Hoest, I.-M. Hoeyvik, M. F. Iozzi,
       B. Jansik, H. J. Aa. Jensen, D. Jonsson, P. Joergensen,
       J. Kauczor, S. Kirpekar, T. Kjaergaard, W. Klopper,
       S. Knecht, R. Kobayashi, H. Koch, J. Kongsted, A. Krapp,
       K. Kristensen, A. Ligabue, O. B. Lutnaes, J. I. Melo,
       K. V. Mikkelsen, R. H. Myhre, C. Neiss, C. B. Nielsen,
       P. Norman, J. Olsen, J. M. H. Olsen, A. Osted,
       M. J. Packer, F. Pawlowski, T. B. Pedersen, P. F. Provasi,
       S. Reine, Z. Rinkevicius, T. A. Ruden, K. Ruud, V. Rybkin,
       P. Salek, C. C. M. Samson, A. Sanchez de Meras, T. Saue,
       S. P. A. Sauer, B. Schimmelpfennig, K. Sneskov,
       A. H. Steindal, K. O. Sylvester-Hvid, P. R. Taylor,
       A. M. Teale, E. I. Tellgren, D. P. Tew, A. J. Thorvaldsen,
       L. Thoegersen, O. Vahtras, M. A. Watson, D. J. D. Wilson,
       M. Ziolkowski and H. Aagren.
       The Dalton quantum chemistry program system.
       WIREs Comput. Mol. Sci. 2013. doi: 10.1002/wcms.1172
    
    and
    
       Dalton, a Molecular Electronic Structure Program,
       Release DALTON2013.0 (2013), see http://daltonprogram.org
   ----------------------------------------------------------------------------

    Authors in alphabetical order (major contribution(s) in parenthesis):

  Kestutis Aidas,           Vilnius University,           Lithuania   (QM/MM)
  Celestino Angeli,         University of Ferrara,        Italy       (NEVPT2)
  Keld L. Bak,              UNI-C,                        Denmark     (AOSOPPA, non-adiabatic coupling, magnetic properties)
  Vebjoern Bakken,          University of Oslo,           Norway      (DALTON; geometry optimizer, symmetry detection)
  Radovan Bast,             KTH Stockholm                 Sweden      (DALTON installation and execution frameworks)
  Linus Boman,              NTNU,                         Norway      (Cholesky decomposition and subsystems)
  Ove Christiansen,         Aarhus University,            Denmark     (CC module)
  Renzo Cimiraglia,         University of Ferrara,        Italy       (NEVPT2)
  Sonia Coriani,            University of Trieste,        Italy       (CC module, MCD in RESPONS)
  Paal Dahle,               University of Oslo,           Norway      (Parallelization)
  Erik K. Dalskov,          UNI-C,                        Denmark     (SOPPA)
  Thomas Enevoldsen,        Univ. of Southern Denmark,    Denmark     (SOPPA)
  Janus J. Eriksen,         Aarhus University,            Denmark     (PE-MP2/SOPPA, TDA)
  Berta Fernandez,          U. of Santiago de Compostela, Spain       (doublet spin, ESR in RESPONS)
  Lara Ferrighi,            Aarhus University,            Denmark     (PCM Cubic response)
  Heike Fliegl,             University of Oslo,           Norway      (CCSD(R12))
  Luca Frediani,            UiT The Arctic U. of Norway,  Norway      (PCM)
  Bin Gao,                  UiT The Arctic U. of Norway,  Norway      (Gen1Int library)
  Christof Haettig,         Ruhr-University Bochum,       Germany     (CC module)
  Kasper Hald,              Aarhus University,            Denmark     (CC module)
  Asger Halkier,            Aarhus University,            Denmark     (CC module)
  Hanne Heiberg,            University of Oslo,           Norway      (geometry analysis, selected one-electron integrals)
  Trygve Helgaker,          University of Oslo,           Norway      (DALTON; ABACUS, ERI, DFT modules, London, and much more)
  Alf Christian Hennum,     University of Oslo,           Norway      (Parity violation)
  Hinne Hettema,            University of Auckland,       New Zealand (quadratic response in RESPONS; SIRIUS supersymmetry)
  Eirik Hjertenaes,         NTNU,                         Norway      (Cholesky decomposition)
  Maria Francesca Iozzi,    University of Oslo,           Norway      (RPA)
  Brano Jansik              Technical Univ. of Ostrava    Czech Rep.  (DFT cubic response)
  Hans Joergen Aa. Jensen,  Univ. of Southern Denmark,    Denmark     (DALTON; SIRIUS, RESPONS, ABACUS modules, London, and much more)
  Dan Jonsson,              UiT The Arctic U. of Norway,  Norway      (cubic response in RESPONS module)
  Poul Joergensen,          Aarhus University,            Denmark     (RESPONS, ABACUS, and CC modules)
  Joanna Kauczor,           Linkoeping University,        Sweden      (Complex polarization propagator (CPP) module)
  Sheela Kirpekar,          Univ. of Southern Denmark,    Denmark     (Mass-velocity & Darwin integrals)
  Wim Klopper,              KIT Karlsruhe,                Germany     (R12 code in CC, SIRIUS, and ABACUS modules)
  Stefan Knecht,            ETH Zurich,                   Switzerland (Parallel CI and MCSCF)
  Rika Kobayashi,           Australian National Univ.,    Australia   (DIIS in CC, London in MCSCF)
  Henrik Koch,              NTNU,                         Norway      (CC module, Cholesky decomposition)
  Jacob Kongsted,           Univ. of Southern Denmark,    Denmark     (Polarizable embedding, QM/MM)
  Andrea Ligabue,           University of Modena,         Italy       (CTOCD, AOSOPPA)
  Ola B. Lutnaes,           University of Oslo,           Norway      (DFT Hessian)
  Juan I. Melo,             University of Buenos Aires,   Argentina   (LRESC, Relativistic Effects on NMR Shieldings)
  Kurt V. Mikkelsen,        University of Copenhagen,     Denmark     (MC-SCRF and QM/MM)
  Rolf H. Myhre,            NTNU,                         Norway      (Cholesky, subsystems and ECC2)
  Christian Neiss,          Univ. Erlangen-Nuernberg,     Germany     (CCSD(R12))
  Christian B. Nielsen,     University of Copenhagen,     Denmark     (QM/MM)
  Patrick Norman,           Linkoeping University,        Sweden      (Cubic response and complex response in RESPONS)
  Jeppe Olsen,              Aarhus University,            Denmark     (SIRIUS CI/density modules)
  Jogvan Magnus H. Olsen,   Univ. of Southern Denmark,    Denmark     (Polarizable embedding, PE library, QM/MM)
  Anders Osted,             Copenhagen University,        Denmark     (QM/MM)
  Martin J. Packer,         University of Sheffield,      UK          (SOPPA)
  Filip Pawlowski,          Kazimierz Wielki University   Poland      (CC3)
  Thomas B. Pedersen,       University of Oslo,           Norway      (Cholesky decomposition)
  Patricio F. Provasi,      University of Northeastern,   Argentina   (Analysis of coupling constants in localized orbitals)
  Zilvinas Rinkevicius,     KTH Stockholm,                Sweden      (open-shell DFT, ESR)
  Elias Rudberg,            KTH Stockholm,                Sweden      (DFT grid and basis info)
  Torgeir A. Ruden,         University of Oslo,           Norway      (Numerical derivatives in ABACUS)
  Kenneth Ruud,             UiT The Arctic U. of Norway,  Norway      (DALTON; ABACUS magnetic properties and  much more)
  Pawel Salek,              KTH Stockholm,                Sweden      (DALTON; DFT code)
  Claire C. M. Samson       University of Karlsruhe       Germany     (Boys localization, r12 integrals in ERI)
  Alfredo Sanchez de Meras, University of Valencia,       Spain       (CC module, Cholesky decomposition)
  Trond Saue,               Paul Sabatier University,     France      (direct Fock matrix construction)
  Stephan P. A. Sauer,      University of Copenhagen,     Denmark     (SOPPA(CCSD), SOPPA prop., AOSOPPA, vibrational g-factors)
  Bernd Schimmelpfennig,    Forschungszentrum Karlsruhe,  Germany     (AMFI module)
  Kristian Sneskov,         Aarhus University,            Denmark     (QM/MM, PE-CC)
  Arnfinn H. Steindal,      UiT The Arctic U. of Norway,  Norway      (parallel QM/MM)
  K. O. Sylvester-Hvid,     University of Copenhagen,     Denmark     (MC-SCRF)
  Peter R. Taylor,          VLSCI/Univ. of Melbourne,     Australia   (Symmetry handling ABACUS, integral transformation)
  Andrew M. Teale,          University of Nottingham,     England     (DFT-AC, DFT-D)
  David P. Tew,             University of Bristol,        England     (CCSD(R12))
  Olav Vahtras,             KTH Stockholm,                Sweden      (triplet response, spin-orbit, ESR, TDDFT, open-shell DFT)
  David J. Wilson,          La Trobe University,          Australia   (DFT Hessian and DFT magnetizabilities)
  Hans Agren,               KTH Stockholm,                Sweden      (SIRIUS module, RESPONS, MC-SCRF solvation model)
 --------------------------------------------------------------------------------

     Date and time (Linux)  : Sun Sep  8 20:39:46 2013
     Host name              : lpqlx131.ups-tlse.fr                    

 * Work memory size             :    64000000 =  488.28 megabytes.

 * Directories for basis set searches:
   1) /home/bast/DALTON-2013.0-Source/build/test_walk_polar
   2) /home/bast/DALTON-2013.0-Source/build/basis


Compilation information
-----------------------

 Who compiled             | bast
 Host                     | lpqlx131.ups-tlse.fr
 System                   | Linux-3.8.5-201.fc18.x86_64
 CMake generator          | Unix Makefiles
 Processor                | x86_64
 64-bit integers          | OFF
 MPI                      | OFF
 Fortran compiler         | /usr/bin/gfortran
 Fortran compiler version | GNU Fortran (GCC) 4.7.2 20121109 (Red Hat 4.7.2-8)
 C compiler               | /usr/bin/gcc
 C compiler version       | gcc (GCC) 4.7.2 20121109 (Red Hat 4.7.2-8)
 C++ compiler             | /usr/bin/g++
 C++ compiler version     | g++ (GCC) 4.7.2 20121109 (Red Hat 4.7.2-8)
 Static linking           | OFF
 Last Git revision        | f34203295a86316e27f9e7b44f9b6769c4a046c0
 Configuration time       | 2013-09-08 20:31:27.952056


   Content of the .dal input file
 ----------------------------------

**DALTON INPUT                                    
.WALK                                             
**WAVE FUNCTION                                   
.HF                                               
**PROPERTIES                                      
.POLARI                                           
.VIBANA                                           
.POPANA                                           
.ALPHA                                            
*ABALNR                                           
.FREQUE                                           
 3                                                
0.0 0.0592 0.096                                  
**RESPONSE                                        
*LINEAR                                           
.DIPLEN                                           
.FREQUE                                           
 2                                                
0.0 0.0592                                        
**END OF DALTON INPUT                             


   Content of the .mol file
 ----------------------------

ATOMBASIS                                                                      
Geometry optimization using WALK module plus                                   
static and dynamic polarizabilities                                            
Atomtypes=2 Generators=2  X  Z                                                 
Charge=8.0 Atoms=1 Basis=6-311G Pol 1 0.0845D0 3 1.292D0 2 0.0845D0            
O     0.0 -0.2249058930 0.0                                                    
Basis=6-311G Pol 1 0.0360D0 2 0.750D0 Charge=1.0 Atoms=1                       
H     1.45235 0.899623 0.0                                                     
H    -1.45235 0.899623 0.0                                                     


       *******************************************************************
       *********** Output from DALTON general input processing ***********
       *******************************************************************

 --------------------------------------------------------------------------------
   Overall default print level:    0
   Print level for DALTON.STAT:    1

    Geometry optimization
      Starting at iteration:    0
      Maximum number of iterations:   20
    "Old" integral transformation used (limited to max 255 basis functions)
 --------------------------------------------------------------------------------


                  .----------------------------------------------.
                  | Commencing geometry optimization using .WALK |
                  `----------------------------------------------'



     @@>>>>>>>>>> Geometry walk iteration number:    0 <<<<<<<<<<




   ****************************************************************************
   *************** Output of molecule and basis set information ***************
   ****************************************************************************


    The two title cards from your ".mol" input:
    ------------------------------------------------------------------------
 1: Geometry optimization using WALK module plus                            
 2: static and dynamic polarizabilities                                     
    ------------------------------------------------------------------------

  Atomic type no.    1
  --------------------
  Nuclear charge:   8.00000
  Number of symmetry independent centers:    1
  Number of basis sets to read;    2
  The basis set is "6-311G Pol 1 0.0845D0 3 1.292D0 2 0.0845D0" from the basis set library.
  Basis set file used for this atomic type with Z =   8 :
     "/home/bast/DALTON-2013.0-Source/build/basis/6-311G"

  Atomic type no.    2
  --------------------
  Nuclear charge:   1.00000
  Number of symmetry independent centers:    1
  Number of basis sets to read;    2
  The basis set is "6-311G Pol 1 0.0360D0 2 0.750D0 Charge=1.0 Atoms=1" from the basis set library.
  Basis set file used for this atomic type with Z =   1 :
     "/home/bast/DALTON-2013.0-Source/build/basis/6-311G"


                         SYMGRP: Point group information
                         -------------------------------

Point group: C2v

   * The point group was generated by:

      Reflection in the yz-plane
      Reflection in the xy-plane

   * Group multiplication table

        |  E   C2y  Oxy  Oyz
   -----+--------------------
     E  |  E   C2y  Oxy  Oyz
    C2y | C2y   E   Oyz  Oxy
    Oxy | Oxy  Oyz   E   C2y
    Oyz | Oyz  Oxy  C2y   E 

   * Character table

        |  E   C2y  Oxy  Oyz
   -----+--------------------
    A1  |   1    1    1    1
    B2  |   1   -1    1   -1
    B1  |   1   -1   -1    1
    A2  |   1    1   -1   -1

   * Direct product table

        | A1   B2   B1   A2 
   -----+--------------------
    A1  | A1   B2   B1   A2 
    B2  | B2   A1   A2   B1 
    B1  | B1   A2   A1   B2 
    A2  | A2   B1   B2   A1 


                                 Isotopic Masses
                                 ---------------

                           O          15.994915
                           H   _1      1.007825
                           H   _2      1.007825

                       Total mass:    18.010565 amu
                       Natural abundance:  99.730 %

 Center-of-mass coordinates (a.u.):    0.000000   -0.099054    0.000000


  Atoms and basis sets
  --------------------

  Number of atom types :    2
  Total number of atoms:    3

  label    atoms   charge   prim   cont     basis
  ----------------------------------------------------------------------
  O           1    8.0000    35    22      [12s6p1d|5s4p1d]                                   
  H           2    1.0000     9     7      [6s1p|4s1p]                                        
  ----------------------------------------------------------------------
  total:      3   10.0000    53    36
  ----------------------------------------------------------------------
  Spherical harmonic basis used.

  Threshold for neglecting AO integrals:  1.00D-12


  Cartesian Coordinates (a.u.)
  ----------------------------

  Total number of coordinates:    9
  O       :     1  x   0.0000000000    2  y  -0.2249058930    3  z   0.0000000000
  H   / 1 :     4  x   1.4523500000    5  y   0.8996230000    6  z   0.0000000000
  H   / 2 :     7  x  -1.4523500000    8  y   0.8996230000    9  z   0.0000000000


  Symmetry Coordinates
  --------------------

  Number of coordinates in each symmetry:     3    3    2    1

  Symmetry  A1  ( 1)

    1   O     y    2
    2   H     x    [  4  -    7 ]/2
    3   H     y    [  5  +    8 ]/2

  Symmetry  B2  ( 2)

    4   O     x    1
    5   H     x    [  4  +    7 ]/2
    6   H     y    [  5  -    8 ]/2

  Symmetry  B1  ( 3)

    7   O     z    3
    8   H     z    [  6  +    9 ]/2

  Symmetry  A2  ( 4)

    9   H     z    [  6  -    9 ]/2


   Interatomic separations (in Angstrom):
   --------------------------------------

            O           H   _1      H   _2
            ------      ------      ------
 O     :    0.000000
 H   _1:    0.972000    0.000000
 H   _2:    0.972000    1.537101    0.000000


  Max    interatomic separation is    1.5371 Angstrom (    2.9047 Bohr)
  between atoms    3 and    2, "H   _2" and "H   _1".

  Min HX interatomic separation is    0.9720 Angstrom (    1.8368 Bohr)


  Bond distances (Angstrom):
  --------------------------

                  atom 1     atom 2       distance
                  ------     ------       --------
  bond distance:  H   _1     O            0.972000
  bond distance:  H   _2     O            0.972000


  Bond angles (degrees):
  ----------------------

                  atom 1     atom 2     atom 3         angle
                  ------     ------     ------         -----
  bond angle:     H   _1     O          H   _2       104.500




 Principal moments of inertia (u*A**2) and principal axes
 --------------------------------------------------------

   IA       0.633889          1.000000    0.000000    0.000000
   IB       1.190584          0.000000    1.000000    0.000000
   IC       1.824473          0.000000    0.000000    1.000000


 Rotational constants
 --------------------

 The molecule is planar.

               A                   B                   C

         797267.3370         424479.9976         277000.0210 MHz
           26.593976           14.159129            9.239726 cm-1


@  Nuclear repulsion energy :    9.055004525638 Hartree


  Symmetry Orbitals
  -----------------

  Number of orbitals in each symmetry:          17   11    6    2


  Symmetry  A1 ( 1)

    1     O        1s         1
    2     O        1s         2
    3     O        1s         3
    4     O        1s         4
    5     O        1s         5
    6     O        2py        7
    7     O        2py       10
    8     O        2py       13
    9     O        2py       16
   10     O        3d0       20
   11     O        3d2+      22
   12     H        1s        23 +   24
   13     H        1s        25 +   26
   14     H        1s        27 +   28
   15     H        1s        29 +   30
   16     H        2px       31 -   32
   17     H        2py       33 +   34


  Symmetry  B2 ( 2)

   18     O        2px        6
   19     O        2px        9
   20     O        2px       12
   21     O        2px       15
   22     O        3d2-      18
   23     H        1s        23 -   24
   24     H        1s        25 -   26
   25     H        1s        27 -   28
   26     H        1s        29 -   30
   27     H        2px       31 +   32
   28     H        2py       33 -   34


  Symmetry  B1 ( 3)

   29     O        2pz        8
   30     O        2pz       11
   31     O        2pz       14
   32     O        2pz       17
   33     O        3d1-      19
   34     H        2pz       35 +   36


  Symmetry  A2 ( 4)

   35     O        3d1+      21
   36     H        2pz       35 -   36

  Symmetries of electric field:  B2 (2)  A1 (1)  B1 (3)

  Symmetries of magnetic field:  B1 (3)  A2 (4)  B2 (2)


                     .---------------------------------------.
                     | Starting in Integral Section (HERMIT) |
                     `---------------------------------------'



    *************************************************************************
    ****************** Output from HERMIT input processing ******************
    *************************************************************************



     ************************************************************************
     ************************** Output from HERINT **************************
     ************************************************************************


 Threshold for neglecting two-electron integrals:  1.00D-12
 Number of two-electron integrals written:       57092 ( 25.7% )
 Megabytes written:                              0.660

 >>>> Total CPU  time used in HERMIT:   0.03 seconds
 >>>> Total wall time used in HERMIT:   0.03 seconds


                        .----------------------------------.
                        | End of Integral Section (HERMIT) |
                        `----------------------------------'



                   .--------------------------------------------.
                   | Starting in Wave Function Section (SIRIUS) |
                   `--------------------------------------------'


 *** Output from Huckel module :

     Using EWMO model:          F
     Using EHT  model:          T
     Number of Huckel orbitals each symmetry:    4    2    1    0

 Huckel EHT eigenvalues for symmetry :  1
          -20.704225      -1.499390      -0.671093      -0.296848

 Huckel EHT eigenvalues for symmetry :  2
           -0.731017      -0.261127

 Huckel EHT eigenvalues for symmetry :  3
           -0.616200

 **********************************************************************
 *SIRIUS* a direct, restricted step, second order MCSCF program       *
 **********************************************************************

 
     Date and time (Linux)  : Sun Sep  8 20:39:46 2013
     Host name              : lpqlx131.ups-tlse.fr                    

 Title lines from ".mol" input file:
     Geometry optimization using WALK module plus                            
     static and dynamic polarizabilities                                     

 Print level on unit LUPRI =   2 is   0
 Print level on unit LUW4  =   2 is   5

@    Restricted, closed shell Hartree-Fock calculation.

 Initial molecular orbitals are obtained according to
 ".MOSTART EHT   " input option

     Wave function specification
     ============================
@    For the wave function of type :      >>> HF <<<
@    Number of closed shell electrons          10
@    Number of electrons in active shells       0
@    Total charge of the molecule               0

@    Spin multiplicity and 2 M_S                1         0
     Total number of symmetries                 4
@    Reference state symmetry                   1

     Orbital specifications
     ======================
     Abelian symmetry species          All |    1    2    3    4
                                       --- |  ---  ---  ---  ---
     Total number of orbitals           36 |   17   11    6    2
     Number of basis functions          36 |   17   11    6    2

      ** Automatic occupation of RHF orbitals **

      -- Initial occupation of symmetries is determined from extended Huckel guess.           
      -- Initial occupation of symmetries is :
@    Occupied SCF orbitals               5 |    3    1    1    0

     Maximum number of Fock   iterations      0
     Maximum number of DIIS   iterations     60
     Maximum number of QC-SCF iterations     60
     Threshold for SCF convergence     1.00D-05


 >>>>> DIIS optimization of Hartree-Fock <<<<<

 C1-DIIS algorithm; max error vectors =   10

 Automatic occupation of symmetries with  10 electrons.

 Iter     Total energy    Error norm  Delta(E)    SCF occupation
 -----------------------------------------------------------------------------
     (Precalculated two-electron integrals are transformed to P-supermatrix elements.
      Threshold for discarding integrals :  1.00D-12 )
@  1  -75.8294835460       2.39D+00  -7.58D+01     3   1   1   0
      Virial theorem: -V/T =      1.997271
@      MULPOP O      -0.56; H   _1  0.28; H   _2  0.28; 
 -----------------------------------------------------------------------------
@  2  -76.0427775618       3.85D-01  -2.13D-01     3   1   1   0
      Virial theorem: -V/T =      2.001859
@      MULPOP O      -0.46; H   _1  0.23; H   _2  0.23; 
 -----------------------------------------------------------------------------
@  3  -76.0506585657       8.69D-02  -7.88D-03     3   1   1   0
      Virial theorem: -V/T =      2.002129
@      MULPOP O      -0.50; H   _1  0.25; H   _2  0.25; 
 -----------------------------------------------------------------------------
@  4  -76.0514148689       2.07D-02  -7.56D-04     3   1   1   0
      Virial theorem: -V/T =      2.001298
@      MULPOP O      -0.51; H   _1  0.26; H   _2  0.26; 
 -----------------------------------------------------------------------------
@  5  -76.0514535670       9.42D-03  -3.87D-05     3   1   1   0
      Virial theorem: -V/T =      2.001693
@      MULPOP O      -0.51; H   _1  0.26; H   _2  0.26; 
 -----------------------------------------------------------------------------
@  6  -76.0514589341       1.95D-03  -5.37D-06     3   1   1   0
      Virial theorem: -V/T =      2.001527
@      MULPOP O      -0.51; H   _1  0.26; H   _2  0.26; 
 -----------------------------------------------------------------------------
@  7  -76.0514595020       3.21D-04  -5.68D-07     3   1   1   0
      Virial theorem: -V/T =      2.001554
@      MULPOP O      -0.51; H   _1  0.26; H   _2  0.26; 
 -----------------------------------------------------------------------------
@  8  -76.0514595189       4.79D-05  -1.69D-08     3   1   1   0
      Virial theorem: -V/T =      2.001554
@      MULPOP O      -0.51; H   _1  0.26; H   _2  0.26; 
 -----------------------------------------------------------------------------
@  9  -76.0514595192       9.11D-06  -2.63D-10     3   1   1   0

@ *** DIIS converged in   9 iterations !
@     Converged SCF energy, gradient:    -76.051459519190    9.11D-06
    - total time used in SIRFCK :              0.00 seconds


 *** SCF orbital energy analysis ***

 Only the five lowest virtual orbital energies printed in each symmetry.

 Number of electrons :   10
 Orbital occupations :    3    1    1    0

 Sym       Hartree-Fock orbital energies

  1    -20.56922370    -1.34804017    -0.58147029     0.04268016     0.24249831
         0.24495339     0.32485716     0.72670592

  2     -0.71259788     0.07205205     0.25777257     0.31867226     0.67492512
         1.24798527

  3     -0.50896889     0.24568358     1.24411960     1.71081709     3.47137639
         5.48825086

  4      1.50204479     3.52160278

    E(LUMO) :     0.04268016 au (symmetry 1)
  - E(HOMO) :    -0.50896889 au (symmetry 3)
  ------------------------------------------
    gap     :     0.55164905 au

 >>> Writing SIRIFC interface file <<<

 >>>> CPU and wall time for SCF :       0.010       0.011


                       .-----------------------------------.
                       | >>> Final results from SIRIUS <<< |
                       `-----------------------------------'


@    Spin multiplicity:           1
@    Spatial symmetry:            1
@    Total charge of molecule:    0

@    Final HF energy:             -76.051459519190                 
@    Nuclear repulsion:             9.055004525638
@    Electronic energy:           -85.106464044828

@    Final gradient norm:           0.000009105820

 
     Date and time (Linux)  : Sun Sep  8 20:39:46 2013
     Host name              : lpqlx131.ups-tlse.fr                    

 (Only coefficients >0.0100 are printed.)

 Molecular orbitals for symmetry species  1
 ------------------------------------------

    Orbital         1        2        3        4        5
   1 O   :1s     0.5515  -0.1140   0.0375   0.0169  -0.0112
   2 O   :1s     0.4717  -0.1904   0.0639   0.0299  -0.0191
   3 O   :1s     0.0055   0.5435  -0.1978  -0.1118   0.0721
   4 O   :1s    -0.0008   0.3877  -0.3034  -0.0048  -0.0172
   5 O   :1s     0.0009  -0.0158  -0.0142  -0.9376   2.4976
   6 O   :2py    0.0018   0.0352   0.2521  -0.0371  -0.0909
   7 O   :2py   -0.0007   0.0605   0.3840  -0.0538  -0.0759
   8 O   :2py    0.0002   0.0192   0.2997  -0.0922  -0.5805
   9 O   :2py    0.0001  -0.0001   0.0602  -0.0652   2.1395
  10 O   :3d0    0.0001  -0.0078  -0.0123   0.0009   0.0142
  11 O   :3d2+  -0.0001   0.0014  -0.0117   0.0023   0.0011
  12 H   :1s     0.0002   0.0905   0.0881  -0.0012  -0.0180
  13 H   :1s     0.0002   0.0812   0.1527   0.0639   0.0940
  14 H   :1s    -0.0003  -0.0043   0.0193   0.0462  -1.5814
  15 H   :1s    -0.0001   0.0077   0.0005   0.8169  -0.0607
  16 H   :2px   -0.0001  -0.0234  -0.0312   0.0134  -0.0245
  17 H   :2py   -0.0001  -0.0145   0.0085   0.0093   0.0023

 Molecular orbitals for symmetry species  2
 ------------------------------------------

    Orbital         1        2        3
   1 O   :2px    0.2273  -0.0390  -0.0711
   2 O   :2px    0.3500  -0.0736  -0.1027
   3 O   :2px    0.2150   0.0117  -0.0578
   4 O   :2px    0.0145  -0.4679  -2.5222
   5 O   :3d2-   0.0279  -0.0002   0.0232
   6 H   :1s     0.1461  -0.0117   0.0683
   7 H   :1s     0.2175   0.0171  -0.1714
   8 H   :1s     0.0316  -0.0507   3.5956
   9 H   :1s     0.0123   2.4917  -0.4947
  10 H   :2px   -0.0199   0.0107   0.0093
  11 H   :2py   -0.0269   0.0103   0.0304

 Molecular orbitals for symmetry species  3
 ------------------------------------------

    Orbital         1        2        3
   1 O   :2pz    0.2879   0.1158  -0.2478
   2 O   :2pz    0.4452   0.0955  -0.8882
   3 O   :2pz    0.4127   0.5907   1.5991
   4 O   :2pz    0.0826  -1.2808  -0.7322
   5 O   :3d1-   0.0163   0.0065  -0.0037
   6 H   :2pz    0.0319  -0.0116   0.0248

 Molecular orbitals for symmetry species  4
 ------------------------------------------

    Orbital         1        2
   1 O   :3d1+  -0.1271   1.0488
   2 H   :2pz   -0.6877  -0.3314



 >>>> Total CPU  time used in SIRIUS :      0.01 seconds
 >>>> Total wall time used in SIRIUS :      0.01 seconds

 
     Date and time (Linux)  : Sun Sep  8 20:39:46 2013
     Host name              : lpqlx131.ups-tlse.fr                    


                     .---------------------------------------.
                     | End of Wave Function Section (SIRIUS) |
                     `---------------------------------------'


 Center of mass dipole origin  :    0.000000   -0.099054    0.000000

 Center of mass gauge origin   :    0.000000   -0.099054    0.000000


                 .------------------------------------------------.
                 | Starting in Static Property Section (ABACUS) - |
                 `------------------------------------------------'


 
     Date and time (Linux)  : Sun Sep  8 20:39:46 2013
     Host name              : lpqlx131.ups-tlse.fr                    


   ***************************************************************************
   ************************ FINAL RESULTS from ABACUS ************************
   ***************************************************************************


 
     Date and time (Linux)  : Sun Sep  8 20:39:46 2013
     Host name              : lpqlx131.ups-tlse.fr                    


                             Molecular geometry (au)
                             -----------------------

 O          0.0000000000           -0.2249058930            0.0000000000
 H   _1     1.4523500000            0.8996230000            0.0000000000
 H   _2    -1.4523500000            0.8996230000            0.0000000000





                        Molecular wave function and energy
                        ----------------------------------

     Spin multiplicity  1     State number       1     Total charge       0

     Total energy        -76.0514595192 au (Hartrees)
                         -2069.46548471 eV
                           -199673.0762 kJ/mol


                             Relativistic corrections
                             ------------------------

     Darwin correction:                          0.1974514209 au
     Mass-velocity correction:                  -0.2489637574 au

     Total relativistic correction:             -0.0515123365 au (0.0677%)
     Non-relativistic + relativistic energy:   -76.1029718556 au




                             Molecular gradient (au)
                             -----------------------

                         O    y    -0.0410235861
                         H    x     0.0495122402
                         H    y     0.0410235861



 O          0.0000000000           -0.0410235861            0.0000000000
 H   _1     0.0247561201            0.0205117930            0.0000000000
 H   _2    -0.0247561201            0.0205117930            0.0000000000





                              Molecular Hessian (au)
                              ----------------------


           Symmetry 1

           O    y      H    x      H    y

 O    y    0.472256
 H    x   -0.363925    0.780892
 H    y   -0.472256    0.363925    0.472256


           Symmetry 2

           O    x      H    x      H    y

 O    x    0.657731
 H    x   -0.657731    0.657731
 H    y   -0.481023    0.481023    0.406539


           Symmetry 3

           O    z      H    z

 O    z    0.036481
 H    z   -0.036481    0.036481


           Symmetry 4

           H    z

 H    z    0.034091




            O      x    O      y    O      z    H   _1 x    H   _1 y    H   _1 z

 O      x    0.657731
 O      y    0.000000    0.472256
 O      z    0.000000    0.000000    0.036481

 H   _1 x   -0.328866   -0.181963    0.000000    0.359656
 H   _1 y   -0.240512   -0.236128    0.000000    0.211237    0.219699
 H   _1 z    0.000000    0.000000   -0.018240    0.000000    0.000000    0.017643

 H   _2 x   -0.328866    0.181963    0.000000   -0.030790    0.029275    0.000000
 H   _2 y    0.240512   -0.236128    0.000000   -0.029275    0.016429    0.000000
 H   _2 z    0.000000    0.000000   -0.018240    0.000000    0.000000    0.000597


            H   _2 x    H   _2 y    H   _2 z

 H   _2 x    0.359656
 H   _2 y   -0.211237    0.219699
 H   _2 z    0.000000    0.000000    0.017643





                                  Dipole moment
                                  -------------

                 au               Debye          C m (/(10**-30)
              0.887037           2.254623           7.520612


                             Dipole moment components
                             ------------------------

                 au               Debye          C m (/(10**-30)

      y      0.88703692         2.25462282         7.52061221


   Units:   1 a.u. =   2.54175 Debye 
            1 a.u. =   8.47835 (10**-30) C m (SI)




   Interatomic separations (in Angstrom):
   --------------------------------------

            O           H   _1      H   _2
            ------      ------      ------
 O     :    0.000000
 H   _1:    0.972000    0.000000
 H   _2:    0.972000    1.537101    0.000000


  Max    interatomic separation is    1.5371 Angstrom (    2.9047 Bohr)
  between atoms    3 and    2, "H   _2" and "H   _1".

  Min HX interatomic separation is    0.9720 Angstrom (    1.8368 Bohr)


  Bond distances (Angstrom):
  --------------------------

                  atom 1     atom 2       distance
                  ------     ------       --------
  bond distance:  H   _1     O            0.972000
  bond distance:  H   _2     O            0.972000


  Bond angles (degrees):
  ----------------------

                  atom 1     atom 2     atom 3         angle
                  ------     ------     ------         -----
  bond angle:     H   _1     O          H   _2       104.500



 Largest deviation from orthonormality of OMOs:0.297540E-13
 - found for element   15  15


   ***************************************************************************
   ************************* FINAL RESULTS FROM WALK *************************
   ***************************************************************************


 Walk type: trust-region minimization                 

 Iteration number:  0

  Norm of molecular gradient:     0.0612383286

@ Energy at current point:   -76.0514595192

@ Hessian index of totally symmetric representation: 0
@ Hessian index of all representations             : 0

  Index of initial point: 0


   sym        #int        #ext       gradient     index       cond. num.
   ---------------------------------------------------------------------
    1           2           1       6.123833D-02    0          4.59D+00
    2           1           2       0.000000D+00    0          1.00D+00
    3           0           2
    4           0           1



                      +-------------------------------------+
                      ! Analysis in diagonal representation !
                      +-------------------------------------+


@  iter   sym     mode      gradient     eigenvalue       step        energy 
@  ----------------------------------------------------------------------------
@    0     1       1      0.00347443    0.19642467   -0.01768834   -0.00003073 
@    0     1       2     -0.06113969<   0.90240591    0.06775187<  -0.00207116<
@    0     2       1      0.00000000    1.16654588<   0.00000000    0.00000000 

  This is Newton step.


                              +----------------------+
                              ! Hessian eigenvectors !
                              +----------------------+


   sym 1            1           2
  ----------------------------------
   O    y       0.428038    0.695306
   H    x       0.851572   -0.524238
   H    y      -0.302669   -0.491655


   sym 2            1
  ----------------------
   O    x       0.745406
   H    x      -0.527082
   H    y      -0.408110


 Input trust radius:            0.500000
 Updated trust radius:          0.500000
 Level shift employed:          0.0000000000


 Predicted energy change   -0.0021018924


                               +--------------------+
                               ! Change in geometry !
                               +--------------------+



                           Cartesian displacements (au)
                           ----------------------------

 O          0.0000000000            0.0395369775            0.0000000000
 H   _1    -0.0357661438           -0.0197684888            0.0000000000
 H   _2     0.0357661438           -0.0197684888            0.0000000000





   Differential interatomic separations (in Angstrom):
   ---------------------------------------------------

            O           H   _1      H   _2
            ------      ------      ------
 O     :    0.000000
 H   _1:   -0.034085    0.000000
 H   _2:   -0.034085   -0.037853    0.000000


  Max differential change in interatomic separation is    0.037853 Angstrom
  between atoms    3 and    2, "H   _2" and "H   _1".




                              +---------------------+
                              ! Geometry after step !
                              +---------------------+



                            Cartesian coordinates (au)
                            --------------------------

 O          0.0000000000           -0.1853689155            0.0000000000
 H   _1     1.4165838562            0.8798545112            0.0000000000
 H   _2    -1.4165838562            0.8798545112            0.0000000000





   Interatomic separations (in Angstrom):
   --------------------------------------

            O           H   _1      H   _2
            ------      ------      ------
 O     :    0.000000
 H   _1:    0.937915    0.000000
 H   _2:    0.937915    1.499248    0.000000


  Max    interatomic separation is    1.4992 Angstrom (    2.8332 Bohr)
  between atoms    3 and    2, "H   _2" and "H   _1".

  Min HX interatomic separation is    0.9379 Angstrom (    1.7724 Bohr)


  Bond distances (Angstrom):
  --------------------------

                  atom 1     atom 2       distance
                  ------     ------       --------
  bond distance:  H   _1     O            0.937915
  bond distance:  H   _2     O            0.937915


  Bond angles (degrees):
  ----------------------

                  atom 1     atom 2     atom 3         angle
                  ------     ------     ------         -----
  bond angle:     H   _1     O          H   _2       106.116




 CPU time statistics for ABACUS
 ------------------------------




 >>>> Total CPU  time used in ABACUS:   0.17 seconds
 >>>> Total wall time used in ABACUS:   0.17 seconds


                   .-------------------------------------------.
                   | End of Static Property Section (ABACUS) - |
                   `-------------------------------------------'


@  Geometry walk step no.   0:  Molecular energy =    -76.051460   Molecular gradient =  0.061238


     @@>>>>>>>>>> Geometry walk iteration number:    1 <<<<<<<<<<




 **************************************************************************************
 ****************** Output of molecule and basis set info suppressed ******************
 **************************************************************************************



                     .---------------------------------------.
                     | Starting in Integral Section (HERMIT) |
                     `---------------------------------------'



     ************************************************************************
     ************************** Output from HERINT **************************
     ************************************************************************


 Threshold for neglecting two-electron integrals:  1.00D-12
 Number of two-electron integrals written:       57092 ( 25.7% )
 Megabytes written:                              0.660

 >>>> Total CPU  time used in HERMIT:   0.02 seconds
 >>>> Total wall time used in HERMIT:   0.03 seconds


                        .----------------------------------.
                        | End of Integral Section (HERMIT) |
                        `----------------------------------'



                   .--------------------------------------------.
                   | Starting in Wave Function Section (SIRIUS) |
                   `--------------------------------------------'


 **********************************************************************
 *SIRIUS* a direct, restricted step, second order MCSCF program       *
 **********************************************************************

 (Wave function specification suppressed here, see output above for initial geometry.)


 >>>>> DIIS optimization of Hartree-Fock <<<<<

 C1-DIIS algorithm; max error vectors =   10

 Iter      Total energy        Error norm    Delta(E)  DIIS dim.
 -----------------------------------------------------------------------------
     (Precalculated two-electron integrals are transformed to P-supermatrix elements.
      Threshold for discarding integrals :  1.00D-12 )
@  1    -75.9276191738        3.70527D+00    1.24D-01    1
      Virial theorem: -V/T =      1.998550
@      MULPOP O      -1.04; H   _1  0.52; H   _2  0.52; 
 -----------------------------------------------------------------------------
@  2    -76.0522268272        1.71206D-01   -1.25D-01    2
      Virial theorem: -V/T =      1.998498
@      MULPOP O      -0.58; H   _1  0.29; H   _2  0.29; 
 -----------------------------------------------------------------------------
@  3    -76.0532935164        4.44754D-02   -1.07D-03    3
      Virial theorem: -V/T =      2.000581
@      MULPOP O      -0.51; H   _1  0.25; H   _2  0.25; 
 -----------------------------------------------------------------------------
@  4    -76.0533803801        1.83672D-02   -8.69D-05    4
      Virial theorem: -V/T =      1.999466
@      MULPOP O      -0.51; H   _1  0.26; H   _2  0.26; 
 -----------------------------------------------------------------------------
@  5    -76.0533968668        2.15089D-03   -1.65D-05    5
      Virial theorem: -V/T =      1.999819
@      MULPOP O      -0.51; H   _1  0.26; H   _2  0.26; 
 -----------------------------------------------------------------------------
@  6    -76.0533977553        3.65354D-04   -8.88D-07    6
      Virial theorem: -V/T =      1.999833
@      MULPOP O      -0.51; H   _1  0.26; H   _2  0.26; 
 -----------------------------------------------------------------------------
@  7    -76.0533977802        6.92414D-05   -2.49D-08    7
      Virial theorem: -V/T =      1.999836
@      MULPOP O      -0.51; H   _1  0.26; H   _2  0.26; 
 -----------------------------------------------------------------------------
@  8    -76.0533977811        1.12574D-05   -8.33D-10    8
      Virial theorem: -V/T =      1.999836
@      MULPOP O      -0.51; H   _1  0.26; H   _2  0.26; 
 -----------------------------------------------------------------------------
@  9    -76.0533977811        1.87707D-06   -2.04D-11    9

@ *** DIIS converged in   9 iterations !
@     Converged SCF energy, gradient:    -76.053397781076    1.88D-06
    - total time used in SIRFCK :              0.00 seconds


 *** SCF orbital energy analysis ***

 Only the five lowest virtual orbital energies printed in each symmetry.

 Number of electrons :   10
 Orbital occupations :    3    1    1    0

 Sym       Hartree-Fock orbital energies

  1    -20.56241067    -1.36458612    -0.58466230     0.04379882     0.24046760
         0.25348986     0.32179292     0.74743479

  2     -0.73453561     0.07236811     0.26368296     0.31886743     0.69880259
         1.24357842

  3     -0.51126403     0.24525518     1.24393565     1.72839657     3.49414036
         5.49240293

  4      1.50480566     3.56254169

    E(LUMO) :     0.04379882 au (symmetry 1)
  - E(HOMO) :    -0.51126403 au (symmetry 3)
  ------------------------------------------
    gap     :     0.55506285 au

 >>> Writing SIRIFC interface file <<<


 Check ratio for geometry walk with converged SCF :



 >>> step control for geometry walk (ABACUS interface)


 (SIRSTP) Energy difference;
 actual, predicted and ratio:  -0.0019382619  -0.0021018924    0.922151


 *** GEOMETRY WALK STEP ACCEPTED.


 >>>> CPU and wall time for SCF :       0.010       0.010


                       .-----------------------------------.
                       | >>> Final results from SIRIUS <<< |
                       `-----------------------------------'


@    Spin multiplicity:           1
@    Spatial symmetry:            1
@    Total charge of molecule:    0

@    Final HF energy:             -76.053397781076                 
@    Nuclear repulsion:             9.380256467600
@    Electronic energy:           -85.433654248676

@    Final gradient norm:           0.000001877067

 
     Date and time (Linux)  : Sun Sep  8 20:39:46 2013
     Host name              : lpqlx131.ups-tlse.fr                    



 >>>> Total CPU  time used in SIRIUS :      0.01 seconds
 >>>> Total wall time used in SIRIUS :      0.01 seconds

 
     Date and time (Linux)  : Sun Sep  8 20:39:46 2013
     Host name              : lpqlx131.ups-tlse.fr                    


                     .---------------------------------------.
                     | End of Wave Function Section (SIRIUS) |
                     `---------------------------------------'


 Center of mass dipole origin  :    0.000000   -0.066155    0.000000

 Center of mass gauge origin   :    0.000000   -0.066155    0.000000


                 .------------------------------------------------.
                 | Starting in Static Property Section (ABACUS) - |
                 `------------------------------------------------'


 
     Date and time (Linux)  : Sun Sep  8 20:39:46 2013
     Host name              : lpqlx131.ups-tlse.fr                    

 Old LUGDR file opened in ORTREL.


   ***************************************************************************
   ************************ FINAL RESULTS from ABACUS ************************
   ***************************************************************************


 
     Date and time (Linux)  : Sun Sep  8 20:39:47 2013
     Host name              : lpqlx131.ups-tlse.fr                    


                             Molecular geometry (au)
                             -----------------------

 O          0.0000000000           -0.1853689155            0.0000000000
 H   _1     1.4165838562            0.8798545112            0.0000000000
 H   _2    -1.4165838562            0.8798545112            0.0000000000





                        Molecular wave function and energy
                        ----------------------------------

     Spin multiplicity  1     State number       1     Total charge       0

     Total energy        -76.0533977811 au (Hartrees)
                         -2069.51822749 eV
                           -199678.1651 kJ/mol


                             Relativistic corrections
                             ------------------------

     Darwin correction:                          0.1973969262 au
     Mass-velocity correction:                  -0.2489025741 au

     Total relativistic correction:             -0.0515056480 au (0.0677%)
     Non-relativistic + relativistic energy:   -76.1049034291 au




                             Molecular gradient (au)
                             -----------------------

                         O    y     0.0042551328
                         H    x    -0.0068900079
                         H    y    -0.0042551328



 O          0.0000000000            0.0042551328            0.0000000000
 H   _1    -0.0034450039           -0.0021275664            0.0000000000
 H   _2     0.0034450039           -0.0021275664            0.0000000000





                              Molecular Hessian (au)
                              ----------------------


           Symmetry 1

           O    y      H    x      H    y

 O    y    0.538518
 H    x   -0.498203    0.958103
 H    y   -0.538518    0.498203    0.538518


           Symmetry 2

           O    x      H    x      H    y

 O    x    0.829483
 H    x   -0.829483    0.829483
 H    y   -0.626747    0.626747    0.466429


           Symmetry 3

           O    z      H    z

 O    z   -0.003995
 H    z    0.003995   -0.003995


           Symmetry 4

           H    z

 H    z   -0.004864




            O      x    O      y    O      z    H   _1 x    H   _1 y    H   _1 z

 O      x    0.829483
 O      y    0.000000    0.538518
 O      z    0.000000    0.000000   -0.003995

 H   _1 x   -0.414742   -0.249101    0.000000    0.446897
 H   _1 y   -0.313374   -0.269259    0.000000    0.281238    0.251237
 H   _1 z    0.000000    0.000000    0.001997    0.000000    0.000000   -0.002215

 H   _2 x   -0.414742    0.249101    0.000000   -0.032155    0.032136    0.000000
 H   _2 y    0.313374   -0.269259    0.000000   -0.032136    0.018022    0.000000
 H   _2 z    0.000000    0.000000    0.001997    0.000000    0.000000    0.000217


            H   _2 x    H   _2 y    H   _2 z

 H   _2 x    0.446897
 H   _2 y   -0.281238    0.251237
 H   _2 z    0.000000    0.000000   -0.002215





                                  Dipole moment
                                  -------------

                 au               Debye          C m (/(10**-30)
              0.863183           2.193993           7.318374


                             Dipole moment components
                             ------------------------

                 au               Debye          C m (/(10**-30)

      y      0.86318341         2.19399326         7.31837375


   Units:   1 a.u. =   2.54175 Debye 
            1 a.u. =   8.47835 (10**-30) C m (SI)




   Interatomic separations (in Angstrom):
   --------------------------------------

            O           H   _1      H   _2
            ------      ------      ------
 O     :    0.000000
 H   _1:    0.937915    0.000000
 H   _2:    0.937915    1.499248    0.000000


  Max    interatomic separation is    1.4992 Angstrom (    2.8332 Bohr)
  between atoms    3 and    2, "H   _2" and "H   _1".

  Min HX interatomic separation is    0.9379 Angstrom (    1.7724 Bohr)


  Bond distances (Angstrom):
  --------------------------

                  atom 1     atom 2       distance
                  ------     ------       --------
  bond distance:  H   _1     O            0.937915
  bond distance:  H   _2     O            0.937915


  Bond angles (degrees):
  ----------------------

                  atom 1     atom 2     atom 3         angle
                  ------     ------     ------         -----
  bond angle:     H   _1     O          H   _2       106.116



 Largest deviation from orthonormality of OMOs:0.359712E-13
 - found for element   13  13


   ***************************************************************************
   ************************* FINAL RESULTS FROM WALK *************************
   ***************************************************************************


 Walk type: trust-region minimization                 

 Iteration number:  1

  Norm of molecular gradient:     0.0071340968

@ Energy at current point:   -76.0533977811
  Energy at initial point:   -76.0514595192

  Change in energy since start of walk:-0.0019382619 au
                                               -5.09 kJ/mol
                                               -1.22 kCal/mol

@ Ratio between actual and predicted energies:  0.92

@ Hessian index of totally symmetric representation: 0
@ Hessian index of all representations             : 0

  Index of initial point: 0


   sym        #int        #ext       gradient     index       cond. num.
   ---------------------------------------------------------------------
    1           2           1       7.134097D-03    0          6.08D+00
    2           1           2       0.000000D+00    0          1.00D+00
    3           0           2
    4           0           1



                      +-------------------------------------+
                      ! Analysis in diagonal representation !
                      +-------------------------------------+


@  iter   sym     mode      gradient     eigenvalue       step        energy 
@  ----------------------------------------------------------------------------
@    1     1       1     -0.00105435    0.18171131    0.00580232   -0.00000306 
@    1     1       2      0.00705576<   1.10511716   -0.00638462<  -0.00002252<
@    1     2       1      0.00000000    1.48043577<   0.00000000    0.00000000 

  This is Newton step.


                              +----------------------+
                              ! Hessian eigenvectors !
                              +----------------------+


   sym 1            1           2
  ----------------------------------
   O    y       0.463324    0.672308
   H    x       0.823405   -0.567454
   H    y      -0.327620   -0.475393


   sym 2            1
  ----------------------
   O    x       0.748958
   H    x      -0.529593
   H    y      -0.398236


 Old trust radius:              0.500000
 Updated trust radius:          0.500000
 Level shift employed:          0.0000000000


 Predicted energy change   -0.0000255830


                               +--------------------+
                               ! Change in geometry !
                               +--------------------+



                           Cartesian displacements (au)
                           ----------------------------

 O          0.0000000000           -0.0016040735            0.0000000000
 H   _1     0.0059401500            0.0008020367            0.0000000000
 H   _2    -0.0059401500            0.0008020367            0.0000000000





   Differential interatomic separations (in Angstrom):
   ---------------------------------------------------

            O           H   _1      H   _2
            ------      ------      ------
 O     :    0.000000
 H   _1:    0.003278    0.000000
 H   _2:    0.003278    0.006287    0.000000


  Max differential change in interatomic separation is    0.006287 Angstrom
  between atoms    3 and    2, "H   _2" and "H   _1".




                              +---------------------+
                              ! Geometry after step !
                              +---------------------+



                            Cartesian coordinates (au)
                            --------------------------

 O          0.0000000000           -0.1869729889            0.0000000000
 H   _1     1.4225240062            0.8806565480            0.0000000000
 H   _2    -1.4225240062            0.8806565480            0.0000000000





   Interatomic separations (in Angstrom):
   --------------------------------------

            O           H   _1      H   _2
            ------      ------      ------
 O     :    0.000000
 H   _1:    0.941193    0.000000
 H   _2:    0.941193    1.505535    0.000000


  Max    interatomic separation is    1.5055 Angstrom (    2.8450 Bohr)
  between atoms    3 and    2, "H   _2" and "H   _1".

  Min HX interatomic separation is    0.9412 Angstrom (    1.7786 Bohr)


  Bond distances (Angstrom):
  --------------------------

                  atom 1     atom 2       distance
                  ------     ------       --------
  bond distance:  H   _1     O            0.941193
  bond distance:  H   _2     O            0.941193


  Bond angles (degrees):
  ----------------------

                  atom 1     atom 2     atom 3         angle
                  ------     ------     ------         -----
  bond angle:     H   _1     O          H   _2       106.222




 CPU time statistics for ABACUS
 ------------------------------




 >>>> Total CPU  time used in ABACUS:   0.16 seconds
 >>>> Total wall time used in ABACUS:   0.16 seconds


                   .-------------------------------------------.
                   | End of Static Property Section (ABACUS) - |
                   `-------------------------------------------'


@  Geometry walk step no.   1:  Molecular energy =    -76.053398   Molecular gradient =  0.007134


     @@>>>>>>>>>> Geometry walk iteration number:    2 <<<<<<<<<<




 **************************************************************************************
 ****************** Output of molecule and basis set info suppressed ******************
 **************************************************************************************



                     .---------------------------------------.
                     | Starting in Integral Section (HERMIT) |
                     `---------------------------------------'



     ************************************************************************
     ************************** Output from HERINT **************************
     ************************************************************************


 Threshold for neglecting two-electron integrals:  1.00D-12
 Number of two-electron integrals written:       57092 ( 25.7% )
 Megabytes written:                              0.660

 >>>> Total CPU  time used in HERMIT:   0.02 seconds
 >>>> Total wall time used in HERMIT:   0.03 seconds


                        .----------------------------------.
                        | End of Integral Section (HERMIT) |
                        `----------------------------------'



                   .--------------------------------------------.
                   | Starting in Wave Function Section (SIRIUS) |
                   `--------------------------------------------'


 **********************************************************************
 *SIRIUS* a direct, restricted step, second order MCSCF program       *
 **********************************************************************

 (Wave function specification suppressed here, see output above for initial geometry.)


 >>>>> DIIS optimization of Hartree-Fock <<<<<

 C1-DIIS algorithm; max error vectors =   10

 Iter      Total energy        Error norm    Delta(E)  DIIS dim.
 -----------------------------------------------------------------------------
     (Precalculated two-electron integrals are transformed to P-supermatrix elements.
      Threshold for discarding integrals :  1.00D-12 )
@  1    -76.0522122205        3.68460D-01    1.19D-03    1
      Virial theorem: -V/T =      1.999865
@      MULPOP O      -0.45; H   _1  0.23; H   _2  0.23; 
 -----------------------------------------------------------------------------
@  2    -76.0534150515        1.52010D-02   -1.20D-03    2
      Virial theorem: -V/T =      2.000049
@      MULPOP O      -0.51; H   _1  0.25; H   _2  0.25; 
 -----------------------------------------------------------------------------
@  3    -76.0534233010        1.58866D-03   -8.25D-06    3
      Virial theorem: -V/T =      2.000016
@      MULPOP O      -0.51; H   _1  0.26; H   _2  0.26; 
 -----------------------------------------------------------------------------
@  4    -76.0534235265        5.72814D-04   -2.25D-07    4
      Virial theorem: -V/T =      2.000032
@      MULPOP O      -0.51; H   _1  0.26; H   _2  0.26; 
 -----------------------------------------------------------------------------
@  5    -76.0534235455        1.83837D-04   -1.91D-08    5
      Virial theorem: -V/T =      2.000019
@      MULPOP O      -0.51; H   _1  0.26; H   _2  0.26; 
 -----------------------------------------------------------------------------
@  6    -76.0534235496        3.71288D-05   -4.14D-09    6
      Virial theorem: -V/T =      2.000020
@      MULPOP O      -0.51; H   _1  0.26; H   _2  0.26; 
 -----------------------------------------------------------------------------
@  7    -76.0534235499        7.97410D-06   -2.33D-10    7

@ *** DIIS converged in   7 iterations !
@     Converged SCF energy, gradient:    -76.053423549876    7.97D-06
    - total time used in SIRFCK :              0.00 seconds


 *** SCF orbital energy analysis ***

 Only the five lowest virtual orbital energies printed in each symmetry.

 Number of electrons :   10
 Orbital occupations :    3    1    1    0

 Sym       Hartree-Fock orbital energies

  1    -20.56296203    -1.36274108    -0.58384113     0.04372560     0.24065312
         0.25257632     0.32199934     0.74463334

  2     -0.73289086     0.07232023     0.26324500     0.31877773     0.69703336
         1.24368850

  3     -0.51094950     0.24531030     1.24402036     1.72808575     3.49052813
         5.49202783

  4      1.50362800     3.55947123

    E(LUMO) :     0.04372560 au (symmetry 1)
  - E(HOMO) :    -0.51094950 au (symmetry 3)
  ------------------------------------------
    gap     :     0.55467510 au

 >>> Writing SIRIFC interface file <<<


 Check ratio for geometry walk with converged SCF :



 >>> step control for geometry walk (ABACUS interface)


 (SIRSTP) Energy difference;
 actual, predicted and ratio:  -0.0000257688  -0.0000255830    1.007263


 *** GEOMETRY WALK STEP ACCEPTED.


 >>>> CPU and wall time for SCF :       0.008       0.008


                       .-----------------------------------.
                       | >>> Final results from SIRIUS <<< |
                       `-----------------------------------'


@    Spin multiplicity:           1
@    Spatial symmetry:            1
@    Total charge of molecule:    0

@    Final HF energy:             -76.053423549876                 
@    Nuclear repulsion:             9.347342389982
@    Electronic energy:           -85.400765939858

@    Final gradient norm:           0.000007974098

 
     Date and time (Linux)  : Sun Sep  8 20:39:47 2013
     Host name              : lpqlx131.ups-tlse.fr                    



 >>>> Total CPU  time used in SIRIUS :      0.01 seconds
 >>>> Total wall time used in SIRIUS :      0.01 seconds

 
     Date and time (Linux)  : Sun Sep  8 20:39:47 2013
     Host name              : lpqlx131.ups-tlse.fr                    


                     .---------------------------------------.
                     | End of Wave Function Section (SIRIUS) |
                     `---------------------------------------'


 Center of mass dipole origin  :    0.000000   -0.067489    0.000000

 Center of mass gauge origin   :    0.000000   -0.067489    0.000000


                 .------------------------------------------------.
                 | Starting in Static Property Section (ABACUS) - |
                 `------------------------------------------------'


 
     Date and time (Linux)  : Sun Sep  8 20:39:47 2013
     Host name              : lpqlx131.ups-tlse.fr                    

 Old LUGDR file opened in ORTREL.


   ***************************************************************************
   ************************ FINAL RESULTS from ABACUS ************************
   ***************************************************************************


 
     Date and time (Linux)  : Sun Sep  8 20:39:47 2013
     Host name              : lpqlx131.ups-tlse.fr                    


                             Molecular geometry (au)
                             -----------------------

 O          0.0000000000           -0.1869729889            0.0000000000
 H   _1     1.4225240062            0.8806565480            0.0000000000
 H   _2    -1.4225240062            0.8806565480            0.0000000000





                        Molecular wave function and energy
                        ----------------------------------

     Spin multiplicity  1     State number       1     Total charge       0

     Total energy        -76.0534235499 au (Hartrees)
                         -2069.51892870 eV
                           -199678.2327 kJ/mol


                             Relativistic corrections
                             ------------------------

     Darwin correction:                          0.1973997331 au
     Mass-velocity correction:                  -0.2489049568 au

     Total relativistic correction:             -0.0515052237 au (0.0677%)
     Non-relativistic + relativistic energy:   -76.1049287736 au




                             Molecular gradient (au)
                             -----------------------

                         O    y     0.0000536601
                         H    x    -0.0000722477
                         H    y    -0.0000536601



 O          0.0000000000            0.0000536601            0.0000000000
 H   _1    -0.0000361238           -0.0000268301            0.0000000000
 H   _2     0.0000361238           -0.0000268301            0.0000000000





                              Molecular Hessian (au)
                              ----------------------


           Symmetry 1

           O    y      H    x      H    y

 O    y    0.529833
 H    x   -0.483507    0.940026
 H    y   -0.529833    0.483507    0.529833


           Symmetry 2

           O    x      H    x      H    y

 O    x    0.813707
 H    x   -0.813707    0.813707
 H    y   -0.610739    0.610739    0.458320


           Symmetry 3

           O    z      H    z

 O    z   -0.000050
 H    z    0.000050   -0.000050


           Symmetry 4

           H    z

 H    z   -0.000051




            O      x    O      y    O      z    H   _1 x    H   _1 y    H   _1 z

 O      x    0.813707
 O      y    0.000000    0.529833
 O      z    0.000000    0.000000   -0.000050

 H   _1 x   -0.406853   -0.241754    0.000000    0.438433
 H   _1 y   -0.305370   -0.264917    0.000000    0.273562    0.247038
 H   _1 z    0.000000    0.000000    0.000025    0.000000    0.000000   -0.000025

 H   _2 x   -0.406853    0.241754    0.000000   -0.031580    0.031808    0.000000
 H   _2 y    0.305370   -0.264917    0.000000   -0.031808    0.017878    0.000000
 H   _2 z    0.000000    0.000000    0.000025    0.000000    0.000000    0.000000


            H   _2 x    H   _2 y    H   _2 z

 H   _2 x    0.438433
 H   _2 y   -0.273562    0.247038
 H   _2 z    0.000000    0.000000   -0.000025





                                  Dipole moment
                                  -------------

                 au               Debye          C m (/(10**-30)
              0.863915           2.195852           7.324574


                             Dipole moment components
                             ------------------------

                 au               Debye          C m (/(10**-30)

      y      0.86391474         2.19585209         7.32457415


   Units:   1 a.u. =   2.54175 Debye 
            1 a.u. =   8.47835 (10**-30) C m (SI)




   Interatomic separations (in Angstrom):
   --------------------------------------

            O           H   _1      H   _2
            ------      ------      ------
 O     :    0.000000
 H   _1:    0.941193    0.000000
 H   _2:    0.941193    1.505535    0.000000


  Max    interatomic separation is    1.5055 Angstrom (    2.8450 Bohr)
  between atoms    3 and    2, "H   _2" and "H   _1".

  Min HX interatomic separation is    0.9412 Angstrom (    1.7786 Bohr)


  Bond distances (Angstrom):
  --------------------------

                  atom 1     atom 2       distance
                  ------     ------       --------
  bond distance:  H   _1     O            0.941193
  bond distance:  H   _2     O            0.941193


  Bond angles (degrees):
  ----------------------

                  atom 1     atom 2     atom 3         angle
                  ------     ------     ------         -----
  bond angle:     H   _1     O          H   _2       106.222




   ***************************************************************************
   ************************* FINAL RESULTS FROM WALK *************************
   ***************************************************************************


 Walk type: trust-region minimization                 

 Iteration number:  2

  Norm of molecular gradient:     0.0000832405

@ Energy at current point:   -76.0534235499
  Energy at initial point:   -76.0514595192

  Change in energy since start of walk:-0.0019640307 au
                                               -5.16 kJ/mol
                                               -1.23 kCal/mol

@ Ratio between actual and predicted energies:  1.01

@ Hessian index of totally symmetric representation: 0
@ Hessian index of all representations             : 0

@ Geometry optimization has converged.


   sym        #int        #ext       gradient     index       cond. num.
   ---------------------------------------------------------------------
    1           2           1       8.324047D-05    0          5.90D+00
    2           1           2       0.000000D+00    0          1.00D+00
    3           0           2
    4           0           1



                +-------------------------------------------------+
                ! Gradient and Hessian in diagonal representation !
                +-------------------------------------------------+


           @sym        mode          gradient        eigenvalue    
           @-------------------------------------------------------
            @ 1           1        -0.0000050189     0.1832734542
            @ 1           2         0.0000830890     1.0814897093
            @ 2           1         0.0000000000     1.4497533226


                              +----------------------+
                              ! Hessian eigenvectors !
                              +----------------------+


   sym 1            1           2
  ----------------------------------
   O    y       0.461326    0.673680
   H    x       0.825087   -0.565006
   H    y      -0.326207   -0.476364


   sym 2            1
  ----------------------
   O    x       0.749187
   H    x      -0.529755
   H    y      -0.397591



                                 +----------------+
                                 ! Final geometry !
                                 +----------------+



                            Cartesian coordinates (au)
                            --------------------------

 O          0.0000000000           -0.1869729889            0.0000000000
 H   _1     1.4225240062            0.8806565480            0.0000000000
 H   _2    -1.4225240062            0.8806565480            0.0000000000





   Interatomic separations (in Angstrom):
   --------------------------------------

            O           H   _1      H   _2
            ------      ------      ------
 O     :    0.000000
 H   _1:    0.941193    0.000000
 H   _2:    0.941193    1.505535    0.000000


  Max    interatomic separation is    1.5055 Angstrom (    2.8450 Bohr)
  between atoms    3 and    2, "H   _2" and "H   _1".

  Min HX interatomic separation is    0.9412 Angstrom (    1.7786 Bohr)


  Bond distances (Angstrom):
  --------------------------

                  atom 1     atom 2       distance
                  ------     ------       --------
  bond distance:  H   _1     O            0.941193
  bond distance:  H   _2     O            0.941193


  Bond angles (degrees):
  ----------------------

                  atom 1     atom 2     atom 3         angle
                  ------     ------     ------         -----
  bond angle:     H   _1     O          H   _2       106.222




 CPU time statistics for ABACUS
 ------------------------------




 >>>> Total CPU  time used in ABACUS:   0.16 seconds
 >>>> Total wall time used in ABACUS:   0.16 seconds


                   .-------------------------------------------.
                   | End of Static Property Section (ABACUS) - |
                   `-------------------------------------------'


@  Geometry walk step no.   2:  Molecular energy =    -76.053424   Molecular gradient =  0.000083


                          .-----------------------------.
                          | Geometry walk has converged |
                          `-----------------------------'



        *****************************************************************
        ******** Output from **PROPE input processing for ABACUS ********
        *****************************************************************



 The following molecular properties will be calculated in this run:
 ------------------------------------------------------------------

 Default print level:        0

      Vibrational analysis
      Cioslowski population analysis and static polarizabilities only.
      Dynamic electric dipole polarizability
      Natural orbital connection is used
      for perturbation dependent basis sets.
      Linear response properties


 Changes of defaults for *ABALNR:
 --------------------------------

 Number of frequencies     :   3
 Frequencies               :  0.000000  0.059200  0.096000
 Print level                    :   0
 Lin Resp convergence threshold :  5.00D-05
 Max. Lin Resp iterations       :  60

 Center of mass dipole origin  :    0.000000   -0.067489    0.000000

 Center of mass gauge origin   :    0.000000   -0.067489    0.000000


                 .------------------------------------------------.
                 | Starting in Static Property Section (ABACUS) - |
                 `------------------------------------------------'


 
     Date and time (Linux)  : Sun Sep  8 20:39:47 2013
     Host name              : lpqlx131.ups-tlse.fr                    

 Old LUGDR file opened in ORTREL.


     ***********************************************************************
     ****************** Solving Linear Response Equations ******************
     ***********************************************************************


 Integral transformation: Total CPU and WALL times (sec)       0.011       0.011


   ***************************************************************************
   ************************ FINAL RESULTS from ABACUS ************************
   ***************************************************************************


 
     Date and time (Linux)  : Sun Sep  8 20:39:47 2013
     Host name              : lpqlx131.ups-tlse.fr                    


                             Molecular geometry (au)
                             -----------------------

 O          0.0000000000           -0.1869729889            0.0000000000
 H   _1     1.4225240062            0.8806565480            0.0000000000
 H   _2    -1.4225240062            0.8806565480            0.0000000000





                        Molecular wave function and energy
                        ----------------------------------

     Spin multiplicity  1     State number       1     Total charge       0

     Total energy        -76.0534235499 au (Hartrees)
                         -2069.51892870 eV
                           -199678.2327 kJ/mol


                             Relativistic corrections
                             ------------------------

     Darwin correction:                          0.1973997331 au
     Mass-velocity correction:                  -0.2489049568 au

     Total relativistic correction:             -0.0515052237 au (0.0677%)
     Non-relativistic + relativistic energy:   -76.1049287736 au




                                  Dipole moment
                                  -------------

                 au               Debye          C m (/(10**-30)
              0.863915           2.195852           7.324574


                             Dipole moment components
                             ------------------------

                 au               Debye          C m (/(10**-30)

      y      0.86391474         2.19585209         7.32457415


   Units:   1 a.u. =   2.54175 Debye 
            1 a.u. =   8.47835 (10**-30) C m (SI)




                           Dipole moment gradient (au)
                           ---------------------------


    Symmetry 1
                       Ey

        O    y    -0.44820288
        H    x    -0.05948312
        H    y     0.44820288

    Symmetry 2
                       Ex

        O    x    -0.59855782
        H    x     0.59855782
        H    y    -0.15808291

    Symmetry 3
                       Ez

        O    z    -0.80918962
        H    z     0.80918962



                       Ex             Ey             Ez

      O      x    -0.59855782     0.00000000     0.00000000
      O      y     0.00000000    -0.44820288     0.00000000
      O      z     0.00000000     0.00000000    -0.80918962

      H   _1 x     0.29927891    -0.02974156     0.00000000
      H   _1 y    -0.07904145     0.22410144     0.00000000
      H   _1 z     0.00000000     0.00000000     0.40459481

      H   _2 x     0.29927891     0.02974156     0.00000000
      H   _2 y     0.07904145     0.22410144     0.00000000
      H   _2 z     0.00000000     0.00000000     0.40459481



                            +-------------------------+
                            ! APT Population Analysis !
                            +-------------------------+


      [ Reference : J. Cioslowski, J.Am.Chem.Soc. 111 (1989) 8333 ]

                            O        -0.618650
                            H   _1    0.309325
                            H   _2    0.309325



                           Static polarizabilities (au)
                           ----------------------------

                         Ex          Ey          Ez

            Ex       7.419984    0.000000    0.000000
            Ey       0.000000    5.849029    0.000000
            Ez       0.000000    0.000000    5.501168



                      Static polarizabilities (angstroms**3)
                      --------------------------------------

                         Ex          Ey          Ez

            Ex       1.099528    0.000000    0.000000
            Ey       0.000000    0.866737    0.000000
            Ez       0.000000    0.000000    0.815189



                +--------------------------------------------------+
                ! Principal values and axes of polarizability (au) !
                +--------------------------------------------------+



         sym         value             x          y          z
         -----------------------------------------------------

          1         5.8490          0.0000     1.0000     0.0000
          2         7.4200          1.0000     0.0000     0.0000
          3         5.5012          0.0000     0.0000     1.0000


            Mean value:    6.2567        Anisotropy:    1.7707





    ++++++++++++++++++++++++++++++++++++++++++++++++++++++++++++++++++++++++++
    ++++++++++++++++++ Frequency dependent polarizabilities ++++++++++++++++++
    ++++++++++++++++++++++++++++++++++++++++++++++++++++++++++++++++++++++++++


          Polarizability tensor for frequency     0.000000 au
          ----------------------------------------------------
                            Ex             Ey             Ez

                Ex    7.419984       0.000000       0.000000    
                Ey    0.000000       5.849029       0.000000    
                Ez    0.000000       0.000000       5.501168    

Isotropic polarizability:   6.256727    

          Polarizability tensor for frequency     0.059200 au
          ----------------------------------------------------
                            Ex             Ey             Ez

                Ex    7.477649       0.000000       0.000000    
                Ey    0.000000       5.908100       0.000000    
                Ez    0.000000       0.000000       5.576149    

Isotropic polarizability:   6.320633    

          Polarizability tensor for frequency     0.096000 au
          ----------------------------------------------------
                            Ex             Ey             Ez

                Ex    7.574280       0.000000       0.000000    
                Ey    0.000000       6.008982       0.000000    
                Ez    0.000000       0.000000       5.707157    

Isotropic polarizability:   6.430140    


   Interatomic separations (in Angstrom):
   --------------------------------------

            O           H   _1      H   _2
            ------      ------      ------
 O     :    0.000000
 H   _1:    0.941193    0.000000
 H   _2:    0.941193    1.505535    0.000000


  Max    interatomic separation is    1.5055 Angstrom (    2.8450 Bohr)
  between atoms    3 and    2, "H   _2" and "H   _1".

  Min HX interatomic separation is    0.9412 Angstrom (    1.7786 Bohr)


  Bond distances (Angstrom):
  --------------------------

                  atom 1     atom 2       distance
                  ------     ------       --------
  bond distance:  H   _1     O            0.941193
  bond distance:  H   _2     O            0.941193


  Bond angles (degrees):
  ----------------------

                  atom 1     atom 2     atom 3         angle
                  ------     ------     ------         -----
  bond angle:     H   _1     O          H   _2       106.222




   ****************************************************************************
   *************** ABACUS - ROTATIONAL AND VIBRATIONAL ANALYSIS ***************
   ****************************************************************************


 Norm of (unprojected) molecular gradient (au) :     0.00000000


 Conversion factors used:

    Hartree to (cm)-1      : 219474.62934
    a.m.u.  to a.u.        :   1822.88848
    Bohr    to Angstrom    :  0.529177211
    a.u.    to A**4amu-1   :   142.943572
    a.u.    to km (mol)-1  :      974.864


 Vibrational analysis for parent molecule only.
  Norm of projected gradient     0.000000


                         Isotopic Molecule No. 1
                         ======================= 


                                 Isotopic Masses
                                 ---------------

                           O          15.994915
                           H   _1      1.007825
                           H   _2      1.007825

                       Total mass:    18.010565 amu
                       Natural abundance:  99.730 %

 Center-of-mass coordinates (a.u.):    0.000000   -0.067489    0.000000


 Principal moments of inertia (u*A**2) and principal axes
 --------------------------------------------------------

   IA       0.571364          1.000000    0.000000    0.000000
   IB       1.142185          0.000000    1.000000    0.000000
   IC       1.713550          0.000000    0.000000    1.000000


 Rotational constants
 --------------------

 The molecule is planar.

               A                   B                   C

         884512.6492         442466.7088         294931.0390 MHz
           29.504166           14.759101            9.837841 cm-1



  Vibrational Frequencies and IR Intensities
  ------------------------------------------



  mode   irrep        frequency             IR intensity
  ============================================================
                 cm-1       hartrees     km/mol   (D/A)**2/amu
  ------------------------------------------------------------

   2      A1     4143.10    0.018877     25.492   0.6033
   3      A1     1726.12    0.007865     85.621   2.0263

   1      B2     4245.09    0.019342     88.297   2.0896






  Normal Coordinates (bohrs*amu**(1/2)):
  --------------------------------------


                1  4245     2  4143     3  1726 
  ----------------------------------------------

    O      x   -0.068292    0.000000    0.000000
    O      y    0.000000    0.048869   -0.067888
    O      z    0.000000    0.000000    0.000000

    H   _1 x    0.541926   -0.571652   -0.411499
    H   _1 y    0.406725   -0.387790    0.538715
    H   _1 z    0.000000    0.000000    0.000000

    H   _2 x    0.541926    0.571652    0.411499
    H   _2 y   -0.406725   -0.387790    0.538715
    H   _2 z    0.000000    0.000000    0.000000




  Dipole Gradient in Normal Coordinate Basis (D/(A*amu**(1/2)))
  -------------------------------------------------------------


  mode           dMA/dQi        dMB/dQi        dMC/dQi
  ----------------------------------------------------
   1            1.445546      -0.000000       0.000000
   2           -0.000000      -0.776716       0.000000
   3           -0.000000       1.423471       0.000000



                              Total Molecular Energy
                              ----------------------

             electronic     vibrational           total    energy 

             -76.053424        0.023042      -76.030381    Hartrees
           -16691796.94         5057.15    -16686739.79    cm-1
             -199678.23           60.50      -199617.74    kJ/mol
              -47724.24           14.46       -47709.78    kcal/mol


                          Molecular Partition Functions
                          -----------------------------

 Qtran is evaluated per mol at 1 atm. pressure.
 Qrot does not include symmetry numbers.
 Qvib does not include zero point energies
 (i.e., energy scale has vibrational ground state as zero).


 Temp.(K)  Translational     Rotational    Vibrational      Total

    50.00     3.4600D+04           6.07         1.0000   2.100653D+05
   100.00     1.9573D+05          16.43         1.0000   3.216138D+06
   200.00     1.1072D+06          45.43         1.0000   5.029916D+07
   273.15     2.4136D+06          72.06         1.0001   1.739418D+08
   298.15     3.0043D+06          82.06         1.0002   2.465900D+08
   300.00     3.0511D+06          82.82         1.0003   2.527464D+08
   400.00     6.2633D+06         127.01         1.0020   7.971134D+08
   500.00     1.0942D+07         177.09         1.0070   1.951244D+09
   600.00     1.7260D+07         232.43         1.0163   4.076933D+09
   700.00     2.5375D+07         292.56         1.0300   7.646539D+09
   800.00     3.5431D+07         357.15         1.0481   1.326228D+10
   900.00     4.7562D+07         425.89         1.0702   2.167872D+10
  1000.00     6.1895D+07         498.54         1.0963   3.382902D+10
  1500.00     1.7056D+08         914.45         1.2816   1.998862D+11
  2000.00     3.5013D+08        1406.78         1.5548   7.658204D+11


                                +------------------+
                                ! Polarizabilities !
                                +------------------+


 Vibrational polarizabilities calculated acc. to Rinaldi et al.,
 Chem.Phys.Lett. 128 (1986) 177-181.


                        Vibrational Polarizabilities (au)
                        ---------------------------------

                         Ex          Ey          Ez

            Ex       0.132812    0.000000    0.000000
            Ey       0.000000    0.819190    0.000000
            Ez       0.000000    0.000000    0.000000



                   Vibrational Polarizabilities (angstroms**3)
                   -------------------------------------------

                         Ex          Ey          Ez

            Ex       0.019681    0.000000    0.000000
            Ey       0.000000    0.121391    0.000000
            Ez       0.000000    0.000000    0.000000



                   Vibrational Polarizabilities (angstroms**3)
                   -------------------------------------------

               (Along principal axes of moments of inertia)

                         EA          EB          EC

            EA       0.019681    0.000000    0.000000
            EB       0.000000    0.121391    0.000000
            EC       0.000000    0.000000    0.000000



 Vibrational mean polarization :    0.1188 cm**3 mol**-1


                    Electronic Polarizabilities (angstroms**3)
                    ------------------------------------------

               (Along principal axes of moments of inertia)

                         EA          EB          EC

            EA       1.099528    0.000000    0.000000
            EB       0.000000    0.866737    0.000000
            EC       0.000000    0.000000    0.815189



                      Total Polarizabilities (angstroms**3)
                      -------------------------------------

               (Along principal axes of moments of inertia)

                         EA          EB          EC

            EA       1.119209    0.000000    0.000000
            EB       0.000000    0.988128    0.000000
            EC       0.000000    0.000000    0.815189



 CPU time statistics for ABACUS
 ------------------------------

 REST       00:00:01     706 %



 >>>> Total CPU  time used in ABACUS:   0.16 seconds
 >>>> Total wall time used in ABACUS:   0.16 seconds


                   .-------------------------------------------.
                   | End of Static Property Section (ABACUS) - |
                   `-------------------------------------------'



                 .------------------------------------------------.
                 | Starting in Dynamic Property Section (RESPONS) |
                 `------------------------------------------------'


 ------------------------------------------------------------------------------
  RESPONSE  -  an MCSCF, MC-srDFT, DFT, and SOPPA response property program
 ------------------------------------------------------------------------------


 <<<<<<<<<< OUTPUT FROM RESPONSE INPUT PROCESSING >>>>>>>>>>




 Linear Response calculation
 ---------------------------

 Print level                                    : IPRLR  = -12
 Maximum number of iterations                   : MAXITL =  60
 Threshold for relative convergence             : THCLR  = 5.000D-05
 Maximum iterations in optimal orbital algorithm: MAXITO =   5

  2 B-frequencies  0.000000D+00  5.920000D-02

    1 second order properties calculated with symmetry no.    1 and labels:

          YDIPLEN 

    1 second order properties calculated with symmetry no.    2 and labels:

          XDIPLEN 

    1 second order properties calculated with symmetry no.    3 and labels:

          ZDIPLEN 

 TRACTL_1: Integral transformation abandoned,
           the required MO integrals are already available.


   SCF energy         :      -76.053423549876101
 -- inactive part     :      -85.400765939858360
 -- nuclear repulsion :        9.347342389982263


                     ***************************************
                     *** RHF response calculation (TDHF) ***
                     ***************************************



 >>>>>>>>>> Linear response calculation
 >>>>>>>>>> Symmetry of excitation/property operator(s)    1

 Number of excitations of this symmetry            0
 Number of response properties of this symmetry    1
 Number of C6/C8 properties of this symmetry       0


 Perturbation symmetry.     KSYMOP:       1
 Perturbation spin symmetry.TRPLET:       F
 Orbital variables.         KZWOPT:      57
 Configuration variables.   KZCONF:       0
 Total number of variables. KZVAR :      57


 RSPLR -- linear response calculation for symmetry  1
 RSPLR -- operator label : YDIPLEN 
 RSPLR -- operator spin  :   0
 RSPLR -- frequencies :   0.000000  0.059200
 FREQ 2    0.0000000000000000        5.9200000000000003E-002

 Converged solution vector already on file
    YDIPLEN       freq              0.000000
 -----------------------------------------

 Converged solution vector already on file
    YDIPLEN       freq              0.059200
 -----------------------------------------

@ INFO >>>>> Linear response functions calculated using presolved response vectors

@ INFO >>>>> These results will not have quadratic accuracy
 
 ======================================================================
 >>>>>>>>    L I N E A R   R E S P O N S E   F U N C T I O N   <<<<<<<<
 ======================================================================

 Linear response function in a.u.
 A operator, symmetry, frequency:   YDIPLEN    1 -0.000000
 B operator, symmetry, frequency:   YDIPLEN    1  0.000000

 Value of linear response -<<A;B>>(omega):       5.849028758100

 Linear response function in a.u.
 A operator, symmetry, frequency:   YDIPLEN    1 -0.059200
 B operator, symmetry, frequency:   YDIPLEN    1  0.059200

 Value of linear response -<<A;B>>(omega):       5.908100434650


 >>>>>>>>>> Linear response calculation
 >>>>>>>>>> Symmetry of excitation/property operator(s)    2

 Number of excitations of this symmetry            0
 Number of response properties of this symmetry    1
 Number of C6/C8 properties of this symmetry       0


 RSPLR -- linear response calculation for symmetry  2
 RSPLR -- operator label : XDIPLEN 
 RSPLR -- operator spin  :   0
 RSPLR -- frequencies :   0.000000  0.059200
 FREQ 2    0.0000000000000000        5.9200000000000003E-002

 Converged solution vector already on file
    XDIPLEN       freq              0.000000
 -----------------------------------------

 Converged solution vector already on file
    XDIPLEN       freq              0.059200
 -----------------------------------------

@ INFO >>>>> Linear response functions calculated using presolved response vectors

@ INFO >>>>> These results will not have quadratic accuracy
 
 ======================================================================
 >>>>>>>>    L I N E A R   R E S P O N S E   F U N C T I O N   <<<<<<<<
 ======================================================================

 Linear response function in a.u.
 A operator, symmetry, frequency:   XDIPLEN    2 -0.000000
 B operator, symmetry, frequency:   XDIPLEN    2  0.000000

 Value of linear response -<<A;B>>(omega):       7.419984199300

 Linear response function in a.u.
 A operator, symmetry, frequency:   XDIPLEN    2 -0.059200
 B operator, symmetry, frequency:   XDIPLEN    2  0.059200

 Value of linear response -<<A;B>>(omega):       7.477649188543


 >>>>>>>>>> Linear response calculation
 >>>>>>>>>> Symmetry of excitation/property operator(s)    3

 Number of excitations of this symmetry            0
 Number of response properties of this symmetry    1
 Number of C6/C8 properties of this symmetry       0


 RSPLR -- linear response calculation for symmetry  3
 RSPLR -- operator label : ZDIPLEN 
 RSPLR -- operator spin  :   0
 RSPLR -- frequencies :   0.000000  0.059200
 FREQ 2    0.0000000000000000        5.9200000000000003E-002

 Converged solution vector already on file
    ZDIPLEN       freq              0.000000
 -----------------------------------------

 Converged solution vector already on file
    ZDIPLEN       freq              0.059200
 -----------------------------------------

@ INFO >>>>> Linear response functions calculated using presolved response vectors

@ INFO >>>>> These results will not have quadratic accuracy
 
 ======================================================================
 >>>>>>>>    L I N E A R   R E S P O N S E   F U N C T I O N   <<<<<<<<
 ======================================================================

 Linear response function in a.u.
 A operator, symmetry, frequency:   ZDIPLEN    3 -0.000000
 B operator, symmetry, frequency:   ZDIPLEN    3  0.000000

 Value of linear response -<<A;B>>(omega):       5.501167527124

 Linear response function in a.u.
 A operator, symmetry, frequency:   ZDIPLEN    3 -0.059200
 B operator, symmetry, frequency:   ZDIPLEN    3  0.059200

 Value of linear response -<<A;B>>(omega):       5.576149123969

 >>>> Total CPU  time used in RESPONSE:   0.00 seconds
 >>>> Total wall time used in RESPONSE:   0.00 seconds


                   .-------------------------------------------.
                   | End of Dynamic Property Section (RESPONS) |
                   `-------------------------------------------'

 >>>> Total CPU  time used in DALTON:   0.77 seconds
 >>>> Total wall time used in DALTON:   0.78 seconds

 
     Date and time (Linux)  : Sun Sep  8 20:39:47 2013
     Host name              : lpqlx131.ups-tlse.fr                    
