

     ************************************************************************
     *************** Dalton - An Electronic Structure Program ***************
     ************************************************************************

    This is output from DALTON (Release Dalton2013 patch 0)
   ----------------------------------------------------------------------------
    NOTE:
     
    Dalton is an experimental code for the evaluation of molecular
    properties using (MC)SCF, DFT, CI, and CC wave functions.
    The authors accept no responsibility for the performance of
    the code or for the correctness of the results.
     
    The code (in whole or part) is provided under a licence and
    is not to be reproduced for further distribution without
    the written permission of the authors or their representatives.
     
    See the home page "http://daltonprogram.org" for further information.
     
    If results obtained with this code are published,
    the appropriate citations would be both of:
     
       K. Aidas, C. Angeli, K. L. Bak, V. Bakken, R. Bast,
       L. Boman, O. Christiansen, R. Cimiraglia, S. Coriani,
       P. Dahle, E. K. Dalskov, U. Ekstroem, T. Enevoldsen,
       J. J. Eriksen, P. Ettenhuber, B. Fernandez, L. Ferrighi,
       H. Fliegl, L. Frediani, K. Hald, A. Halkier, C. Haettig,
       H. Heiberg, T. Helgaker, A. C. Hennum, H. Hettema,
       E. Hjertenaes, S. Hoest, I.-M. Hoeyvik, M. F. Iozzi,
       B. Jansik, H. J. Aa. Jensen, D. Jonsson, P. Joergensen,
       J. Kauczor, S. Kirpekar, T. Kjaergaard, W. Klopper,
       S. Knecht, R. Kobayashi, H. Koch, J. Kongsted, A. Krapp,
       K. Kristensen, A. Ligabue, O. B. Lutnaes, J. I. Melo,
       K. V. Mikkelsen, R. H. Myhre, C. Neiss, C. B. Nielsen,
       P. Norman, J. Olsen, J. M. H. Olsen, A. Osted,
       M. J. Packer, F. Pawlowski, T. B. Pedersen, P. F. Provasi,
       S. Reine, Z. Rinkevicius, T. A. Ruden, K. Ruud, V. Rybkin,
       P. Salek, C. C. M. Samson, A. Sanchez de Meras, T. Saue,
       S. P. A. Sauer, B. Schimmelpfennig, K. Sneskov,
       A. H. Steindal, K. O. Sylvester-Hvid, P. R. Taylor,
       A. M. Teale, E. I. Tellgren, D. P. Tew, A. J. Thorvaldsen,
       L. Thoegersen, O. Vahtras, M. A. Watson, D. J. D. Wilson,
       M. Ziolkowski and H. Agren.
       The Dalton quantum chemistry program system.
       WIREs Comput. Mol. Sci. 2013. doi: 10.1002/wcms.1172
    
    and
    
       Dalton, a Molecular Electronic Structure Program,
       Release DALTON2013.0 (2013), see http://daltonprogram.org
   ----------------------------------------------------------------------------

    Authors in alphabetical order (major contribution(s) in parenthesis):

  Kestutis Aidas,           Vilnius University,           Lithuania   (QM/MM)
  Celestino Angeli,         University of Ferrara,        Italy       (NEVPT2)
  Keld L. Bak,              UNI-C,                        Denmark     (AOSOPPA, non-adiabatic coupling, magnetic properties)
  Vebjoern Bakken,          University of Oslo,           Norway      (DALTON; geometry optimizer, symmetry detection)
  Radovan Bast,             KTH Stockholm                 Sweden      (DALTON installation and execution frameworks)
  Linus Boman,              NTNU,                         Norway      (Cholesky decomposition and subsystems)
  Ove Christiansen,         Aarhus University,            Denmark     (CC module)
  Renzo Cimiraglia,         University of Ferrara,        Italy       (NEVPT2)
  Sonia Coriani,            University of Trieste,        Italy       (CC module, MCD in RESPONS)
  Paal Dahle,               University of Oslo,           Norway      (Parallelization)
  Erik K. Dalskov,          UNI-C,                        Denmark     (SOPPA)
  Thomas Enevoldsen,        Univ. of Southern Denmark,    Denmark     (SOPPA)
  Janus J. Eriksen,         Aarhus University,            Denmark     (PE-MP2/SOPPA, TDA)
  Berta Fernandez,          U. of Santiago de Compostela, Spain       (doublet spin, ESR in RESPONS)
  Lara Ferrighi,            Aarhus University,            Denmark     (PCM Cubic response)
  Heike Fliegl,             University of Oslo,           Norway      (CCSD(R12))
  Luca Frediani,            UiT The Arctic U. of Norway,  Norway      (PCM)
  Bin Gao,                  UiT The Arctic U. of Norway,  Norway      (Gen1Int library)
  Christof Haettig,         Ruhr-University Bochum,       Germany     (CC module)
  Kasper Hald,              Aarhus University,            Denmark     (CC module)
  Asger Halkier,            Aarhus University,            Denmark     (CC module)
  Hanne Heiberg,            University of Oslo,           Norway      (geometry analysis, selected one-electron integrals)
  Trygve Helgaker,          University of Oslo,           Norway      (DALTON; ABACUS, ERI, DFT modules, London, and much more)
  Alf Christian Hennum,     University of Oslo,           Norway      (Parity violation)
  Hinne Hettema,            University of Auckland,       New Zealand (quadratic response in RESPONS; SIRIUS supersymmetry)
  Eirik Hjertenaes,         NTNU,                         Norway      (Cholesky decomposition)
  Maria Francesca Iozzi,    University of Oslo,           Norway      (RPA)
  Brano Jansik              Technical Univ. of Ostrava    Czech Rep.  (DFT cubic response)
  Hans Joergen Aa. Jensen,  Univ. of Southern Denmark,    Denmark     (DALTON; SIRIUS, RESPONS, ABACUS modules, London, and much more)
  Dan Jonsson,              UiT The Arctic U. of Norway,  Norway      (cubic response in RESPONS module)
  Poul Joergensen,          Aarhus University,            Denmark     (RESPONS, ABACUS, and CC modules)
  Joanna Kauczor,           Linkoeping University,        Sweden      (Complex polarization propagator (CPP) module)
  Sheela Kirpekar,          Univ. of Southern Denmark,    Denmark     (Mass-velocity & Darwin integrals)
  Wim Klopper,              KIT Karlsruhe,                Germany     (R12 code in CC, SIRIUS, and ABACUS modules)
  Stefan Knecht,            ETH Zurich,                   Switzerland (Parallel CI and MCSCF)
  Rika Kobayashi,           Australian National Univ.,    Australia   (DIIS in CC, London in MCSCF)
  Henrik Koch,              NTNU,                         Norway      (CC module, Cholesky decomposition)
  Jacob Kongsted,           Univ. of Southern Denmark,    Denmark     (Polarizable embedding, QM/MM)
  Andrea Ligabue,           University of Modena,         Italy       (CTOCD, AOSOPPA)
  Ola B. Lutnaes,           University of Oslo,           Norway      (DFT Hessian)
  Juan I. Melo,             University of Buenos Aires,   Argentina   (LRESC, Relativistic Effects on NMR Shieldings)
  Kurt V. Mikkelsen,        University of Copenhagen,     Denmark     (MC-SCRF and QM/MM)
  Rolf H. Myhre,            NTNU,                         Norway      (Cholesky, subsystems and ECC2)
  Christian Neiss,          Univ. Erlangen-Nuernberg,     Germany     (CCSD(R12))
  Christian B. Nielsen,     University of Copenhagen,     Denmark     (QM/MM)
  Patrick Norman,           Linkoeping University,        Sweden      (Cubic response and complex response in RESPONS)
  Jeppe Olsen,              Aarhus University,            Denmark     (SIRIUS CI/density modules)
  Jogvan Magnus H. Olsen,   Univ. of Southern Denmark,    Denmark     (Polarizable embedding, PE library, QM/MM)
  Anders Osted,             Copenhagen University,        Denmark     (QM/MM)
  Martin J. Packer,         University of Sheffield,      UK          (SOPPA)
  Filip Pawlowski,          Kazimierz Wielki University   Poland      (CC3)
  Thomas B. Pedersen,       University of Oslo,           Norway      (Cholesky decomposition)
  Patricio F. Provasi,      University of Northeastern,   Argentina   (Analysis of coupling constants in localized orbitals)
  Zilvinas Rinkevicius,     KTH Stockholm,                Sweden      (open-shell DFT, ESR)
  Elias Rudberg,            KTH Stockholm,                Sweden      (DFT grid and basis info)
  Torgeir A. Ruden,         University of Oslo,           Norway      (Numerical derivatives in ABACUS)
  Kenneth Ruud,             UiT The Arctic U. of Norway,  Norway      (DALTON; ABACUS magnetic properties and  much more)
  Pawel Salek,              KTH Stockholm,                Sweden      (DALTON; DFT code)
  Claire C. M. Samson       University of Karlsruhe       Germany     (Boys localization, r12 integrals in ERI)
  Alfredo Sanchez de Meras, University of Valencia,       Spain       (CC module, Cholesky decomposition)
  Trond Saue,               Paul Sabatier University,     France      (direct Fock matrix construction)
  Stephan P. A. Sauer,      University of Copenhagen,     Denmark     (SOPPA(CCSD), SOPPA prop., AOSOPPA, vibrational g-factors)
  Bernd Schimmelpfennig,    Forschungszentrum Karlsruhe,  Germany     (AMFI module)
  Kristian Sneskov,         Aarhus University,            Denmark     (QM/MM, PE-CC)
  Arnfinn H. Steindal,      UiT The Arctic U. of Norway,  Norway      (parallel QM/MM)
  K. O. Sylvester-Hvid,     University of Copenhagen,     Denmark     (MC-SCRF)
  Peter R. Taylor,          VLSCI/Univ. of Melbourne,     Australia   (Symmetry handling ABACUS, integral transformation)
  Andrew M. Teale,          University of Nottingham,     England     (DFT-AC, DFT-D)
  David P. Tew,             University of Bristol,        England     (CCSD(R12))
  Olav Vahtras,             KTH Stockholm,                Sweden      (triplet response, spin-orbit, ESR, TDDFT, open-shell DFT)
  David J. Wilson,          La Trobe University,          Australia   (DFT Hessian and DFT magnetizabilities)
  Hans Agren,               KTH Stockholm,                Sweden      (SIRIUS module, RESPONS, MC-SCRF solvation model)
 --------------------------------------------------------------------------------

     Date and time (Linux)  : Sun Sep  8 20:38:43 2013
     Host name              : lpqlx131.ups-tlse.fr                    

 * Work memory size             :    64000000 =  488.28 megabytes.

 * Directories for basis set searches:
   1) /home/bast/DALTON-2013.0-Source/build/test_geoopt_cartsad2
   2) /home/bast/DALTON-2013.0-Source/build/basis


Compilation information
-----------------------

 Who compiled             | bast
 Host                     | lpqlx131.ups-tlse.fr
 System                   | Linux-3.8.5-201.fc18.x86_64
 CMake generator          | Unix Makefiles
 Processor                | x86_64
 64-bit integers          | OFF
 MPI                      | OFF
 Fortran compiler         | /usr/bin/gfortran
 Fortran compiler version | GNU Fortran (GCC) 4.7.2 20121109 (Red Hat 4.7.2-8)
 C compiler               | /usr/bin/gcc
 C compiler version       | gcc (GCC) 4.7.2 20121109 (Red Hat 4.7.2-8)
 C++ compiler             | /usr/bin/g++
 C++ compiler version     | g++ (GCC) 4.7.2 20121109 (Red Hat 4.7.2-8)
 Static linking           | OFF
 Last Git revision        | f34203295a86316e27f9e7b44f9b6769c4a046c0
 Configuration time       | 2013-09-08 20:31:27.952056


   Content of the .dal input file
 ----------------------------------

**DALTON INPUT                                    
.OPTIMIZE                                         
*OPTIMIZE                                         
.CARTES                                           
.INIMOD                                           
.RF                                               
.SADDLE                                           
.BAKER                                            
**WAVE FUNCTION                                   
.HF                                               
**END OF DALTON INPUT                             


   Content of the .mol file
 ----------------------------

BASIS                                                                          
STO-3G                                                                         
First order saddle point optimization in Cartesian coordinates                 
                                                                               
Atomtypes=2                                                                    
Charge=6.0 Atoms=2                                                             
C     0.0000000000        0.0000000000        1.4597876282             *       
C     0.0000000000        0.0000000000       -1.4597876282             *       
Charge=1.0 Atoms=6                                                             
H     1.6808445513        0.9704360937        2.1445545504             *       
H    -1.6808445513        0.9704360937        2.1445545504             *       
H     0.0000000000       -1.9408721894        2.1445545504             *       
H    -1.9608445513       -0.4204360937       -2.1445545504             *       
H     1.2008445513       -1.4004360937       -2.1445545504             *       
H     0.4600000000        1.8308721894       -2.1445545504             *       


       *******************************************************************
       *********** Output from DALTON general input processing ***********
       *******************************************************************

 --------------------------------------------------------------------------------
   Overall default print level:    0
   Print level for DALTON.STAT:    1

    "Old" integral transformation used (limited to max 255 basis functions)
 --------------------------------------------------------------------------------


 Chosen parameters for *OPTIMI :
 -------------------------------

 Saddle point optimization has been requested.
 Default 1st order TS-method will be used:   Bofills update.
 Optimization will be performed in Cartesian coordinates.
 No extra (auxiliary) bonds will be added.
 Model Hessian will be used as initial Hessian.
 The model Hessian parameters of Roland Lindh will be used.


 Partitioned rational function method will be used to control step.
 The eigenvector corresponding to the lowest non-zero eigenvalue is chosen
 as reaction mode (default).

 Baker's convergence criteria will be used.



              >>>>>>>>>>>>>>>>>>>>>>>>>>>>>>>>>>>>>>>>>>>>>>>>>>>>>
              >>>>>>>>>> 1st Order Geometry Optimization >>>>>>>>>>
              >>>>>>>>>>>>>>>>>>>>>>>>>>>>>>>>>>>>>>>>>>>>>>>>>>>>>

 Reading .mol file to determine number of atoms for parallel runs.


                      SYMADD: Requested addition of symmetry
                      --------------------------------------

 Symmetry test threshold:  5.00E-06

 - molecule centered at center of mass and rotated so
   principal axes of inertia are along coordinate axes.

 Symmetry class found: C(1)           

 No symmetry elements were found.


   ****************************************************************************
   *************** Output of molecule and basis set information ***************
   ****************************************************************************


    The two title cards from your ".mol" input:
    ------------------------------------------------------------------------
 1: First order saddle point optimization in Cartesian coordinates          
 2:                                                                         
    ------------------------------------------------------------------------

  Atomic type no.    1
  --------------------
  Nuclear charge:   6.00000
  Number of symmetry independent centers:    2
  Number of basis sets to read;    2
  Basis set file used for this atomic type with Z =   6 :
     "/home/bast/DALTON-2013.0-Source/build/basis/STO-3G"

  Atomic type no.    2
  --------------------
  Nuclear charge:   1.00000
  Number of symmetry independent centers:    6
  Number of basis sets to read;    2
  Basis set file used for this atomic type with Z =   1 :
     "/home/bast/DALTON-2013.0-Source/build/basis/STO-3G"


                      SYMADD: Requested addition of symmetry
                      --------------------------------------

 Symmetry test threshold:  5.00E-06

 - molecule centered at center of mass and rotated so
   principal axes of inertia are along coordinate axes.

 Symmetry class found: C(1)           

 Symmetry Independent Centres             
 ----------------------------
       6 :      0.01663772    -0.01736708    -1.45962422  Isotope  1
       6 :     -0.00270667     0.00282905     1.45981710  Isotope  1
       1 :     -0.09790893    -1.86300733    -2.13241377  Isotope  1
       1 :      1.62930156     0.96663606    -2.14054409  Isotope  1
       1 :     -0.53199044     1.87608310     2.12814956  Isotope  1
       1 :     -1.36307783    -1.38120997     2.14517605  Isotope  1
       1 :      1.87333697    -0.47217539     2.16033220  Isotope  1
       1 :     -1.67553594     1.04677543    -2.16299653  Isotope  1

 No symmetry elements were found.


                         SYMGRP: Point group information
                         -------------------------------

Full point group is: C(1)           
Represented as:      C1 


                                 Isotopic Masses
                                 ---------------

                           C          12.000000
                           C          12.000000
                           H           1.007825
                           H           1.007825
                           H           1.007825
                           H           1.007825
                           H           1.007825
                           H           1.007825

                       Total mass:    30.046950 amu
                       Natural abundance:  97.724 %

 Center-of-mass coordinates (a.u.):    0.000000    0.000000   -0.000000


  Atoms and basis sets
  --------------------

  Number of atom types :    2
  Total number of atoms:    8

  Basis set used is "STO-3G" from the basis set library.

  label    atoms   charge   prim   cont     basis
  ----------------------------------------------------------------------
  C           2    6.0000    15     5      [6s3p|2s1p]                                        
  H           6    1.0000     3     1      [3s|1s]                                            
  ----------------------------------------------------------------------
  total:      8   18.0000    48    16
  ----------------------------------------------------------------------

  Threshold for neglecting AO integrals:  1.00D-12


  Cartesian Coordinates (a.u.)
  ----------------------------

  Total number of coordinates:   24
  C       :     1  x  -0.0027066708    2  y   0.0028290475    3  z   1.4598170969
  C       :     4  x   0.0166377203    5  y  -0.0173670830    6  z  -1.4596242176
  H       :     7  x   1.8733369666    8  y  -0.4721753892    9  z   2.1603322008
  H       :    10  x  -0.5319904431   11  y   1.8760831043   12  z   2.1281495608
  H       :    13  x  -1.3630778315   14  y  -1.3812099707   15  z   2.1451760501
  H       :    16  x  -1.6755359434   17  y   1.0467754267   18  z  -2.1629965315
  H       :    19  x  -0.0979089290   20  y  -1.8630073280   21  z  -2.1324137670
  H       :    22  x   1.6293015559   23  y   0.9666360609   24  z  -2.1405440938


   Interatomic separations (in Angstrom):
   --------------------------------------

            C           C           H           H           H           H     
            ------      ------      ------      ------      ------      ------
 C     :    0.000000
 C     :    1.544973    0.000000
 H     :    1.089114    2.166285    0.000000
 H     :    1.089114    2.166285    1.778929    0.000000
 H     :    1.089114    2.166285    1.778929    1.778929    0.000000
 H     :    2.182685    1.121379    3.067078    2.390650    2.622130    0.000000
 H     :    2.142647    1.041304    2.605782    3.008484    2.374264    1.751623
 H     :    2.153106    1.062658    2.403378    2.577263    3.032241    1.749399

            H           H     
            ------      ------
 H     :    0.000000
 H     :    1.754301    0.000000


  Max    interatomic separation is    3.0671 Angstrom (    5.7959 Bohr)
  between atoms    6 and    3, "H     " and "H     ".

  Min HX interatomic separation is    1.0413 Angstrom (    1.9678 Bohr)

  Min YX interatomic separation is    1.5450 Angstrom (    2.9196 Bohr)


  Bond distances (Angstrom):
  --------------------------

                  atom 1     atom 2       distance
                  ------     ------       --------
  bond distance:  C          C            1.544973
  bond distance:  H          C            1.089114
  bond distance:  H          C            1.089114
  bond distance:  H          C            1.089114
  bond distance:  H          C            1.121379
  bond distance:  H          C            1.041304
  bond distance:  H          C            1.062658


  Bond angles (degrees):
  ----------------------

                  atom 1     atom 2     atom 3         angle
                  ------     ------     ------         -----
  bond angle:     C          C          H            109.434
  bond angle:     C          C          H            109.434
  bond angle:     C          C          H            109.434
  bond angle:     H          C          H            109.509
  bond angle:     H          C          H            109.509
  bond angle:     H          C          H            109.509
  bond angle:     C          C          H            108.853
  bond angle:     C          C          H            110.364
  bond angle:     C          C          H            109.938
  bond angle:     H          C          H            108.121
  bond angle:     H          C          H            106.419
  bond angle:     H          C          H            112.980




 Principal moments of inertia (u*A**2) and principal axes
 --------------------------------------------------------

   IA       6.287965          0.000000    0.000000    1.000000
   IB      25.250957          0.000000    1.000000    0.000000
   IC      25.259306          1.000000    0.000000    0.000000


 Rotational constants
 --------------------

               A                   B                   C

          80372.4312          20014.2520          20007.6362 MHz
            2.680936            0.667604            0.667383 cm-1


@  Nuclear repulsion energy :   42.349123177598 Hartree


                     .---------------------------------------.
                     | Starting in Integral Section (HERMIT) |
                     `---------------------------------------'



    *************************************************************************
    ****************** Output from HERMIT input processing ******************
    *************************************************************************



     ************************************************************************
     ************************** Output from HERINT **************************
     ************************************************************************


 Threshold for neglecting two-electron integrals:  1.00D-12
 Number of two-electron integrals written:        9139 ( 98.1% )
 Megabytes written:                              0.110

 >>>> Total CPU  time used in HERMIT:   0.05 seconds
 >>>> Total wall time used in HERMIT:   0.05 seconds


                        .----------------------------------.
                        | End of Integral Section (HERMIT) |
                        `----------------------------------'



                   .--------------------------------------------.
                   | Starting in Wave Function Section (SIRIUS) |
                   `--------------------------------------------'


 *** Output from Huckel module :

     Using EWMO model:          T
     Using EHT  model:          F
     Number of Huckel orbitals each symmetry:   16

 EWMO - Energy Weighted Maximum Overlap - is a Huckel type method,
        which normally is better than Extended Huckel Theory.
 Reference: Linderberg and Ohrn, Propagators in Quantum Chemistry (Wiley, 1973)

 Huckel EWMO eigenvalues for symmetry :  1
          -11.354188     -11.348242      -1.678025      -1.137575      -0.808694
           -0.798551      -0.525972      -0.520010      -0.518395      -0.143671
           -0.133751      -0.127061      -0.122544      -0.113585      -0.109221
           -0.102916

 **********************************************************************
 *SIRIUS* a direct, restricted step, second order MCSCF program       *
 **********************************************************************

 
     Date and time (Linux)  : Sun Sep  8 20:38:43 2013
     Host name              : lpqlx131.ups-tlse.fr                    

 Title lines from ".mol" input file:
     First order saddle point optimization in Cartesian coordinates          
                                                                             

 Print level on unit LUPRI =   2 is   0
 Print level on unit LUW4  =   2 is   5

@    Restricted, closed shell Hartree-Fock calculation.

 Initial molecular orbitals are obtained according to
 ".MOSTART EWMO  " input option

     Wave function specification
     ============================
@    For the wave function of type :      >>> HF <<<
@    Number of closed shell electrons          18
@    Number of electrons in active shells       0
@    Total charge of the molecule               0

@    Spin multiplicity and 2 M_S                1         0
     Total number of symmetries                 1
@    Reference state symmetry                   1

     Orbital specifications
     ======================
     Abelian symmetry species          All |    1
                                       --- |  ---
@    Occupied SCF orbitals               9 |    9
     Secondary orbitals                  7 |    7
     Total number of orbitals           16 |   16
     Number of basis functions          16 |   16

     Optimization information
     ========================
@    Number of configurations                 1
@    Number of orbital rotations             63
     ------------------------------------------
@    Total number of variables               64

     Maximum number of Fock   iterations      0
     Maximum number of DIIS   iterations     60
     Maximum number of QC-SCF iterations     60
     Threshold for SCF convergence     1.00D-05


 >>>>> DIIS optimization of Hartree-Fock <<<<<

 C1-DIIS algorithm; max error vectors =   10

 Iter      Total energy        Error norm    Delta(E)  DIIS dim.
 -----------------------------------------------------------------------------
     (Precalculated two-electron integrals are transformed to P-supermatrix elements.
      Threshold for discarding integrals :  1.00D-12 )
@  1    -78.2017199301        1.16362D+00   -7.82D+01    1
      Virial theorem: -V/T =      2.015987
@      MULPOP C       0.38; C       0.38; H      -0.13; H      -0.13; H      -0.13; H      -0.14; H      -0.12; H      -0.12; 
 -----------------------------------------------------------------------------
@  2    -78.2979510114        1.83985D-01   -9.62D-02    2
      Virial theorem: -V/T =      2.006348
@      MULPOP C      -0.25; C      -0.26; H       0.08; H       0.08; H       0.08; H       0.08; H       0.09; H       0.09; 
 -----------------------------------------------------------------------------
@  3    -78.3007271744        2.91112D-02   -2.78D-03    3
      Virial theorem: -V/T =      2.008077
@      MULPOP C      -0.16; C      -0.18; H       0.05; H       0.06; H       0.06; H       0.05; H       0.07; H       0.06; 
 -----------------------------------------------------------------------------
@  4    -78.3008075106        4.04889D-03   -8.03D-05    4
      Virial theorem: -V/T =      2.007793
@      MULPOP C      -0.17; C      -0.18; H       0.06; H       0.06; H       0.06; H       0.05; H       0.07; H       0.06; 
 -----------------------------------------------------------------------------
@  5    -78.3008092261        1.74141D-04   -1.72D-06    5
      Virial theorem: -V/T =      2.007754
@      MULPOP C      -0.17; C      -0.18; H       0.06; H       0.06; H       0.06; H       0.05; H       0.07; H       0.06; 
 -----------------------------------------------------------------------------
@  6    -78.3008092289        3.90649D-05   -2.81D-09    6
      Virial theorem: -V/T =      2.007754
@      MULPOP C      -0.17; C      -0.18; H       0.06; H       0.06; H       0.06; H       0.05; H       0.07; H       0.06; 
 -----------------------------------------------------------------------------
@  7    -78.3008092291        6.21811D-06   -1.74D-10    7

@ *** DIIS converged in   7 iterations !
@     Converged SCF energy, gradient:    -78.300809229105    6.22D-06
    - total time used in SIRFCK :              0.00 seconds


 *** SCF orbital energy analysis ***

 Only the five lowest virtual orbital energies printed in each symmetry.

 Number of electrons :   18
 Orbital occupations :    9

 Sym       Hartree-Fock orbital energies

  1    -11.03482014   -11.03332150    -0.98211973    -0.81150564    -0.58422666
        -0.56824915    -0.47076255    -0.46459929    -0.45337108     0.63907173
         0.67421175     0.67691471     0.72806778     0.77379610

    E(LUMO) :     0.63907173 au (symmetry 1)
  - E(HOMO) :    -0.45337108 au (symmetry 1)
  ------------------------------------------
    gap     :     1.09244281 au

 >>> Writing SIRIFC interface file <<<

 >>>> CPU and wall time for SCF :       0.004       0.005


                       .-----------------------------------.
                       | >>> Final results from SIRIUS <<< |
                       `-----------------------------------'


@    Spin multiplicity:           1
@    Spatial symmetry:            1
@    Total charge of molecule:    0

@    Final HF energy:             -78.300809229105                 
@    Nuclear repulsion:            42.349123177598
@    Electronic energy:          -120.649932406703

@    Final gradient norm:           0.000006218107

 
     Date and time (Linux)  : Sun Sep  8 20:38:43 2013
     Host name              : lpqlx131.ups-tlse.fr                    

 (Only coefficients >0.0100 are printed.)

 Molecular orbitals for symmetry species  1
 ------------------------------------------

    Orbital         1        2        3        4        5        6        7
   1 C   :1s    -0.9861   0.1080   0.1622   0.1495   0.0005  -0.0008  -0.0029
   2 C   :1s    -0.0380  -0.0015  -0.4454  -0.4503  -0.0016   0.0026   0.0128
   3 C   :2px   -0.0000  -0.0000  -0.0007   0.0015   0.1504   0.3807  -0.1756
   4 C   :2py    0.0000   0.0001   0.0007  -0.0018   0.3262  -0.1757  -0.3995
   5 C   :2pz    0.0003   0.0042   0.0619  -0.1397  -0.0077   0.0163  -0.0945
   6 C   :1s     0.1070   0.9861   0.1681  -0.1434  -0.0012   0.0018  -0.0040
   7 C   :1s     0.0097   0.0373  -0.4598   0.4286   0.0070  -0.0116   0.0205
   8 C   :2px   -0.0000   0.0001  -0.0036   0.0084   0.1786   0.3471   0.1395
   9 C   :2py    0.0000  -0.0002   0.0045  -0.0106   0.3941  -0.1569   0.3341
  10 C   :2pz    0.0041  -0.0009  -0.0563  -0.1505   0.0033  -0.0069   0.0940
  11 H   :1s     0.0069  -0.0007  -0.1092  -0.1705   0.0488   0.3310  -0.0916
  12 H   :1s     0.0069  -0.0007  -0.1090  -0.1715   0.2084  -0.2119  -0.3429
  13 H   :1s     0.0069  -0.0007  -0.1092  -0.1709  -0.2645  -0.1057   0.3565
  14 H   :1s    -0.0008  -0.0067  -0.1058   0.1515   0.0461  -0.2985   0.0301
  15 H   :1s    -0.0009  -0.0074  -0.1226   0.1809  -0.3125   0.1073  -0.3450
  16 H   :1s    -0.0009  -0.0072  -0.1178   0.1719   0.2758   0.1723   0.2528

    Orbital         8        9       10       11
   1 C   :1s     0.0181   0.0060  -0.0175   0.0380
   2 C   :1s    -0.0784  -0.0253   0.1047  -0.2123
   3 C   :2px   -0.1307   0.3295  -0.4863  -0.4762
   4 C   :2py   -0.0181  -0.1655   0.3612  -0.5592
   5 C   :2pz    0.5180   0.1405  -0.0796   0.5043
   6 C   :1s     0.0204   0.0050  -0.0245  -0.0349
   7 C   :1s    -0.0907  -0.0144   0.1350   0.1960
   8 C   :2px    0.1242  -0.3768  -0.7001  -0.2709
   9 C   :2py    0.0177   0.1789   0.3477  -0.4351
  10 C   :2pz   -0.5176  -0.1421  -0.1868   0.5109
  11 H   :1s     0.0265   0.3874   0.5572   0.2345
  12 H   :1s     0.1501  -0.2046  -0.4952   0.3428
  13 H   :1s     0.2382  -0.0760  -0.1199  -0.7628
  14 H   :1s     0.0373   0.4381  -0.8763   0.0512
  15 H   :1s     0.1149  -0.1156   0.2065  -0.3730
  16 H   :1s     0.2452  -0.1830   0.3020   0.5395



 >>>> Total CPU  time used in SIRIUS :      0.01 seconds
 >>>> Total wall time used in SIRIUS :      0.01 seconds

 
     Date and time (Linux)  : Sun Sep  8 20:38:43 2013
     Host name              : lpqlx131.ups-tlse.fr                    


                     .---------------------------------------.
                     | End of Wave Function Section (SIRIUS) |
                     `---------------------------------------'


     Order of analytical energy-derivatives available:   2
     This will be the default.

 Center of mass dipole origin  :    0.000000    0.000000   -0.000000

 Center of mass gauge origin   :    0.000000    0.000000   -0.000000


                 .------------------------------------------------.
                 | Starting in Static Property Section (ABACUS) - |
                 `------------------------------------------------'


 
     Date and time (Linux)  : Sun Sep  8 20:38:43 2013
     Host name              : lpqlx131.ups-tlse.fr                    

 Largest deviation from tra-rot symmetry is in gradient element  2:  2.74E-07


   ***************************************************************************
   ************************ FINAL RESULTS from ABACUS ************************
   ***************************************************************************


 
     Date and time (Linux)  : Sun Sep  8 20:38:43 2013
     Host name              : lpqlx131.ups-tlse.fr                    


                             Molecular geometry (au)
                             -----------------------

 C         -0.0027066708            0.0028290475            1.4598170969
 C          0.0166377203           -0.0173670830           -1.4596242176
 H          1.8733369666           -0.4721753892            2.1603322008
 H         -0.5319904431            1.8760831043            2.1281495608
 H         -1.3630778315           -1.3812099707            2.1451760501
 H         -1.6755359434            1.0467754267           -2.1629965315
 H         -0.0979089290           -1.8630073280           -2.1324137670
 H          1.6293015559            0.9666360609           -2.1405440938





                        Molecular wave function and energy
                        ----------------------------------

     Spin multiplicity  1     State number       1     Total charge       0

     Total energy        -78.3008092291 au (Hartrees)
                         -2130.67340388 eV
                           -205578.7429 kJ/mol


                             Relativistic corrections
                             ------------------------

     Darwin correction:                          0.0776961559 au
     Mass-velocity correction:                  -0.0979722738 au

     Total relativistic correction:             -0.0202761180 au (0.0259%)
     Non-relativistic + relativistic energy:   -78.3210853471 au




                             Molecular gradient (au)
                             -----------------------

 C         -0.0008249658            0.0008938779            0.0094242554
 C          0.0481357226           -0.0555157754           -0.0223323080
 H          0.0046621303           -0.0001458098           -0.0035156792
 H         -0.0024080461            0.0043832186           -0.0033035028
 H         -0.0026840888           -0.0040251661           -0.0032114528
 H         -0.0221864728            0.0177701139           -0.0078660041
 H         -0.0048044934            0.0400805785            0.0196774650
 H         -0.0198897859           -0.0034410376            0.0111272264





                                  Dipole moment
                                  -------------

                 au               Debye          C m (/(10**-30)
              0.002176           0.005531           0.018451


                             Dipole moment components
                             ------------------------

                 au               Debye          C m (/(10**-30)

      x     -0.00061931        -0.00157412        -0.00525069
      y      0.00182453         0.00463750         0.01546904
      z     -0.00101163        -0.00257130        -0.00857694


   Units:   1 a.u. =   2.54175 Debye 
            1 a.u. =   8.47835 (10**-30) C m (SI)




   Interatomic separations (in Angstrom):
   --------------------------------------

            C           C           H           H           H           H     
            ------      ------      ------      ------      ------      ------
 C     :    0.000000
 C     :    1.544973    0.000000
 H     :    1.089114    2.166285    0.000000
 H     :    1.089114    2.166285    1.778929    0.000000
 H     :    1.089114    2.166285    1.778929    1.778929    0.000000
 H     :    2.182685    1.121379    3.067078    2.390650    2.622130    0.000000
 H     :    2.142647    1.041304    2.605782    3.008484    2.374264    1.751623
 H     :    2.153106    1.062658    2.403378    2.577263    3.032241    1.749399

            H           H     
            ------      ------
 H     :    0.000000
 H     :    1.754301    0.000000


  Max    interatomic separation is    3.0671 Angstrom (    5.7959 Bohr)
  between atoms    6 and    3, "H     " and "H     ".

  Min HX interatomic separation is    1.0413 Angstrom (    1.9678 Bohr)

  Min YX interatomic separation is    1.5450 Angstrom (    2.9196 Bohr)


  Bond distances (Angstrom):
  --------------------------

                  atom 1     atom 2       distance
                  ------     ------       --------
  bond distance:  C          C            1.544973
  bond distance:  H          C            1.089114
  bond distance:  H          C            1.089114
  bond distance:  H          C            1.089114
  bond distance:  H          C            1.121379
  bond distance:  H          C            1.041304
  bond distance:  H          C            1.062658


  Bond angles (degrees):
  ----------------------

                  atom 1     atom 2     atom 3         angle
                  ------     ------     ------         -----
  bond angle:     C          C          H            109.434
  bond angle:     C          C          H            109.434
  bond angle:     C          C          H            109.434
  bond angle:     H          C          H            109.509
  bond angle:     H          C          H            109.509
  bond angle:     H          C          H            109.509
  bond angle:     C          C          H            108.853
  bond angle:     C          C          H            110.364
  bond angle:     C          C          H            109.938
  bond angle:     H          C          H            108.121
  bond angle:     H          C          H            106.419
  bond angle:     H          C          H            112.980




 CPU time statistics for ABACUS
 ------------------------------




 >>>> Total CPU  time used in ABACUS:   0.10 seconds
 >>>> Total wall time used in ABACUS:   0.10 seconds


                   .-------------------------------------------.
                   | End of Static Property Section (ABACUS) - |
                   `-------------------------------------------'


 Predicted energy change       -0.003183097755043


           :::::::::::::::::::::::::::::::::::::::::::::::::::::::::::
           ::::::::::::::: Optimization Control Center :::::::::::::::
           :::::::::::::::::::::::::::::::::::::::::::::::::::::::::::



                                Next geometry (au)
                                ------------------

 C         -0.0071035447            0.0145058138            1.4543912607
 C         -0.0133295768            0.0302178410           -1.4640442661
 H          1.8775590186           -0.3359111062            2.1977511165
 H         -0.6594757196            1.8166219431            2.2011630585
 H         -1.2519520991           -1.4564323612            2.1731661323
 H         -1.5943565598            1.1309421651           -2.1781094609
 H         -0.2327991758           -1.8781143127           -2.1773195495
 H          1.7295140822            0.8367338856           -2.2091019927





                             Optimization information
                             ------------------------

 Iteration number               :       0
 End of optimization            :       F 
 Energy at this geometry is     :     -78.300809
 Norm of gradient               :       0.097518
 Norm of step                   :       0.364997
 Updated trust radius           :       0.500000
 Total Hessian index            :       0




 **************************************************************************************
 ****************** Output of molecule and basis set info suppressed ******************
 **************************************************************************************



                     .---------------------------------------.
                     | Starting in Integral Section (HERMIT) |
                     `---------------------------------------'



    *************************************************************************
    ****************** Output from HERMIT input processing ******************
    *************************************************************************


 Threshold for neglecting two-electron integrals:  1.00D-12
 Number of two-electron integrals written:        9137 ( 98.1% )
 Megabytes written:                              0.110

 >>>> Total CPU  time used in HERMIT:   0.05 seconds
 >>>> Total wall time used in HERMIT:   0.05 seconds


                        .----------------------------------.
                        | End of Integral Section (HERMIT) |
                        `----------------------------------'



                   .--------------------------------------------.
                   | Starting in Wave Function Section (SIRIUS) |
                   `--------------------------------------------'


 **********************************************************************
 *SIRIUS* a direct, restricted step, second order MCSCF program       *
 **********************************************************************

 (Wave function specification suppressed here, see output above for initial geometry.)


 >>>>> DIIS optimization of Hartree-Fock <<<<<

 C1-DIIS algorithm; max error vectors =   10

 Iter      Total energy        Error norm    Delta(E)  DIIS dim.
 -----------------------------------------------------------------------------
     (Precalculated two-electron integrals are transformed to P-supermatrix elements.
      Threshold for discarding integrals :  1.00D-12 )
@  1    -78.3018631292        1.28338D-01   -1.05D-03    1
      Virial theorem: -V/T =      2.008201
@      MULPOP C      -0.17; C      -0.18; H       0.06; H       0.06; H       0.06; H       0.06; H       0.06; H       0.06; 
 -----------------------------------------------------------------------------
@  2    -78.3040335916        4.02140D-02   -2.17D-03    2
      Virial theorem: -V/T =      2.008283
@      MULPOP C      -0.17; C      -0.17; H       0.06; H       0.06; H       0.06; H       0.06; H       0.06; H       0.06; 
 -----------------------------------------------------------------------------
@  3    -78.3042795168        2.70238D-03   -2.46D-04    3
      Virial theorem: -V/T =      2.008241
@      MULPOP C      -0.17; C      -0.18; H       0.06; H       0.06; H       0.06; H       0.06; H       0.06; H       0.06; 
 -----------------------------------------------------------------------------
@  4    -78.3042802479        4.45784D-04   -7.31D-07    4
      Virial theorem: -V/T =      2.008256
@      MULPOP C      -0.17; C      -0.17; H       0.06; H       0.06; H       0.06; H       0.06; H       0.06; H       0.06; 
 -----------------------------------------------------------------------------
@  5    -78.3042802706        5.46954D-05   -2.27D-08    5
      Virial theorem: -V/T =      2.008255
@      MULPOP C      -0.17; C      -0.17; H       0.06; H       0.06; H       0.06; H       0.06; H       0.06; H       0.06; 
 -----------------------------------------------------------------------------
@  6    -78.3042802710        6.87964D-06   -3.60D-10    6

@ *** DIIS converged in   6 iterations !
@     Converged SCF energy, gradient:    -78.304280271004    6.88D-06
    - total time used in SIRFCK :              0.00 seconds


 *** SCF orbital energy analysis ***

 Only the five lowest virtual orbital energies printed in each symmetry.

 Number of electrons :   18
 Orbital occupations :    9

 Sym       Hartree-Fock orbital energies

  1    -11.03519464   -11.03464730    -0.97852461    -0.81172680    -0.57155049
        -0.56962313    -0.47005601    -0.46026136    -0.45815705     0.64407338
         0.64652293     0.68136926     0.73330428     0.78016449

    E(LUMO) :     0.64407338 au (symmetry 1)
  - E(HOMO) :    -0.45815705 au (symmetry 1)
  ------------------------------------------
    gap     :     1.10223043 au

 >>> Writing SIRIFC interface file <<<

 >>>> CPU and wall time for SCF :       0.004       0.004


                       .-----------------------------------.
                       | >>> Final results from SIRIUS <<< |
                       `-----------------------------------'


@    Spin multiplicity:           1
@    Spatial symmetry:            1
@    Total charge of molecule:    0

@    Final HF energy:             -78.304280271004                 
@    Nuclear repulsion:            42.154175794430
@    Electronic energy:          -120.458456065434

@    Final gradient norm:           0.000006879638

 
     Date and time (Linux)  : Sun Sep  8 20:38:43 2013
     Host name              : lpqlx131.ups-tlse.fr                    



 >>>> Total CPU  time used in SIRIUS :      0.00 seconds
 >>>> Total wall time used in SIRIUS :      0.00 seconds

 
     Date and time (Linux)  : Sun Sep  8 20:38:43 2013
     Host name              : lpqlx131.ups-tlse.fr                    


                     .---------------------------------------.
                     | End of Wave Function Section (SIRIUS) |
                     `---------------------------------------'

 Trust radius increased due to good ratio.
 Updated trust radius   0.50000

     Order of analytical energy-derivatives available:   2
     This will be the default.

 Center of mass dipole origin  :   -0.012572    0.021680   -0.003602

 Center of mass gauge origin   :   -0.012572    0.021680   -0.003602


                 .------------------------------------------------.
                 | Starting in Static Property Section (ABACUS) - |
                 `------------------------------------------------'


 
     Date and time (Linux)  : Sun Sep  8 20:38:43 2013
     Host name              : lpqlx131.ups-tlse.fr                    


            +---------------------------------------------------------+
            ! Gradient elements calculated directly and from symmetry !
            +---------------------------------------------------------+



        Coordinate    Direct calc.     Tra.-rot. sym.   Difference
        ----------------------------------------------------------

        C    x        0.0008176662     0.0008193990    -0.0000017328
        C    y       -0.0008542011    -0.0008546652     0.0000004641
        C    z       -0.0014099493    -0.0014099493     0.0000000000
        C    x        0.0014424665     0.0014417431     0.0000007234
        C    y       -0.0018153044    -0.0018148403    -0.0000004641
        H    x        0.0015907691     0.0015897597     0.0000010094



 >>> WARNING from TRAROT:

 Largest deviation from tra-rot symmetry is in gradient element  1:  1.73E-06


   ***************************************************************************
   ************************ FINAL RESULTS from ABACUS ************************
   ***************************************************************************


 
     Date and time (Linux)  : Sun Sep  8 20:38:43 2013
     Host name              : lpqlx131.ups-tlse.fr                    

 WARNING: warnings have been issued, please check the output above !


 CPU time statistics for ABACUS
 ------------------------------




 >>>> Total CPU  time used in ABACUS:   0.10 seconds
 >>>> Total wall time used in ABACUS:   0.13 seconds


                   .-------------------------------------------.
                   | End of Static Property Section (ABACUS) - |
                   `-------------------------------------------'


 Predicted energy change        0.000868883886176


           :::::::::::::::::::::::::::::::::::::::::::::::::::::::::::
           ::::::::::::::: Optimization Control Center :::::::::::::::
           :::::::::::::::::::::::::::::::::::::::::::::::::::::::::::



                                Next geometry (au)
                                ------------------

 C         -0.0160747269            0.0161123468            1.4595334322
 C         -0.0251595658            0.0202498305           -1.4495209065
 H          1.9102894648           -0.1956514608            2.1653384292
 H         -0.7885283212            1.7802309736            2.1927738457
 H         -1.1551633488           -1.5436813264            2.1846760921
 H         -1.5163723032            1.2559682969           -2.1624046542
 H         -0.3431414408           -1.8708719772           -2.2089059752
 H          1.7822066667            0.6962071851           -2.1835939647





                             Optimization information
                             ------------------------

 Iteration number               :       1
 End of optimization            :       F 
 Energy at this geometry is     :     -78.304280
 Energy change from last geom.  :      -0.003471
 Norm of gradient               :       0.008828
 Norm of step                   :       0.340407
 Updated trust radius           :       0.500000
 Total Hessian index            :       0




 **************************************************************************************
 ****************** Output of molecule and basis set info suppressed ******************
 **************************************************************************************



                     .---------------------------------------.
                     | Starting in Integral Section (HERMIT) |
                     `---------------------------------------'



    *************************************************************************
    ****************** Output from HERMIT input processing ******************
    *************************************************************************


 Threshold for neglecting two-electron integrals:  1.00D-12
 Number of two-electron integrals written:        9137 ( 98.1% )
 Megabytes written:                              0.110

 >>>> Total CPU  time used in HERMIT:   0.05 seconds
 >>>> Total wall time used in HERMIT:   0.10 seconds


                        .----------------------------------.
                        | End of Integral Section (HERMIT) |
                        `----------------------------------'



                   .--------------------------------------------.
                   | Starting in Wave Function Section (SIRIUS) |
                   `--------------------------------------------'


 **********************************************************************
 *SIRIUS* a direct, restricted step, second order MCSCF program       *
 **********************************************************************

 (Wave function specification suppressed here, see output above for initial geometry.)


 >>>>> DIIS optimization of Hartree-Fock <<<<<

 C1-DIIS algorithm; max error vectors =   10

 Iter      Total energy        Error norm    Delta(E)  DIIS dim.
 -----------------------------------------------------------------------------
     (Precalculated two-electron integrals are transformed to P-supermatrix elements.
      Threshold for discarding integrals :  1.00D-12 )
@  1    -78.3009523342        1.20001D-01    3.33D-03    1
      Virial theorem: -V/T =      2.008274
@      MULPOP C      -0.17; C      -0.17; H       0.06; H       0.06; H       0.06; H       0.06; H       0.06; H       0.06; 
 -----------------------------------------------------------------------------
@  2    -78.3029358067        3.90257D-02   -1.98D-03    2
      Virial theorem: -V/T =      2.008354
@      MULPOP C      -0.17; C      -0.17; H       0.06; H       0.06; H       0.06; H       0.06; H       0.06; H       0.06; 
 -----------------------------------------------------------------------------
@  3    -78.3031735106        8.73978D-04   -2.38D-04    3
      Virial theorem: -V/T =      2.008338
@      MULPOP C      -0.17; C      -0.17; H       0.06; H       0.06; H       0.06; H       0.06; H       0.06; H       0.06; 
 -----------------------------------------------------------------------------
@  4    -78.3031735833        1.60580D-04   -7.28D-08    4
      Virial theorem: -V/T =      2.008346
@      MULPOP C      -0.17; C      -0.17; H       0.06; H       0.06; H       0.06; H       0.06; H       0.06; H       0.06; 
 -----------------------------------------------------------------------------
@  5    -78.3031735863        2.32982D-05   -2.92D-09    5
      Virial theorem: -V/T =      2.008345
@      MULPOP C      -0.17; C      -0.17; H       0.06; H       0.06; H       0.06; H       0.06; H       0.06; H       0.06; 
 -----------------------------------------------------------------------------
@  6    -78.3031735863        3.40476D-06   -7.52D-11    6

@ *** DIIS converged in   6 iterations !
@     Converged SCF energy, gradient:    -78.303173586332    3.40D-06
    - total time used in SIRFCK :              0.00 seconds


 *** SCF orbital energy analysis ***

 Only the five lowest virtual orbital energies printed in each symmetry.

 Number of electrons :   18
 Orbital occupations :    9

 Sym       Hartree-Fock orbital energies

  1    -11.03502740   -11.03437136    -0.97839432    -0.80873122    -0.57076717
        -0.56982345    -0.46991199    -0.45691688    -0.45660617     0.63633943
         0.63794159     0.68644185     0.72590507     0.77776823

    E(LUMO) :     0.63633943 au (symmetry 1)
  - E(HOMO) :    -0.45660617 au (symmetry 1)
  ------------------------------------------
    gap     :     1.09294561 au

 >>> Writing SIRIFC interface file <<<

 >>>> CPU and wall time for SCF :       0.004       0.004


                       .-----------------------------------.
                       | >>> Final results from SIRIUS <<< |
                       `-----------------------------------'


@    Spin multiplicity:           1
@    Spatial symmetry:            1
@    Total charge of molecule:    0

@    Final HF energy:             -78.303173586332                 
@    Nuclear repulsion:            42.139873129883
@    Electronic energy:          -120.443046716215

@    Final gradient norm:           0.000003404765

 
     Date and time (Linux)  : Sun Sep  8 20:38:43 2013
     Host name              : lpqlx131.ups-tlse.fr                    



 >>>> Total CPU  time used in SIRIUS :      0.01 seconds
 >>>> Total wall time used in SIRIUS :      0.00 seconds

 
     Date and time (Linux)  : Sun Sep  8 20:38:43 2013
     Host name              : lpqlx131.ups-tlse.fr                    


                     .---------------------------------------.
                     | End of Wave Function Section (SIRIUS) |
                     `---------------------------------------'

 Trust radius increased due to good ratio.
 Updated trust radius   0.50000

     Order of analytical energy-derivatives available:   2
     This will be the default.

 Center of mass dipole origin  :   -0.020181    0.018621    0.003592

 Center of mass gauge origin   :   -0.020181    0.018621    0.003592


                 .------------------------------------------------.
                 | Starting in Static Property Section (ABACUS) - |
                 `------------------------------------------------'


 
     Date and time (Linux)  : Sun Sep  8 20:38:43 2013
     Host name              : lpqlx131.ups-tlse.fr                    


            +---------------------------------------------------------+
            ! Gradient elements calculated directly and from symmetry !
            +---------------------------------------------------------+



        Coordinate    Direct calc.     Tra.-rot. sym.   Difference
        ----------------------------------------------------------

        C    x       -0.0010749000    -0.0010762908     0.0000013908
        C    y        0.0026698421     0.0026697830     0.0000000592
        C    z       -0.0044578027    -0.0044578027    -0.0000000000
        C    x       -0.0001054015    -0.0001051881    -0.0000002134
        C    y       -0.0023302642    -0.0023302051    -0.0000000592
        H    x        0.0059527196     0.0059538970    -0.0000011774



 >>> WARNING from TRAROT:

 Largest deviation from tra-rot symmetry is in gradient element  1:  1.39E-06


   ***************************************************************************
   ************************ FINAL RESULTS from ABACUS ************************
   ***************************************************************************


 
     Date and time (Linux)  : Sun Sep  8 20:38:43 2013
     Host name              : lpqlx131.ups-tlse.fr                    

 WARNING: warnings have been issued, please check the output above !


 CPU time statistics for ABACUS
 ------------------------------




 >>>> Total CPU  time used in ABACUS:   0.10 seconds
 >>>> Total wall time used in ABACUS:   0.20 seconds


                   .-------------------------------------------.
                   | End of Static Property Section (ABACUS) - |
                   `-------------------------------------------'


 Predicted energy change        0.000765284308607


           :::::::::::::::::::::::::::::::::::::::::::::::::::::::::::
           ::::::::::::::: Optimization Control Center :::::::::::::::
           :::::::::::::::::::::::::::::::::::::::::::::::::::::::::::



                                Next geometry (au)
                                ------------------

 C         -0.0090529604            0.0072855425            1.4610179794
 C         -0.0259715254            0.0340359957           -1.4639340485
 H          1.9086857739           -0.0693165468            2.2125727533
 H         -0.9067304457            1.7072002186            2.2097180732
 H         -1.0345438868           -1.6160519081            2.2091183592
 H         -1.4182345709            1.3583979828           -2.2022412721
 H         -0.4801999474           -1.8407978756           -2.2031105437
 H          1.8141039877            0.5778104594           -2.2252450019





                             Optimization information
                             ------------------------

 Iteration number               :       2
 End of optimization            :       F 
 Energy at this geometry is     :     -78.303174
 Energy change from last geom.  :       0.001107
 Norm of gradient               :       0.017679
 Norm of step                   :       0.341908
 Updated trust radius           :       0.500000
 Total Hessian index            :       0




 **************************************************************************************
 ****************** Output of molecule and basis set info suppressed ******************
 **************************************************************************************



                     .---------------------------------------.
                     | Starting in Integral Section (HERMIT) |
                     `---------------------------------------'



    *************************************************************************
    ****************** Output from HERMIT input processing ******************
    *************************************************************************


 Threshold for neglecting two-electron integrals:  1.00D-12
 Number of two-electron integrals written:        9139 ( 98.1% )
 Megabytes written:                              0.110

 >>>> Total CPU  time used in HERMIT:   0.05 seconds
 >>>> Total wall time used in HERMIT:   0.10 seconds


                        .----------------------------------.
                        | End of Integral Section (HERMIT) |
                        `----------------------------------'



                   .--------------------------------------------.
                   | Starting in Wave Function Section (SIRIUS) |
                   `--------------------------------------------'


 **********************************************************************
 *SIRIUS* a direct, restricted step, second order MCSCF program       *
 **********************************************************************

 (Wave function specification suppressed here, see output above for initial geometry.)


 >>>>> DIIS optimization of Hartree-Fock <<<<<

 C1-DIIS algorithm; max error vectors =   10

 Iter      Total energy        Error norm    Delta(E)  DIIS dim.
 -----------------------------------------------------------------------------
     (Precalculated two-electron integrals are transformed to P-supermatrix elements.
      Threshold for discarding integrals :  1.00D-12 )
@  1    -78.3001272326        1.19587D-01    3.05D-03    1
      Virial theorem: -V/T =      2.008412
@      MULPOP C      -0.17; C      -0.17; H       0.06; H       0.06; H       0.06; H       0.06; H       0.06; H       0.06; 
 -----------------------------------------------------------------------------
@  2    -78.3021106965        3.90062D-02   -1.98D-03    2
      Virial theorem: -V/T =      2.008446
@      MULPOP C      -0.17; C      -0.17; H       0.06; H       0.06; H       0.06; H       0.06; H       0.06; H       0.06; 
 -----------------------------------------------------------------------------
@  3    -78.3023497587        6.06715D-04   -2.39D-04    3
      Virial theorem: -V/T =      2.008438
@      MULPOP C      -0.17; C      -0.17; H       0.06; H       0.06; H       0.06; H       0.06; H       0.06; H       0.06; 
 -----------------------------------------------------------------------------
@  4    -78.3023498000        9.83554D-05   -4.13D-08    4
      Virial theorem: -V/T =      2.008442
@      MULPOP C      -0.17; C      -0.17; H       0.06; H       0.06; H       0.06; H       0.06; H       0.06; H       0.06; 
 -----------------------------------------------------------------------------
@  5    -78.3023498011        1.87904D-05   -1.08D-09    5
      Virial theorem: -V/T =      2.008441
@      MULPOP C      -0.17; C      -0.17; H       0.06; H       0.06; H       0.06; H       0.06; H       0.06; H       0.06; 
 -----------------------------------------------------------------------------
@  6    -78.3023498011        2.54547D-06   -4.20D-11    6

@ *** DIIS converged in   6 iterations !
@     Converged SCF energy, gradient:    -78.302349801124    2.55D-06
    - total time used in SIRFCK :              0.00 seconds


 *** SCF orbital energy analysis ***

 Only the five lowest virtual orbital energies printed in each symmetry.

 Number of electrons :   18
 Orbital occupations :    9

 Sym       Hartree-Fock orbital energies

  1    -11.03511367   -11.03469764    -0.97574701    -0.81127780    -0.56822836
        -0.56755650    -0.47127009    -0.45703811    -0.45625236     0.63151470
         0.63269906     0.67980151     0.73111460     0.77924675

    E(LUMO) :     0.63151470 au (symmetry 1)
  - E(HOMO) :    -0.45625236 au (symmetry 1)
  ------------------------------------------
    gap     :     1.08776706 au

 >>> Writing SIRIFC interface file <<<

 >>>> CPU and wall time for SCF :       0.004       0.014


                       .-----------------------------------.
                       | >>> Final results from SIRIUS <<< |
                       `-----------------------------------'


@    Spin multiplicity:           1
@    Spatial symmetry:            1
@    Total charge of molecule:    0

@    Final HF energy:             -78.302349801124                 
@    Nuclear repulsion:            42.012302642300
@    Electronic energy:          -120.314652443424

@    Final gradient norm:           0.000002545471

 
     Date and time (Linux)  : Sun Sep  8 20:38:44 2013
     Host name              : lpqlx131.ups-tlse.fr                    



 >>>> Total CPU  time used in SIRIUS :      0.01 seconds
 >>>> Total wall time used in SIRIUS :      0.01 seconds

 
     Date and time (Linux)  : Sun Sep  8 20:38:44 2013
     Host name              : lpqlx131.ups-tlse.fr                    


                     .---------------------------------------.
                     | End of Wave Function Section (SIRIUS) |
                     `---------------------------------------'

 Trust radius increased due to good ratio.
 Updated trust radius   0.50000

     Order of analytical energy-derivatives available:   2
     This will be the default.

 Center of mass dipole origin  :   -0.017910    0.020435   -0.001137

 Center of mass gauge origin   :   -0.017910    0.020435   -0.001137


                 .------------------------------------------------.
                 | Starting in Static Property Section (ABACUS) - |
                 `------------------------------------------------'


 
     Date and time (Linux)  : Sun Sep  8 20:38:44 2013
     Host name              : lpqlx131.ups-tlse.fr                    

 Largest deviation from tra-rot symmetry is in gradient element  2:  1.07E-07


   ***************************************************************************
   ************************ FINAL RESULTS from ABACUS ************************
   ***************************************************************************


 
     Date and time (Linux)  : Sun Sep  8 20:38:44 2013
     Host name              : lpqlx131.ups-tlse.fr                    


 CPU time statistics for ABACUS
 ------------------------------




 >>>> Total CPU  time used in ABACUS:   0.10 seconds
 >>>> Total wall time used in ABACUS:   0.20 seconds


                   .-------------------------------------------.
                   | End of Static Property Section (ABACUS) - |
                   `-------------------------------------------'


 Predicted energy change        0.000518860838635


           :::::::::::::::::::::::::::::::::::::::::::::::::::::::::::
           ::::::::::::::: Optimization Control Center :::::::::::::::
           :::::::::::::::::::::::::::::::::::::::::::::::::::::::::::



                                Next geometry (au)
                                ------------------

 C         -0.0167078197            0.0226390658            1.4619717682
 C         -0.0226682130            0.0162596929           -1.4600392239
 H          1.9135059972            0.0776465575            2.1805057256
 H         -1.0235858135            1.6532023772            2.2199731383
 H         -0.9232204620           -1.6855084927            2.1834357499
 H         -1.3237684843            1.4487541314           -2.1710160651
 H         -0.6087250415           -1.8131234055           -2.2196848559
 H          1.8532262618            0.4386939418           -2.1972499384





                             Optimization information
                             ------------------------

 Iteration number               :       3
 End of optimization            :       F 
 Energy at this geometry is     :     -78.302350
 Energy change from last geom.  :       0.000824
 Norm of gradient               :       0.016484
 Norm of step                   :       0.339308
 Updated trust radius           :       0.500000
 Total Hessian index            :       1




 **************************************************************************************
 ****************** Output of molecule and basis set info suppressed ******************
 **************************************************************************************



                     .---------------------------------------.
                     | Starting in Integral Section (HERMIT) |
                     `---------------------------------------'



    *************************************************************************
    ****************** Output from HERMIT input processing ******************
    *************************************************************************


 Threshold for neglecting two-electron integrals:  1.00D-12
 Number of two-electron integrals written:        9137 ( 98.1% )
 Megabytes written:                              0.110

 >>>> Total CPU  time used in HERMIT:   0.05 seconds
 >>>> Total wall time used in HERMIT:   0.09 seconds


                        .----------------------------------.
                        | End of Integral Section (HERMIT) |
                        `----------------------------------'



                   .--------------------------------------------.
                   | Starting in Wave Function Section (SIRIUS) |
                   `--------------------------------------------'


 **********************************************************************
 *SIRIUS* a direct, restricted step, second order MCSCF program       *
 **********************************************************************

 (Wave function specification suppressed here, see output above for initial geometry.)


 >>>>> DIIS optimization of Hartree-Fock <<<<<

 C1-DIIS algorithm; max error vectors =   10

 Iter      Total energy        Error norm    Delta(E)  DIIS dim.
 -----------------------------------------------------------------------------
     (Precalculated two-electron integrals are transformed to P-supermatrix elements.
      Threshold for discarding integrals :  1.00D-12 )
@  1    -78.2994055620        1.20025D-01    2.94D-03    1
      Virial theorem: -V/T =      2.008271
@      MULPOP C      -0.17; C      -0.17; H       0.06; H       0.06; H       0.06; H       0.06; H       0.06; H       0.06; 
 -----------------------------------------------------------------------------
@  2    -78.3014083620        3.92390D-02   -2.00D-03    2
      Virial theorem: -V/T =      2.008334
@      MULPOP C      -0.17; C      -0.17; H       0.06; H       0.06; H       0.06; H       0.06; H       0.06; H       0.06; 
 -----------------------------------------------------------------------------
@  3    -78.3016501976        5.24156D-04   -2.42D-04    3
      Virial theorem: -V/T =      2.008342
@      MULPOP C      -0.17; C      -0.17; H       0.06; H       0.06; H       0.06; H       0.06; H       0.06; H       0.06; 
 -----------------------------------------------------------------------------
@  4    -78.3016502307        6.56943D-05   -3.31D-08    4
      Virial theorem: -V/T =      2.008342
@      MULPOP C      -0.17; C      -0.17; H       0.06; H       0.06; H       0.06; H       0.06; H       0.06; H       0.06; 
 -----------------------------------------------------------------------------
@  5    -78.3016502312        1.10756D-05   -5.15D-10    5
      Virial theorem: -V/T =      2.008342
@      MULPOP C      -0.17; C      -0.17; H       0.06; H       0.06; H       0.06; H       0.06; H       0.06; H       0.06; 
 -----------------------------------------------------------------------------
@  6    -78.3016502312        2.45608D-06   -1.32D-11    6

@ *** DIIS converged in   6 iterations !
@     Converged SCF energy, gradient:    -78.301650231184    2.46D-06
    - total time used in SIRFCK :              0.00 seconds


 *** SCF orbital energy analysis ***

 Only the five lowest virtual orbital energies printed in each symmetry.

 Number of electrons :   18
 Orbital occupations :    9

 Sym       Hartree-Fock orbital energies

  1    -11.03449503   -11.03412632    -0.97649204    -0.80986427    -0.56957125
        -0.56906974    -0.46956371    -0.45659510    -0.45615537     0.62963144
         0.63183908     0.68123595     0.72641086     0.78023680

    E(LUMO) :     0.62963144 au (symmetry 1)
  - E(HOMO) :    -0.45615537 au (symmetry 1)
  ------------------------------------------
    gap     :     1.08578681 au

 >>> Writing SIRIFC interface file <<<

 >>>> CPU and wall time for SCF :       0.004       0.014


                       .-----------------------------------.
                       | >>> Final results from SIRIUS <<< |
                       `-----------------------------------'


@    Spin multiplicity:           1
@    Spatial symmetry:            1
@    Total charge of molecule:    0

@    Final HF energy:             -78.301650231184                 
@    Nuclear repulsion:            42.058465660692
@    Electronic energy:          -120.360115891876

@    Final gradient norm:           0.000002456079

 
     Date and time (Linux)  : Sun Sep  8 20:38:44 2013
     Host name              : lpqlx131.ups-tlse.fr                    



 >>>> Total CPU  time used in SIRIUS :      0.01 seconds
 >>>> Total wall time used in SIRIUS :      0.01 seconds

 
     Date and time (Linux)  : Sun Sep  8 20:38:44 2013
     Host name              : lpqlx131.ups-tlse.fr                    


                     .---------------------------------------.
                     | End of Wave Function Section (SIRIUS) |
                     `---------------------------------------'

 Trust radius increased due to good ratio.
 Updated trust radius   0.50000

     Order of analytical energy-derivatives available:   2
     This will be the default.

 Center of mass dipole origin  :   -0.019502    0.019549    0.000636

 Center of mass gauge origin   :   -0.019502    0.019549    0.000636


                 .------------------------------------------------.
                 | Starting in Static Property Section (ABACUS) - |
                 `------------------------------------------------'


 
     Date and time (Linux)  : Sun Sep  8 20:38:44 2013
     Host name              : lpqlx131.ups-tlse.fr                    

 Largest deviation from tra-rot symmetry is in gradient element  2:  1.72E-07


   ***************************************************************************
   ************************ FINAL RESULTS from ABACUS ************************
   ***************************************************************************


 
     Date and time (Linux)  : Sun Sep  8 20:38:44 2013
     Host name              : lpqlx131.ups-tlse.fr                    


 CPU time statistics for ABACUS
 ------------------------------




 >>>> Total CPU  time used in ABACUS:   0.10 seconds
 >>>> Total wall time used in ABACUS:   0.13 seconds


                   .-------------------------------------------.
                   | End of Static Property Section (ABACUS) - |
                   `-------------------------------------------'


 Predicted energy change        0.000002150304598


           :::::::::::::::::::::::::::::::::::::::::::::::::::::::::::
           ::::::::::::::: Optimization Control Center :::::::::::::::
           :::::::::::::::::::::::::::::::::::::::::::::::::::::::::::



                                Next geometry (au)
                                ------------------

 C         -0.0136491042           -0.0015857659            1.4645055525
 C         -0.0358513701            0.0370591433           -1.4659543617
 H          1.9074390686            0.1992955570            2.1957134741
 H         -1.1336403014            1.5608548133            2.2011241030
 H         -0.7962356971           -1.7438920145            2.2291428068
 H         -1.2228293004            1.5435315659           -2.2183480958
 H         -0.7336187216           -1.7505728916           -2.2056873918
 H          1.8764418513            0.3138734609           -2.2025997883





                             Optimization information
                             ------------------------

 Iteration number               :       4
 End of optimization            :       F 
 Energy at this geometry is     :     -78.301650
 Energy change from last geom.  :       0.000700
 Norm of gradient               :       0.016265
 Norm of step                   :       0.340874
 Updated trust radius           :       0.500000
 Total Hessian index            :       1




 **************************************************************************************
 ****************** Output of molecule and basis set info suppressed ******************
 **************************************************************************************



                     .---------------------------------------.
                     | Starting in Integral Section (HERMIT) |
                     `---------------------------------------'



    *************************************************************************
    ****************** Output from HERMIT input processing ******************
    *************************************************************************


 Threshold for neglecting two-electron integrals:  1.00D-12
 Number of two-electron integrals written:        9139 ( 98.1% )
 Megabytes written:                              0.110

 >>>> Total CPU  time used in HERMIT:   0.05 seconds
 >>>> Total wall time used in HERMIT:   0.05 seconds


                        .----------------------------------.
                        | End of Integral Section (HERMIT) |
                        `----------------------------------'



                   .--------------------------------------------.
                   | Starting in Wave Function Section (SIRIUS) |
                   `--------------------------------------------'


 **********************************************************************
 *SIRIUS* a direct, restricted step, second order MCSCF program       *
 **********************************************************************

 (Wave function specification suppressed here, see output above for initial geometry.)


 >>>>> DIIS optimization of Hartree-Fock <<<<<

 C1-DIIS algorithm; max error vectors =   10

 Iter      Total energy        Error norm    Delta(E)  DIIS dim.
 -----------------------------------------------------------------------------
     (Precalculated two-electron integrals are transformed to P-supermatrix elements.
      Threshold for discarding integrals :  1.00D-12 )
@  1    -78.2990366791        1.20316D-01    2.61D-03    1
      Virial theorem: -V/T =      2.008327
@      MULPOP C      -0.17; C      -0.17; H       0.06; H       0.06; H       0.06; H       0.06; H       0.06; H       0.06; 
 -----------------------------------------------------------------------------
@  2    -78.3010467109        3.92517D-02   -2.01D-03    2
      Virial theorem: -V/T =      2.008376
@      MULPOP C      -0.17; C      -0.17; H       0.06; H       0.06; H       0.06; H       0.06; H       0.06; H       0.06; 
 -----------------------------------------------------------------------------
@  3    -78.3012887930        6.20022D-04   -2.42D-04    3
      Virial theorem: -V/T =      2.008377
@      MULPOP C      -0.17; C      -0.17; H       0.06; H       0.06; H       0.06; H       0.06; H       0.06; H       0.06; 
 -----------------------------------------------------------------------------
@  4    -78.3012888373        8.34505D-05   -4.44D-08    4
      Virial theorem: -V/T =      2.008379
[...]
 H          1.8893087761            0.2360552918            2.1957631841
 H         -1.1558259600            1.5429203303            2.2131393858
 H         -0.7650402809           -1.7477179405            2.1972312772
 H         -1.1897318942            1.5488455758           -2.1920487627
 H         -0.7622911193           -1.7373800046           -2.2069227281
 H          1.8694795387            0.2761090453           -2.2088137088





                             Optimization information
                             ------------------------

 Iteration number               :      12
 End of optimization            :       F 
 Energy at this geometry is     :     -78.301607
 Energy change from last geom.  :      -0.000003
 Norm of gradient               :       0.000595
 Norm of step                   :       0.005043
 Updated trust radius           :       0.025000
 Total Hessian index            :       1




 **************************************************************************************
 ****************** Output of molecule and basis set info suppressed ******************
 **************************************************************************************



                     .---------------------------------------.
                     | Starting in Integral Section (HERMIT) |
                     `---------------------------------------'



    *************************************************************************
    ****************** Output from HERMIT input processing ******************
    *************************************************************************


 Threshold for neglecting two-electron integrals:  1.00D-12
 Number of two-electron integrals written:        9137 ( 98.1% )
 Megabytes written:                              0.110

 >>>> Total CPU  time used in HERMIT:   0.05 seconds
 >>>> Total wall time used in HERMIT:   0.05 seconds


                        .----------------------------------.
                        | End of Integral Section (HERMIT) |
                        `----------------------------------'



                   .--------------------------------------------.
                   | Starting in Wave Function Section (SIRIUS) |
                   `--------------------------------------------'


 **********************************************************************
 *SIRIUS* a direct, restricted step, second order MCSCF program       *
 **********************************************************************

 (Wave function specification suppressed here, see output above for initial geometry.)


 >>>>> DIIS optimization of Hartree-Fock <<<<<

 C1-DIIS algorithm; max error vectors =   10

 Iter      Total energy        Error norm    Delta(E)  DIIS dim.
 -----------------------------------------------------------------------------
     (Precalculated two-electron integrals are transformed to P-supermatrix elements.
      Threshold for discarding integrals :  1.00D-12 )
@  1    -78.3016061023        1.75920D-03    7.17D-07    1
      Virial theorem: -V/T =      2.008037
@      MULPOP C      -0.18; C      -0.18; H       0.06; H       0.06; H       0.06; H       0.06; H       0.06; H       0.06; 
 -----------------------------------------------------------------------------
@  2    -78.3016065289        5.73646D-04   -4.27D-07    2
      Virial theorem: -V/T =      2.008037
@      MULPOP C      -0.18; C      -0.18; H       0.06; H       0.06; H       0.06; H       0.06; H       0.06; H       0.06; 
 -----------------------------------------------------------------------------
@  3    -78.3016065806        1.35616D-05   -5.17D-08    3
      Virial theorem: -V/T =      2.008037
@      MULPOP C      -0.18; C      -0.18; H       0.06; H       0.06; H       0.06; H       0.06; H       0.06; H       0.06; 
 -----------------------------------------------------------------------------
@  4    -78.3016065807        2.01652D-06   -2.30D-11    4

@ *** DIIS converged in   4 iterations !
@     Converged SCF energy, gradient:    -78.301606580658    2.02D-06
    - total time used in SIRFCK :              0.00 seconds


 *** SCF orbital energy analysis ***

 Only the five lowest virtual orbital energies printed in each symmetry.

 Number of electrons :   18
 Orbital occupations :    9

 Sym       Hartree-Fock orbital energies

  1    -11.03421507   -11.03386270    -0.97769988    -0.81380790    -0.57053175
        -0.57049046    -0.47092212    -0.45861307    -0.45857862     0.63384032
         0.63393694     0.67877744     0.73602114     0.78953610

    E(LUMO) :     0.63384032 au (symmetry 1)
  - E(HOMO) :    -0.45857862 au (symmetry 1)
  ------------------------------------------
    gap     :     1.09241894 au

 >>> Writing SIRIFC interface file <<<

 >>>> CPU and wall time for SCF :       0.002       0.002


                       .-----------------------------------.
                       | >>> Final results from SIRIUS <<< |
                       `-----------------------------------'


@    Spin multiplicity:           1
@    Spatial symmetry:            1
@    Total charge of molecule:    0

@    Final HF energy:             -78.301606580658                 
@    Nuclear repulsion:            42.144518635399
@    Electronic energy:          -120.446125216057

@    Final gradient norm:           0.000002016519

 
     Date and time (Linux)  : Sun Sep  8 20:38:45 2013
     Host name              : lpqlx131.ups-tlse.fr                    



 >>>> Total CPU  time used in SIRIUS :      0.00 seconds
 >>>> Total wall time used in SIRIUS :      0.00 seconds

 
     Date and time (Linux)  : Sun Sep  8 20:38:45 2013
     Host name              : lpqlx131.ups-tlse.fr                    


                     .---------------------------------------.
                     | End of Wave Function Section (SIRIUS) |
                     `---------------------------------------'

 Trust radius squarely decreased due to bad ratio.
 Updated trust radius   0.02500

     Order of analytical energy-derivatives available:   2
     This will be the default.

 Center of mass dipole origin  :   -0.018941    0.019854   -0.000236

 Center of mass gauge origin   :   -0.018941    0.019854   -0.000236


                 .------------------------------------------------.
                 | Starting in Static Property Section (ABACUS) - |
                 `------------------------------------------------'


 
     Date and time (Linux)  : Sun Sep  8 20:38:45 2013
     Host name              : lpqlx131.ups-tlse.fr                    

 Largest deviation from tra-rot symmetry is in gradient element  4:  1.10E-07


   ***************************************************************************
   ************************ FINAL RESULTS from ABACUS ************************
   ***************************************************************************


 
     Date and time (Linux)  : Sun Sep  8 20:38:45 2013
     Host name              : lpqlx131.ups-tlse.fr                    


 CPU time statistics for ABACUS
 ------------------------------




 >>>> Total CPU  time used in ABACUS:   0.10 seconds
 >>>> Total wall time used in ABACUS:   0.10 seconds


                   .-------------------------------------------.
                   | End of Static Property Section (ABACUS) - |
                   `-------------------------------------------'


 Predicted energy change        0.000000290817164


           :::::::::::::::::::::::::::::::::::::::::::::::::::::::::::
           ::::::::::::::: Optimization Control Center :::::::::::::::
           :::::::::::::::::::::::::::::::::::::::::::::::::::::::::::



                               Final geometry (au)
                               -------------------

 C         -0.0133527398            0.0137530907            1.4624681029
 C         -0.0244898957            0.0259784795           -1.4629204517
 H          1.8893087761            0.2360552918            2.1957631841
 H         -1.1558259600            1.5429203303            2.2131393858
 H         -0.7650402809           -1.7477179405            2.1972312772
 H         -1.1897318942            1.5488455758           -2.1920487627
 H         -0.7622911193           -1.7373800046           -2.2069227281
 H          1.8694795387            0.2761090453           -2.2088137088





                             Optimization information
                             ------------------------

 Iteration number               :      13
 End of optimization            :       T 
 Energy at this geometry is     :     -78.301607
 Energy change from last geom.  :       0.000000
 Norm of gradient               :       0.000366
 Norm of step                   :       0.008426
 Updated trust radius           :       0.025000
 Total Hessian index            :       1



 Center of mass dipole origin  :   -0.018941    0.019854   -0.000236

 Center of mass gauge origin   :   -0.018941    0.019854   -0.000236


                 .------------------------------------------------.
                 | Starting in Static Property Section (ABACUS) - |
                 `------------------------------------------------'


 
     Date and time (Linux)  : Sun Sep  8 20:38:45 2013
     Host name              : lpqlx131.ups-tlse.fr                    


   ***************************************************************************
   ************************ FINAL RESULTS from ABACUS ************************
   ***************************************************************************


 
     Date and time (Linux)  : Sun Sep  8 20:38:45 2013
     Host name              : lpqlx131.ups-tlse.fr                    


                             Molecular geometry (au)
                             -----------------------

 C         -0.0133527398            0.0137530907            1.4624681029
 C         -0.0244898957            0.0259784795           -1.4629204517
 H          1.8893087761            0.2360552918            2.1957631841
 H         -1.1558259600            1.5429203303            2.2131393858
 H         -0.7650402809           -1.7477179405            2.1972312772
 H         -1.1897318942            1.5488455758           -2.1920487627
 H         -0.7622911193           -1.7373800046           -2.2069227281
 H          1.8694795387            0.2761090453           -2.2088137088





                        Molecular wave function and energy
                        ----------------------------------

     Spin multiplicity  1     State number       1     Total charge       0

     Total energy        -78.3016065807 au (Hartrees)
                         -2130.69510092 eV
                           -205580.8364 kJ/mol


                             Relativistic corrections
                             ------------------------

     Darwin correction:                          0.0776903105 au
     Mass-velocity correction:                  -0.0979614375 au

     Total relativistic correction:             -0.0202711270 au (0.0259%)
     Non-relativistic + relativistic energy:   -78.3218777077 au




                                  Dipole moment
                                  -------------

                 au               Debye          C m (/(10**-30)
              0.000020           0.000051           0.000170


                             Dipole moment components
                             ------------------------

                 au               Debye          C m (/(10**-30)

      x      0.00001504         0.00003824         0.00012754
      y     -0.00001293        -0.00003287        -0.00010965
      z      0.00000270         0.00000687         0.00002290


   Units:   1 a.u. =   2.54175 Debye 
            1 a.u. =   8.47835 (10**-30) C m (SI)




   Interatomic separations (in Angstrom):
   --------------------------------------

            C           C           H           H           H           H     
            ------      ------      ------      ------      ------      ------
 C     :    0.000000
 C     :    1.548074    0.000000
 H     :    1.085428    2.187796    0.000000
 H     :    1.085407    2.187906    1.753569    0.000000
 H     :    1.085483    2.187693    1.753560    1.753587    0.000000
 H     :    2.187997    1.085593    2.920406    2.331196    2.913527    0.000000
 H     :    2.187737    1.085436    2.913315    2.920185    2.330585    1.753662
 H     :    2.187762    1.085270    2.330922    2.913405    2.920071    1.753399

            H           H     
            ------      ------
 H     :    0.000000
 H     :    1.753515    0.000000


  Max    interatomic separation is    2.9204 Angstrom (    5.5188 Bohr)
  between atoms    6 and    3, "H     " and "H     ".

  Min HX interatomic separation is    1.0853 Angstrom (    2.0509 Bohr)

  Min YX interatomic separation is    1.5481 Angstrom (    2.9254 Bohr)


  Bond distances (Angstrom):
  --------------------------

                  atom 1     atom 2       distance
                  ------     ------       --------
  bond distance:  C          C            1.548074
  bond distance:  H          C            1.085428
  bond distance:  H          C            1.085407
  bond distance:  H          C            1.085483
  bond distance:  H          C            1.085593
  bond distance:  H          C            1.085436
  bond distance:  H          C            1.085270


  Bond angles (degrees):
  ----------------------

                  atom 1     atom 2     atom 3         angle
                  ------     ------     ------         -----
  bond angle:     C          C          H            111.136
  bond angle:     C          C          H            111.146
  bond angle:     C          C          H            111.124
  bond angle:     H          C          H            107.760
  bond angle:     H          C          H            107.754
  bond angle:     H          C          H            107.758
  bond angle:     C          C          H            111.142
  bond angle:     C          C          H            111.130
  bond angle:     C          C          H            111.142
  bond angle:     H          C          H            107.755
  bond angle:     H          C          H            107.743
  bond angle:     H          C          H            107.765




 CPU time statistics for ABACUS
 ------------------------------




 >>>> Total CPU  time used in ABACUS:   0.01 seconds
 >>>> Total wall time used in ABACUS:   0.01 seconds


                   .-------------------------------------------.
                   | End of Static Property Section (ABACUS) - |
                   `-------------------------------------------'



          <<<<<<<<<<<<<<<<<<<<<<<<<<<<<<<<<<<<<<<<<<<<<<<<<<<<<<<<<<<<<<
          <<<<<<<<<<<<<<<<<<<<  End of Optimization <<<<<<<<<<<<<<<<<<<<
          <<<<<<<<<<<<<<<<<<<<<<<<<<<<<<<<<<<<<<<<<<<<<<<<<<<<<<<<<<<<<<



                                  Final geometry
                                  --------------

 C         -0.0133527398            0.0137530907            1.4624681029
 C         -0.0244898957            0.0259784795           -1.4629204517
 H          1.8893087761            0.2360552918            2.1957631841
 H         -1.1558259600            1.5429203303            2.2131393858
 H         -0.7650402809           -1.7477179405            2.1972312772
 H         -1.1897318942            1.5488455758           -2.1920487627
 H         -0.7622911193           -1.7373800046           -2.2069227281
 H          1.8694795387            0.2761090453           -2.2088137088



@ Iter      Energy        Change       GradNorm  Index   StepLen    TrustRad #Rej
@ -------------------------------------------------------------------------------
@   0      -78.300809     0.000000     0.097518    0    0.364997*   0.500000   0 
@   1      -78.304280    -0.003471     0.008828    0    0.340407*   0.500000   0 
@   2      -78.303174     0.001107     0.017679    0    0.341908*   0.500000   0 
@   3      -78.302350     0.000824     0.016484    1    0.339308*   0.500000   0 
@   4      -78.301650     0.000700     0.016265    1    0.340874*   0.500000   0 
@   5      -78.301289     0.000361     0.017183    1    0.099836*   0.167028   0 
@   6      -78.301583    -0.000295     0.007118    1    0.064605*   0.099836   0 
@   7      -78.301621    -0.000038     0.002380    1    0.037260*   0.099836   0 
@   8      -78.301610     0.000011     0.002560    1    0.011909*   0.025000   0 
@   9      -78.301611    -0.000001     0.001846    1    0.025000    0.025000   0 
@  10      -78.301608     0.000003     0.001371    1    0.019220*   0.030000   0 
@  11      -78.301604     0.000004     0.001588    1    0.009539*   0.025000   0 
@  12      -78.301607    -0.000003     0.000595    1    0.005043*   0.025000   0 
@  13      -78.301607     0.000000     0.000366    1    0.008426*   0.025000   0 

@  *) Newton step taken.


   Interatomic separations (in Angstrom):
   --------------------------------------

            C           C           H           H           H           H     
            ------      ------      ------      ------      ------      ------
 C     :    0.000000
 C     :    1.548074    0.000000
 H     :    1.085428    2.187796    0.000000
 H     :    1.085407    2.187906    1.753569    0.000000
 H     :    1.085483    2.187693    1.753560    1.753587    0.000000
 H     :    2.187997    1.085593    2.920406    2.331196    2.913527    0.000000
 H     :    2.187737    1.085436    2.913315    2.920185    2.330585    1.753662
 H     :    2.187762    1.085270    2.330922    2.913405    2.920071    1.753399

            H           H     
            ------      ------
 H     :    0.000000
 H     :    1.753515    0.000000


  Max    interatomic separation is    2.9204 Angstrom (    5.5188 Bohr)
  between atoms    6 and    3, "H     " and "H     ".

  Min HX interatomic separation is    1.0853 Angstrom (    2.0509 Bohr)

  Min YX interatomic separation is    1.5481 Angstrom (    2.9254 Bohr)


  Bond distances (Angstrom):
  --------------------------

                  atom 1     atom 2       distance
                  ------     ------       --------
  bond distance:  C          C            1.548074
  bond distance:  H          C            1.085428
  bond distance:  H          C            1.085407
  bond distance:  H          C            1.085483
  bond distance:  H          C            1.085593
  bond distance:  H          C            1.085436
  bond distance:  H          C            1.085270


  Bond angles (degrees):
  ----------------------

                  atom 1     atom 2     atom 3         angle
                  ------     ------     ------         -----
  bond angle:     C          C          H            111.136
  bond angle:     C          C          H            111.146
  bond angle:     C          C          H            111.124
  bond angle:     H          C          H            107.760
  bond angle:     H          C          H            107.754
  bond angle:     H          C          H            107.758
  bond angle:     C          C          H            111.142
  bond angle:     C          C          H            111.130
  bond angle:     C          C          H            111.142
  bond angle:     H          C          H            107.755
  bond angle:     H          C          H            107.743
  bond angle:     H          C          H            107.765



@ Geometry converged in 14 iterations!

@ Energy at final geometry is       :     -78.301607 a.u.
@ Energy change during optimization :      -0.000797 a.u.
@                                             -2.093 kJ/mol

 >>>> Total CPU  time used in DALTON:   2.28 seconds
 >>>> Total wall time used in DALTON:   2.74 seconds

 
     Date and time (Linux)  : Sun Sep  8 20:38:45 2013
     Host name              : lpqlx131.ups-tlse.fr                    
