

     ************************************************************************
     *************** Dalton - An Electronic Structure Program ***************
     ************************************************************************

    This is output from DALTON 2016.alpha
   ----------------------------------------------------------------------------
    NOTE:
     
    Dalton is an experimental code for the evaluation of molecular
    properties using (MC)SCF, DFT, CI, and CC wave functions.
    The authors accept no responsibility for the performance of
    the code or for the correctness of the results.
     
    The code (in whole or part) is provided under a licence and
    is not to be reproduced for further distribution without
    the written permission of the authors or their representatives.
     
    See the home page "http://daltonprogram.org" for further information.
     
    If results obtained with this code are published,
    the appropriate citations would be both of:
     
       K. Aidas, C. Angeli, K. L. Bak, V. Bakken, R. Bast,
       L. Boman, O. Christiansen, R. Cimiraglia, S. Coriani,
       J. Cukras, P. Dahle, E. K. Dalskov, U. Ekstroem,
       T. Enevoldsen, J. J. Eriksen, P. Ettenhuber, B. Fernandez,
       L. Ferrighi, H. Fliegl, L. Frediani, K. Hald, A. Halkier,
       C. Haettig, H. Heiberg, T. Helgaker, A. C. Hennum,
       H. Hettema, E. Hjertenaes, S. Hoest, I.-M. Hoeyvik,
       M. F. Iozzi, B. Jansik, H. J. Aa. Jensen, D. Jonsson,
       P. Joergensen, M. Kaminski, J. Kauczor, S. Kirpekar,
       T. Kjaergaard, W. Klopper, S. Knecht, R. Kobayashi, H. Koch,
       J. Kongsted, A. Krapp, K. Kristensen, A. Ligabue,
       O. B. Lutnaes, J. I. Melo, K. V. Mikkelsen, R. H. Myhre,
       C. Neiss, C. B. Nielsen, P. Norman, J. Olsen,
       J. M. H. Olsen, A. Osted, M. J. Packer, F. Pawlowski,
       T. B. Pedersen, P. F. Provasi, S. Reine, Z. Rinkevicius,
       T. A. Ruden, K. Ruud, V. Rybkin, P. Salek, C. C. M. Samson,
       A. Sanchez de Meras, T. Saue, S. P. A. Sauer,
       B. Schimmelpfennig, K. Sneskov, A. H. Steindal,
       K. O. Sylvester-Hvid, P. R. Taylor, A. M. Teale,
       E. I. Tellgren, D. P. Tew, A. J. Thorvaldsen, L. Thoegersen,
       O. Vahtras, M. A. Watson, D. J. D. Wilson, M. Ziolkowski
       and H. Agren,
       "The Dalton quantum chemistry program system",
       WIREs Comput. Mol. Sci. 2013. (doi: 10.1002/wcms.1172)
    
    and
    
       Dalton, a Molecular Electronic Structure Program,
       Release DALTON2015.alpha (2015), see http://daltonprogram.org
   ----------------------------------------------------------------------------

    Authors in alphabetical order (major contribution(s) in parenthesis):

  Kestutis Aidas,           Vilnius University,           Lithuania   (QM/MM)
  Celestino Angeli,         University of Ferrara,        Italy       (NEVPT2)
  Keld L. Bak,              UNI-C,                        Denmark     (AOSOPPA, non-adiabatic coupling, magnetic properties)
  Vebjoern Bakken,          University of Oslo,           Norway      (DALTON; geometry optimizer, symmetry detection)
  Radovan Bast,             KTH Stockholm,                Sweden      (DALTON installation and execution frameworks)
  Pablo Baudin,             University of Valencia,       Spain       (Cholesky excitation energies)
  Linus Boman,              NTNU,                         Norway      (Cholesky decomposition and subsystems)
  Ove Christiansen,         Aarhus University,            Denmark     (CC module)
  Renzo Cimiraglia,         University of Ferrara,        Italy       (NEVPT2)
  Sonia Coriani,            University of Trieste,        Italy       (CC module, MCD in RESPONS)
  Janusz Cukras,            University of Trieste,        Italy       (MChD in RESPONS)
  Paal Dahle,               University of Oslo,           Norway      (Parallelization)
  Erik K. Dalskov,          UNI-C,                        Denmark     (SOPPA)
  Thomas Enevoldsen,        Univ. of Southern Denmark,    Denmark     (SOPPA)
  Janus J. Eriksen,         Aarhus University,            Denmark     (Polarizable embedding model, TDA)
  Berta Fernandez,          U. of Santiago de Compostela, Spain       (doublet spin, ESR in RESPONS)
  Lara Ferrighi,            Aarhus University,            Denmark     (PCM Cubic response)
  Heike Fliegl,             University of Oslo,           Norway      (CCSD(R12))
  Luca Frediani,            UiT The Arctic U. of Norway,  Norway      (PCM)
  Bin Gao,                  UiT The Arctic U. of Norway,  Norway      (Gen1Int library)
  Christof Haettig,         Ruhr-University Bochum,       Germany     (CC module)
  Kasper Hald,              Aarhus University,            Denmark     (CC module)
  Asger Halkier,            Aarhus University,            Denmark     (CC module)
  Erik D. Hedegaard,        Univ. of Southern Denmark,    Denmark     (Polarizable embedding model, QM/MM)
  Hanne Heiberg,            University of Oslo,           Norway      (geometry analysis, selected one-electron integrals)
  Trygve Helgaker,          University of Oslo,           Norway      (DALTON; ABACUS, ERI, DFT modules, London, and much more)
  Alf Christian Hennum,     University of Oslo,           Norway      (Parity violation)
  Hinne Hettema,            University of Auckland,       New Zealand (quadratic response in RESPONS; SIRIUS supersymmetry)
  Eirik Hjertenaes,         NTNU,                         Norway      (Cholesky decomposition)
  Maria Francesca Iozzi,    University of Oslo,           Norway      (RPA)
  Brano Jansik              Technical Univ. of Ostrava    Czech Rep.  (DFT cubic response)
  Hans Joergen Aa. Jensen,  Univ. of Southern Denmark,    Denmark     (DALTON; SIRIUS, RESPONS, ABACUS modules, London, and much more)
  Dan Jonsson,              UiT The Arctic U. of Norway,  Norway      (cubic response in RESPONS module)
  Poul Joergensen,          Aarhus University,            Denmark     (RESPONS, ABACUS, and CC modules)
  Maciej Kaminski,          University of Warsaw,         Poland      (CPPh in RESPONS)
  Joanna Kauczor,           Linkoeping University,        Sweden      (Complex polarization propagator (CPP) module)
  Sheela Kirpekar,          Univ. of Southern Denmark,    Denmark     (Mass-velocity & Darwin integrals)
  Wim Klopper,              KIT Karlsruhe,                Germany     (R12 code in CC, SIRIUS, and ABACUS modules)
  Stefan Knecht,            ETH Zurich,                   Switzerland (Parallel CI and MCSCF)
  Rika Kobayashi,           Australian National Univ.,    Australia   (DIIS in CC, London in MCSCF)
  Henrik Koch,              NTNU,                         Norway      (CC module, Cholesky decomposition)
  Jacob Kongsted,           Univ. of Southern Denmark,    Denmark     (Polarizable embedding model, QM/MM)
  Andrea Ligabue,           University of Modena,         Italy       (CTOCD, AOSOPPA)
  Nanna H. List             Univ. of Southern Denmark,    Denmark     (Polarizable embedding model)
  Ola B. Lutnaes,           University of Oslo,           Norway      (DFT Hessian)
  Juan I. Melo,             University of Buenos Aires,   Argentina   (LRESC, Relativistic Effects on NMR Shieldings)
  Kurt V. Mikkelsen,        University of Copenhagen,     Denmark     (MC-SCRF and QM/MM)
  Rolf H. Myhre,            NTNU,                         Norway      (Cholesky, subsystems and ECC2)
  Christian Neiss,          Univ. Erlangen-Nuernberg,     Germany     (CCSD(R12))
  Christian B. Nielsen,     University of Copenhagen,     Denmark     (QM/MM)
  Patrick Norman,           Linkoeping University,        Sweden      (Cubic response and complex response in RESPONS)
  Jeppe Olsen,              Aarhus University,            Denmark     (SIRIUS CI/density modules)
  Jogvan Magnus H. Olsen,   Univ. of Southern Denmark,    Denmark     (Polarizable embedding model, QM/MM)
  Anders Osted,             Copenhagen University,        Denmark     (QM/MM)
  Martin J. Packer,         University of Sheffield,      UK          (SOPPA)
  Filip Pawlowski,          Kazimierz Wielki University,  Poland      (CC3)
  Morten N. Pedersen,       Univ. of Southern Denmark,    Denmark     (Polarizable embedding model)
  Thomas B. Pedersen,       University of Oslo,           Norway      (Cholesky decomposition)
  Patricio F. Provasi,      University of Northeastern,   Argentina   (Analysis of coupling constants in localized orbitals)
  Zilvinas Rinkevicius,     KTH Stockholm,                Sweden      (open-shell DFT, ESR)
  Elias Rudberg,            KTH Stockholm,                Sweden      (DFT grid and basis info)
  Torgeir A. Ruden,         University of Oslo,           Norway      (Numerical derivatives in ABACUS)
  Kenneth Ruud,             UiT The Arctic U. of Norway,  Norway      (DALTON; ABACUS magnetic properties and much more)
  Pawel Salek,              KTH Stockholm,                Sweden      (DALTON; DFT code)
  Claire C. M. Samson       University of Karlsruhe       Germany     (Boys localization, r12 integrals in ERI)
  Alfredo Sanchez de Meras, University of Valencia,       Spain       (CC module, Cholesky decomposition)
  Trond Saue,               Paul Sabatier University,     France      (direct Fock matrix construction)
  Stephan P. A. Sauer,      University of Copenhagen,     Denmark     (SOPPA(CCSD), SOPPA prop., AOSOPPA, vibrational g-factors)
  Bernd Schimmelpfennig,    Forschungszentrum Karlsruhe,  Germany     (AMFI module)
  Kristian Sneskov,         Aarhus University,            Denmark     (Polarizable embedding model, QM/MM)
  Arnfinn H. Steindal,      UiT The Arctic U. of Norway,  Norway      (parallel QM/MM, Polarizable embedding model)
  Casper Steinmann,         Univ. of Southern Denmark,    Denmark     (QFIT, Polarizable embedding model)
  K. O. Sylvester-Hvid,     University of Copenhagen,     Denmark     (MC-SCRF)
  Peter R. Taylor,          VLSCI/Univ. of Melbourne,     Australia   (Symmetry handling ABACUS, integral transformation)
  Andrew M. Teale,          University of Nottingham,     England     (DFT-AC, DFT-D)
  David P. Tew,             University of Bristol,        England     (CCSD(R12))
  Olav Vahtras,             KTH Stockholm,                Sweden      (triplet response, spin-orbit, ESR, TDDFT, open-shell DFT)
  David J. Wilson,          La Trobe University,          Australia   (DFT Hessian and DFT magnetizabilities)
  Hans Agren,               KTH Stockholm,                Sweden      (SIRIUS module, RESPONS, MC-SCRF solvation model)
 --------------------------------------------------------------------------------

     Date and time (Linux)  : Tue Feb 17 10:55:54 2015
     Host name              : donkey                                  

 * Work memory size             :    64000000 =  488.28 megabytes.

 * Directories for basis set searches:
   1) /home/bast/devel/dalton/qmcmm/DALTON/test/qmcmm
   2) /home/bast/devel/dalton/qmcmm/build_opt/basis


Compilation information
-----------------------

 Who compiled             | bast
 Host                     | donkey
 System                   | Linux-3.13.0-44-generic
 CMake generator          | Unix Makefiles
 Processor                | x86_64
 64-bit integers          | OFF
 MPI                      | OFF
 Fortran compiler         | /opt/intel/composer_xe_2015.0.090/bin/intel64/ifor
                          | t
 Fortran compiler version | ifort (IFORT) 15.0.0 20140723
 C compiler               | /opt/intel/composer_xe_2015.0.090/bin/intel64/icc
 C compiler version       | icc (ICC) 15.0.0 20140723
 C++ compiler             | /opt/intel/composer_xe_2015.0.090/bin/intel64/icpc
 C++ compiler version     | icpc (ICC) 15.0.0 20140723
 Static linking           | OFF
 Last Git revision        | f3c46f6a2c8efda1c5d71700de5a9a681d3210db
 Git branch               | radovan/qmcmm
 Configuration time       | 2015-02-17 10:46:12.758320


   Content of the .dal input file
 ----------------------------------

**DALTON INPUT                                    
.RUN WAVE                                         
.DIRECT                                           
*QMNPMM                                           
.QMNP                                             
.DAMPED                                           
.PRINT                                            
 15                                               
**WAVE FUNCTIONS                                  
.HF                                               
*END OF DALTON INPUT                              


   Content of the .mol file
 ----------------------------

ATOMBASIS                                                                      
HF on gold surface                                                             
------------------------                                                       
AtomTypes=2 NoSymmetry Angstroms                                               
        9.0   1    Basis=cc-pVDZ                                               
F            0.00000    0.000000     2.500000                                  
        1.0   1    Basis=cc-pVDZ                                               
H            0.00000    0.000000     3.600000                                  


       *******************************************************************
       *********** Output from DALTON general input processing ***********
       *******************************************************************

 --------------------------------------------------------------------------------
   Overall default print level:    0
   Print level for DALTON.STAT:    1

    AO-direct calculation (in sections where implemented)
    HERMIT 1- and 2-electron integral sections will be executed
    "Old" integral transformation used (limited to max 255 basis functions)
    Wave function sections will be executed (SIRIUS module)
 --------------------------------------------------------------------------------


                  *********************************************
                  *** QM/NP Embedding: Nanoparticle(s) data ***
                  *********************************************


  Nanoparticle region contains single nanoparticle.

  Nanoparticle  1 with charge 0.000. Coordinates in au.
  --------------------------------------------------
  Atom    Coord. X    Coord. Y    Coord. Z   FF Type
  ==================================================
   Au     4.34637     0.00000     0.00000      1
   Au     0.00000     0.00000     0.00000      1
   Au    -4.34637     0.00000     0.00000      1
  ==================================================

  Static force field(s) data for nanoparticle region.
  -------------------------------------
  FF Type Polarizability    Capacitance
  =====================================
    1        39.52970         1.21590
  =====================================

  Dynamic force field(s) data for nanoparticle region.
  ---------------------------------------------------------
  FF Type Omega(1)  Gamma(1)  Omega(2)  Gamma(2)  Factor
  =========================================================
    1      0.00000   0.00000   0.00000   0.00000   0.00000
  =========================================================


   ****************************************************************************
   *************** Output of molecule and basis set information ***************
   ****************************************************************************


    The two title cards from your ".mol" input:
    ------------------------------------------------------------------------
 1: HF on gold surface                                                      
 2: ------------------------                                                
    ------------------------------------------------------------------------

  Coordinates are entered in Angstrom and converted to atomic units.
          - Conversion factor : 1 bohr = 0.52917721 A

  Atomic type no.    1
  --------------------
  Nuclear charge:   9.00000
  Number of symmetry independent centers:    1
  Number of basis sets to read;    2
  The basis set is "cc-pVDZ" from the basis set library.
  Basis set file used for this atomic type with Z =   9 :
     "/home/bast/devel/dalton/qmcmm/build_opt/basis/cc-pVDZ"

  Atomic type no.    2
  --------------------
  Nuclear charge:   1.00000
  Number of symmetry independent centers:    1
  Number of basis sets to read;    2
  The basis set is "cc-pVDZ" from the basis set library.
  Basis set file used for this atomic type with Z =   1 :
     "/home/bast/devel/dalton/qmcmm/build_opt/basis/cc-pVDZ"


                         SYMGRP: Point group information
                         -------------------------------

@    Point group: C1 


                                 Isotopic Masses
                                 ---------------

                           F          18.998403
                           H           1.007825

                       Total mass:    20.006228 amu
                       Natural abundance:  99.985 %

 Center-of-mass coordinates (a.u.):    0.000000    0.000000    4.829031


  Atoms and basis sets
  --------------------

  Number of atom types :    2
  Total number of atoms:    2

  label    atoms   charge   prim   cont     basis
  ----------------------------------------------------------------------
  F           1    9.0000    26    14      [9s4p1d|3s2p1d]                                    
  H           1    1.0000     7     5      [4s1p|2s1p]                                        
  ----------------------------------------------------------------------
  total:      2   10.0000    33    19
  ----------------------------------------------------------------------
  Spherical harmonic basis used.

  Threshold for neglecting AO integrals:  1.00D-12


  Cartesian Coordinates (a.u.)
  ----------------------------

  Total number of coordinates:    6
  F       :     1  x   0.0000000000    2  y   0.0000000000    3  z   4.7243153125
  H       :     4  x   0.0000000000    5  y   0.0000000000    6  z   6.8030140500


   Interatomic separations (in Angstrom):
   --------------------------------------

            F           H     
            ------      ------
 F     :    0.000000
 H     :    1.100000    0.000000


  Max    interatomic separation is    1.1000 Angstrom (    2.0787 Bohr)
  between atoms    2 and    1, "H     " and "F     ".

  Min HX interatomic separation is    1.1000 Angstrom (    2.0787 Bohr)


  Bond distances (Angstrom):
  --------------------------

                  atom 1     atom 2       distance
                  ------     ------       --------
  bond distance:  H          F            1.100000




 Principal moments of inertia (u*A**2) and principal axes
 --------------------------------------------------------

   IA       0.000000          0.000000    0.000000    1.000000
   IB       1.158037          0.000000    1.000000    0.000000
   IC       1.158037          1.000000    0.000000    0.000000


 Rotational constants
 --------------------

@    The molecule is linear.

               B =       436410.12 MHz     (   14.557075 cm-1)


@  Nuclear repulsion energy :    4.329631724727 Hartree


                     .---------------------------------------.
                     | Starting in Integral Section (HERMIT) |
                     `---------------------------------------'



 ***************************************************************************************
 ****************** Output from **INTEGRALS input processing (HERMIT) ******************
 ***************************************************************************************


 - Using defaults, no **INTEGRALS input found

 Default print level:        1

 * Nuclear model: Point charge

 Calculation of one-electron Hamiltonian integrals.

 Center of mass  (bohr):      0.000000000000      0.000000000000      4.829030931796
 Operator center (bohr):      0.000000000000      0.000000000000      0.000000000000
 Gauge origin    (bohr):      0.000000000000      0.000000000000      0.000000000000
 Dipole origin   (bohr):      0.000000000000      0.000000000000      0.000000000000


     ************************************************************************
     ************************** Output from HERINT **************************
     ************************************************************************

 >>>> Total CPU  time used in HERMIT:   0.02 seconds
 >>>> Total wall time used in HERMIT:   0.02 seconds


                        .----------------------------------.
                        | End of Integral Section (HERMIT) |
                        `----------------------------------'



                   .--------------------------------------------.
                   | Starting in Wave Function Section (SIRIUS) |
                   `--------------------------------------------'


 *** Output from Huckel module :

     Using EWMO model:          T
     Using EHT  model:          F
     Number of Huckel orbitals each symmetry:    6

 EWMO - Energy Weighted Maximum Overlap - is a Huckel type method,
        which normally is better than Extended Huckel Theory.
 Reference: Linderberg and Ohrn, Propagators in Quantum Chemistry (Wiley, 1973)

 Huckel EWMO eigenvalues for symmetry :  1
          -26.383492      -1.672506      -0.827058      -0.730000      -0.730000
           -0.302144

 **********************************************************************
 *SIRIUS* a direct, restricted step, second order MCSCF program       *
 **********************************************************************

 
     Date and time (Linux)  : Tue Feb 17 10:55:54 2015
     Host name              : donkey                                  

 Title lines from ".mol" input file:
     HF on gold surface                                                      
     ------------------------                                                

 Print level on unit LUPRI =   2 is   0
 Print level on unit LUW4  =   2 is   5

@    Restricted, closed shell Hartree-Fock calculation.
 Fock matrices are calculated directly without use of integrals on disk.

 Initial molecular orbitals are obtained according to
 ".MOSTART EWMO  " input option

@    QM part is embedded in an environment :

     Wave function specification
     ============================
@    Wave function type        >>> HF <<<
@    Number of closed shell electrons          10
@    Number of electrons in active shells       0
@    Total charge of the molecule               0

@    Spin multiplicity and 2 M_S                1         0
@    Total number of symmetries                 1 (point group: C1 )
@    Reference state symmetry                   1 (irrep name : A  )

     Orbital specifications
     ======================
@    Abelian symmetry species          All |    1
@                                          |  A  
                                       --- |  ---
@    Occupied SCF orbitals               5 |    5
@    Secondary orbitals                 14 |   14
@    Total number of orbitals           19 |   19
@    Number of basis functions          19 |   19

     Optimization information
     ========================
@    Number of configurations                 1
@    Number of orbital rotations             70
     ------------------------------------------
@    Total number of variables               71

     Maximum number of Fock   iterations      0
     Maximum number of DIIS   iterations     60
     Maximum number of QC-SCF iterations     60
     Threshold for SCF convergence     1.00D-05


 ***********************************************
 ***** DIIS acceleration of SCF iterations *****
 ***********************************************

 C1-DIIS algorithm; max error vectors =    8

 Iter      Total energy       Solvation energy    Error norm    Delta(E)
 -----------------------------------------------------------------------------
   1  Screening settings (-IFTHRS, JTDIIS, DIFDEN, times)   -6    1    F  3.16D-02  8.00D-03

  *** Computed Relay matrix ***

               Column   1     Column   2     Column   3     Column   4     Column   5
       1       0.02529743     0.00000000     0.00000000    -0.00721700     0.00000000
       2       0.00000000     0.02529743     0.00000000     0.00000000     0.00891006
       3       0.00000000     0.00000000     0.02529743     0.00000000     0.00000000
       4      -0.00721700     0.00000000     0.00000000     0.02529743     0.00000000
       5       0.00000000     0.00891006     0.00000000     0.00000000     0.02529743
       6       0.00000000     0.00000000     0.00891006     0.00000000     0.00000000
       7      -0.00301200     0.00000000     0.00000000    -0.00721700     0.00000000
       8       0.00000000     0.00152046     0.00000000     0.00000000     0.00891006
       9       0.00000000     0.00000000     0.00152046     0.00000000     0.00000000
      10       0.00000000     0.00000000     0.00000000     0.04835708     0.00000000
      11      -0.04835708     0.00000000     0.00000000     0.00000000     0.00000000
      12      -0.01323375     0.00000000     0.00000000    -0.04835708     0.00000000

               Column   6     Column   7     Column   8     Column   9     Column  10
       1       0.00000000    -0.00301200     0.00000000     0.00000000     0.00000000
       2       0.00000000     0.00000000     0.00152046     0.00000000     0.00000000
       3       0.00891006     0.00000000     0.00000000     0.00152046     0.00000000
       4       0.00000000    -0.00721700     0.00000000     0.00000000     0.04835708
       5       0.00000000     0.00000000     0.00891006     0.00000000     0.00000000
       6       0.02529743     0.00000000     0.00000000     0.00891006     0.00000000
       7       0.00000000     0.02529743     0.00000000     0.00000000     0.01323375
       8       0.00000000     0.00000000     0.02529743     0.00000000     0.00000000
       9       0.00891006     0.00000000     0.00000000     0.02529743     0.00000000
      10       0.00000000     0.01323375     0.00000000     0.00000000    -0.82243606
      11       0.00000000     0.04835708     0.00000000     0.00000000    -0.23007533
      12       0.00000000     0.00000000     0.00000000     0.00000000    -0.11503852
      13       0.00000000     0.00000000     0.00000000     0.00000000     1.00000000

               Column  11     Column  12     Column  13
       1      -0.04835708    -0.01323375     0.00000000
       4       0.00000000    -0.04835708     0.00000000
       7       0.04835708     0.00000000     0.00000000
      10      -0.23007533    -0.11503852     1.00000000
      11      -0.82243606    -0.23007533     1.00000000
      12      -0.23007533    -0.82243606     1.00000000
      13       1.00000000     1.00000000     0.00000000
    ==== End of matrix output ====

  *** Inverted Relay matrix ***

               Column   1     Column   2     Column   3     Column   4     Column   5
       1      40.33913354     0.00000000     0.00000000     9.87372861     0.00000000
       2       0.00000000    45.36979979     0.00000000     0.00000000   -17.14642913
       3       0.00000000     0.00000000    45.36979979     0.00000000     0.00000000
       4       9.87372861     0.00000000     0.00000000    35.24593189     0.00000000
       5       0.00000000   -17.14642913     0.00000000     0.00000000    51.60806047
       6       0.00000000     0.00000000   -17.14642913     0.00000000     0.00000000
       7       9.57221835     0.00000000     0.00000000     9.87372861     0.00000000
       8       0.00000000     3.31230943     0.00000000     0.00000000   -17.14642913
       9       0.00000000     0.00000000     3.31230943     0.00000000     0.00000000
      10       1.91449472     0.00000000     0.00000000     2.59409569     0.00000000
      11      -1.54534568     0.00000000     0.00000000     0.00000000     0.00000000
      12      -0.36914903     0.00000000     0.00000000    -2.59409569     0.00000000
      13       0.57239612     0.00000000     0.00000000     0.00000000     0.00000000

               Column   6     Column   7     Column   8     Column   9     Column  10
       1       0.00000000     9.57221835     0.00000000     0.00000000     1.91449472
       2       0.00000000     0.00000000     3.31230943     0.00000000     0.00000000
       3     -17.14642913     0.00000000     0.00000000     3.31230943     0.00000000
       4       0.00000000     9.87372861     0.00000000     0.00000000     2.59409569
       5       0.00000000     0.00000000   -17.14642913     0.00000000     0.00000000
       6      51.60806047     0.00000000     0.00000000   -17.14642913     0.00000000
       7       0.00000000    40.33913354     0.00000000     0.00000000     0.36914903
       8       0.00000000     0.00000000    45.36979979     0.00000000     0.00000000
       9     -17.14642913     0.00000000     0.00000000    45.36979979     0.00000000
      10       0.00000000     0.36914903     0.00000000     0.00000000    -0.77014991
      11       0.00000000     1.54534568     0.00000000     0.00000000     0.52404942
      12       0.00000000    -1.91449472     0.00000000     0.00000000     0.24610049
      13       0.00000000    -0.57239612     0.00000000     0.00000000     0.38515470

               Column  11     Column  12     Column  13
       1      -1.54534568    -0.36914903     0.57239612
       4       0.00000000    -2.59409569    -0.00000000
       7       1.54534568    -1.91449472    -0.57239612
      10       0.52404942     0.24610049     0.38515470
      11      -1.04809884     0.52404942     0.22969060
      12       0.52404942    -0.77014991     0.38515470
      13       0.22969060     0.38515470     0.42149383
    ==== End of matrix output ====

  *** Computed FV vector start ***
       1       -0.00439701
       2       -0.00000000
       3        0.00275100
       4        0.00000000
       5       -0.00000000
       6        0.01205730
       7        0.00439701
       8       -0.00000000
       9        0.00275100
      10       -0.01751267
      11       -0.03459409
      12       -0.01751267
      13        0.00000000

  *** Computed FV vector end ***

  *** Computed MQ vector start ***
       1       -0.10888583
       2        0.00000000
       3       -0.07281532
       4        0.00000000
       5       -0.00000000
       6        0.52791428
       7        0.10888583
       8        0.00000000
       9       -0.07281532
      10       -0.01574641
      11        0.03149282
      12       -0.01574641
      13       -0.02646978

  *** Computed MQ vector end ***

  *** Computed MQ vector start ***
       1       -0.10888583
       2        0.00000000
       3       -0.07281532
       4        0.00000000
       5       -0.00000000
       6        0.52791428
       7        0.10888583
       8        0.00000000
       9       -0.07281532
      10       -0.01574641
      11        0.03149282
      12       -0.01574641
      13       -0.02646978

  *** Computed MQ vector end ***
@  1  -99.9368131325     -9.851713523797E-03    1.16961D+00   -9.99D+01
      Virial theorem: -V/T =      1.997024
@      MULPOP F      -0.47; H       0.47; 
 -----------------------------------------------------------------------------
   2  Screening settings (-IFTHRS, JTDIIS, DIFDEN, times)   -7    2    F  3.07D-02  8.00D-03

  *** Computed Relay matrix ***

               Column   1     Column   2     Column   3     Column   4     Column   5
       1       0.02529743     0.00000000     0.00000000    -0.00721700     0.00000000
       2       0.00000000     0.02529743     0.00000000     0.00000000     0.00891006
       3       0.00000000     0.00000000     0.02529743     0.00000000     0.00000000
       4      -0.00721700     0.00000000     0.00000000     0.02529743     0.00000000
       5       0.00000000     0.00891006     0.00000000     0.00000000     0.02529743
       6       0.00000000     0.00000000     0.00891006     0.00000000     0.00000000
       7      -0.00301200     0.00000000     0.00000000    -0.00721700     0.00000000
       8       0.00000000     0.00152046     0.00000000     0.00000000     0.00891006
       9       0.00000000     0.00000000     0.00152046     0.00000000     0.00000000
      10       0.00000000     0.00000000     0.00000000     0.04835708     0.00000000
      11      -0.04835708     0.00000000     0.00000000     0.00000000     0.00000000
      12      -0.01323375     0.00000000     0.00000000    -0.04835708     0.00000000

               Column   6     Column   7     Column   8     Column   9     Column  10
       1       0.00000000    -0.00301200     0.00000000     0.00000000     0.00000000
       2       0.00000000     0.00000000     0.00152046     0.00000000     0.00000000
       3       0.00891006     0.00000000     0.00000000     0.00152046     0.00000000
       4       0.00000000    -0.00721700     0.00000000     0.00000000     0.04835708
       5       0.00000000     0.00000000     0.00891006     0.00000000     0.00000000
       6       0.02529743     0.00000000     0.00000000     0.00891006     0.00000000
       7       0.00000000     0.02529743     0.00000000     0.00000000     0.01323375
       8       0.00000000     0.00000000     0.02529743     0.00000000     0.00000000
       9       0.00891006     0.00000000     0.00000000     0.02529743     0.00000000
      10       0.00000000     0.01323375     0.00000000     0.00000000    -0.82243606
      11       0.00000000     0.04835708     0.00000000     0.00000000    -0.23007533
      12       0.00000000     0.00000000     0.00000000     0.00000000    -0.11503852
      13       0.00000000     0.00000000     0.00000000     0.00000000     1.00000000

               Column  11     Column  12     Column  13
       1      -0.04835708    -0.01323375     0.00000000
       4       0.00000000    -0.04835708     0.00000000
       7       0.04835708     0.00000000     0.00000000
      10      -0.23007533    -0.11503852     1.00000000
      11      -0.82243606    -0.23007533     1.00000000
      12      -0.23007533    -0.82243606     1.00000000
      13       1.00000000     1.00000000     0.00000000
    ==== End of matrix output ====

  *** Inverted Relay matrix ***

               Column   1     Column   2     Column   3     Column   4     Column   5
       1      40.33913354     0.00000000     0.00000000     9.87372861     0.00000000
       2       0.00000000    45.36979979     0.00000000     0.00000000   -17.14642913
       3       0.00000000     0.00000000    45.36979979     0.00000000     0.00000000
       4       9.87372861     0.00000000     0.00000000    35.24593189     0.00000000
       5       0.00000000   -17.14642913     0.00000000     0.00000000    51.60806047
       6       0.00000000     0.00000000   -17.14642913     0.00000000     0.00000000
       7       9.57221835     0.00000000     0.00000000     9.87372861     0.00000000
       8       0.00000000     3.31230943     0.00000000     0.00000000   -17.14642913
       9       0.00000000     0.00000000     3.31230943     0.00000000     0.00000000
      10       1.91449472     0.00000000     0.00000000     2.59409569     0.00000000
      11      -1.54534568     0.00000000     0.00000000     0.00000000     0.00000000
      12      -0.36914903     0.00000000     0.00000000    -2.59409569     0.00000000
      13       0.57239612     0.00000000     0.00000000     0.00000000     0.00000000

               Column   6     Column   7     Column   8     Column   9     Column  10
       1       0.00000000     9.57221835     0.00000000     0.00000000     1.91449472
       2       0.00000000     0.00000000     3.31230943     0.00000000     0.00000000
       3     -17.14642913     0.00000000     0.00000000     3.31230943     0.00000000
       4       0.00000000     9.87372861     0.00000000     0.00000000     2.59409569
       5       0.00000000     0.00000000   -17.14642913     0.00000000     0.00000000
       6      51.60806047     0.00000000     0.00000000   -17.14642913     0.00000000
       7       0.00000000    40.33913354     0.00000000     0.00000000     0.36914903
       8       0.00000000     0.00000000    45.36979979     0.00000000     0.00000000
       9     -17.14642913     0.00000000     0.00000000    45.36979979     0.00000000
      10       0.00000000     0.36914903     0.00000000     0.00000000    -0.77014991
      11       0.00000000     1.54534568     0.00000000     0.00000000     0.52404942
      12       0.00000000    -1.91449472     0.00000000     0.00000000     0.24610049
      13       0.00000000    -0.57239612     0.00000000     0.00000000     0.38515470

               Column  11     Column  12     Column  13
       1      -1.54534568    -0.36914903     0.57239612
       4       0.00000000    -2.59409569    -0.00000000
       7       1.54534568    -1.91449472    -0.57239612
      10       0.52404942     0.24610049     0.38515470
      11      -1.04809884     0.52404942     0.22969060
      12       0.52404942    -0.77014991     0.38515470
      13       0.22969060     0.38515470     0.42149383
    ==== End of matrix output ====

  *** Computed FV vector start ***
       1       -0.00206482
       2       -0.00000000
       3        0.00163041
       4        0.00000000
       5       -0.00000000
       6        0.00448668
       7        0.00206482
       8        0.00000000
       9        0.00163041
      10       -0.00949366
      11       -0.01589499
      12       -0.00949366
      13        0.00000000

  *** Computed FV vector end ***

  *** Computed MQ vector start ***
       1       -0.05363581
       2       -0.00000000
       3        0.00244122
       4        0.00000000
       5       -0.00000000
       6        0.17563753
       7        0.05363581
       8        0.00000000
       9        0.00244122
      10       -0.00654547
      11        0.01309094
      12       -0.00654547
      13       -0.01332777

  *** Computed MQ vector end ***

  *** Computed MQ vector start ***
       1       -0.05363581
       2       -0.00000000
       3        0.00244122
       4        0.00000000
       5       -0.00000000
       6        0.17563753
       7        0.05363581
       8        0.00000000
       9        0.00244122
      10       -0.00654547
      11        0.01309094
      12       -0.00654547
      13       -0.01332777

  *** Computed MQ vector end ***
@  2  -99.9905209231     -1.692531160564E-02    3.46589D-01   -5.37D-02
      Virial theorem: -V/T =      2.000873
@      MULPOP F      -0.24; H       0.24; 
 -----------------------------------------------------------------------------
   3  Screening settings (-IFTHRS, JTDIIS, DIFDEN, times)   -8    3    F  3.07D-02  7.00D-03

  *** Computed Relay matrix ***

               Column   1     Column   2     Column   3     Column   4     Column   5
       1       0.02529743     0.00000000     0.00000000    -0.00721700     0.00000000
       2       0.00000000     0.02529743     0.00000000     0.00000000     0.00891006
       3       0.00000000     0.00000000     0.02529743     0.00000000     0.00000000
       4      -0.00721700     0.00000000     0.00000000     0.02529743     0.00000000
       5       0.00000000     0.00891006     0.00000000     0.00000000     0.02529743
       6       0.00000000     0.00000000     0.00891006     0.00000000     0.00000000
       7      -0.00301200     0.00000000     0.00000000    -0.00721700     0.00000000
       8       0.00000000     0.00152046     0.00000000     0.00000000     0.00891006
       9       0.00000000     0.00000000     0.00152046     0.00000000     0.00000000
      10       0.00000000     0.00000000     0.00000000     0.04835708     0.00000000
      11      -0.04835708     0.00000000     0.00000000     0.00000000     0.00000000
      12      -0.01323375     0.00000000     0.00000000    -0.04835708     0.00000000

               Column   6     Column   7     Column   8     Column   9     Column  10
       1       0.00000000    -0.00301200     0.00000000     0.00000000     0.00000000
       2       0.00000000     0.00000000     0.00152046     0.00000000     0.00000000
       3       0.00891006     0.00000000     0.00000000     0.00152046     0.00000000
       4       0.00000000    -0.00721700     0.00000000     0.00000000     0.04835708
       5       0.00000000     0.00000000     0.00891006     0.00000000     0.00000000
       6       0.02529743     0.00000000     0.00000000     0.00891006     0.00000000
       7       0.00000000     0.02529743     0.00000000     0.00000000     0.01323375
       8       0.00000000     0.00000000     0.02529743     0.00000000     0.00000000
       9       0.00891006     0.00000000     0.00000000     0.02529743     0.00000000
      10       0.00000000     0.01323375     0.00000000     0.00000000    -0.82243606
      11       0.00000000     0.04835708     0.00000000     0.00000000    -0.23007533
      12       0.00000000     0.00000000     0.00000000     0.00000000    -0.11503852
      13       0.00000000     0.00000000     0.00000000     0.00000000     1.00000000

               Column  11     Column  12     Column  13
       1      -0.04835708    -0.01323375     0.00000000
       4       0.00000000    -0.04835708     0.00000000
       7       0.04835708     0.00000000     0.00000000
      10      -0.23007533    -0.11503852     1.00000000
      11      -0.82243606    -0.23007533     1.00000000
      12      -0.23007533    -0.82243606     1.00000000
      13       1.00000000     1.00000000     0.00000000
    ==== End of matrix output ====

  *** Inverted Relay matrix ***

               Column   1     Column   2     Column   3     Column   4     Column   5
       1      40.33913354     0.00000000     0.00000000     9.87372861     0.00000000
       2       0.00000000    45.36979979     0.00000000     0.00000000   -17.14642913
       3       0.00000000     0.00000000    45.36979979     0.00000000     0.00000000
       4       9.87372861     0.00000000     0.00000000    35.24593189     0.00000000
       5       0.00000000   -17.14642913     0.00000000     0.00000000    51.60806047
       6       0.00000000     0.00000000   -17.14642913     0.00000000     0.00000000
       7       9.57221835     0.00000000     0.00000000     9.87372861     0.00000000
       8       0.00000000     3.31230943     0.00000000     0.00000000   -17.14642913
       9       0.00000000     0.00000000     3.31230943     0.00000000     0.00000000
      10       1.91449472     0.00000000     0.00000000     2.59409569     0.00000000
      11      -1.54534568     0.00000000     0.00000000     0.00000000     0.00000000
      12      -0.36914903     0.00000000     0.00000000    -2.59409569     0.00000000
      13       0.57239612     0.00000000     0.00000000     0.00000000     0.00000000

               Column   6     Column   7     Column   8     Column   9     Column  10
       1       0.00000000     9.57221835     0.00000000     0.00000000     1.91449472
       2       0.00000000     0.00000000     3.31230943     0.00000000     0.00000000
       3     -17.14642913     0.00000000     0.00000000     3.31230943     0.00000000
       4       0.00000000     9.87372861     0.00000000     0.00000000     2.59409569
       5       0.00000000     0.00000000   -17.14642913     0.00000000     0.00000000
       6      51.60806047     0.00000000     0.00000000   -17.14642913     0.00000000
       7       0.00000000    40.33913354     0.00000000     0.00000000     0.36914903
       8       0.00000000     0.00000000    45.36979979     0.00000000     0.00000000
       9     -17.14642913     0.00000000     0.00000000    45.36979979     0.00000000
      10       0.00000000     0.36914903     0.00000000     0.00000000    -0.77014991
      11       0.00000000     1.54534568     0.00000000     0.00000000     0.52404942
      12       0.00000000    -1.91449472     0.00000000     0.00000000     0.24610049
      13       0.00000000    -0.57239612     0.00000000     0.00000000     0.38515470

               Column  11     Column  12     Column  13
       1      -1.54534568    -0.36914903     0.57239612
       4       0.00000000    -2.59409569    -0.00000000
       7       1.54534568    -1.91449472    -0.57239612
      10       0.52404942     0.24610049     0.38515470
      11      -1.04809884     0.52404942     0.22969060
      12       0.52404942    -0.77014991     0.38515470
      13       0.22969060     0.38515470     0.42149383
    ==== End of matrix output ====

  *** Computed FV vector start ***
       1       -0.00267912
       2       -0.00000000
       3        0.00195227
       4        0.00000000
       5       -0.00000000
       6        0.00639513
       7        0.00267912
       8        0.00000000
       9        0.00195227
      10       -0.01171207
      11       -0.02080660
      12       -0.01171207
      13        0.00000000

  *** Computed FV vector end ***

  *** Computed MQ vector start ***
       1       -0.06837408
       2       -0.00000000
       3       -0.01461288
       4        0.00000000
       5       -0.00000000
       6        0.26309125
       7        0.06837408
       8        0.00000000
       9       -0.01461288
      10       -0.00890615
      11        0.01781230
      12       -0.00890615
      13       -0.01686804

  *** Computed MQ vector end ***

  *** Computed MQ vector start ***
       1       -0.06837408
       2       -0.00000000
       3       -0.01461288
       4        0.00000000
       5       -0.00000000
       6        0.26309125
       7        0.06837408
       8        0.00000000
       9       -0.01461288
      10       -0.00890615
      11        0.01781230
      12       -0.00890615
      13       -0.01686804

  *** Computed MQ vector end ***
@  3  -100.000547212     -1.792942668966E-02    4.31838D-02   -1.00D-02
      Virial theorem: -V/T =      2.000020
@      MULPOP F      -0.30; H       0.30; 
 -----------------------------------------------------------------------------
   4  Screening settings (-IFTHRS, JTDIIS, DIFDEN, times)   -8    4    F  3.05D-02  7.00D-03

  *** Computed Relay matrix ***

               Column   1     Column   2     Column   3     Column   4     Column   5
       1       0.02529743     0.00000000     0.00000000    -0.00721700     0.00000000
       2       0.00000000     0.02529743     0.00000000     0.00000000     0.00891006
       3       0.00000000     0.00000000     0.02529743     0.00000000     0.00000000
       4      -0.00721700     0.00000000     0.00000000     0.02529743     0.00000000
       5       0.00000000     0.00891006     0.00000000     0.00000000     0.02529743
       6       0.00000000     0.00000000     0.00891006     0.00000000     0.00000000
       7      -0.00301200     0.00000000     0.00000000    -0.00721700     0.00000000
       8       0.00000000     0.00152046     0.00000000     0.00000000     0.00891006
       9       0.00000000     0.00000000     0.00152046     0.00000000     0.00000000
      10       0.00000000     0.00000000     0.00000000     0.04835708     0.00000000
      11      -0.04835708     0.00000000     0.00000000     0.00000000     0.00000000
      12      -0.01323375     0.00000000     0.00000000    -0.04835708     0.00000000

               Column   6     Column   7     Column   8     Column   9     Column  10
       1       0.00000000    -0.00301200     0.00000000     0.00000000     0.00000000
       2       0.00000000     0.00000000     0.00152046     0.00000000     0.00000000
       3       0.00891006     0.00000000     0.00000000     0.00152046     0.00000000
       4       0.00000000    -0.00721700     0.00000000     0.00000000     0.04835708
       5       0.00000000     0.00000000     0.00891006     0.00000000     0.00000000
       6       0.02529743     0.00000000     0.00000000     0.00891006     0.00000000
       7       0.00000000     0.02529743     0.00000000     0.00000000     0.01323375
       8       0.00000000     0.00000000     0.02529743     0.00000000     0.00000000
       9       0.00891006     0.00000000     0.00000000     0.02529743     0.00000000
      10       0.00000000     0.01323375     0.00000000     0.00000000    -0.82243606
      11       0.00000000     0.04835708     0.00000000     0.00000000    -0.23007533
      12       0.00000000     0.00000000     0.00000000     0.00000000    -0.11503852
      13       0.00000000     0.00000000     0.00000000     0.00000000     1.00000000

               Column  11     Column  12     Column  13
       1      -0.04835708    -0.01323375     0.00000000
       4       0.00000000    -0.04835708     0.00000000
       7       0.04835708     0.00000000     0.00000000
      10      -0.23007533    -0.11503852     1.00000000
      11      -0.82243606    -0.23007533     1.00000000
      12      -0.23007533    -0.82243606     1.00000000
      13       1.00000000     1.00000000     0.00000000
    ==== End of matrix output ====

  *** Inverted Relay matrix ***

               Column   1     Column   2     Column   3     Column   4     Column   5
       1      40.33913354     0.00000000     0.00000000     9.87372861     0.00000000
       2       0.00000000    45.36979979     0.00000000     0.00000000   -17.14642913
       3       0.00000000     0.00000000    45.36979979     0.00000000     0.00000000
       4       9.87372861     0.00000000     0.00000000    35.24593189     0.00000000
       5       0.00000000   -17.14642913     0.00000000     0.00000000    51.60806047
       6       0.00000000     0.00000000   -17.14642913     0.00000000     0.00000000
       7       9.57221835     0.00000000     0.00000000     9.87372861     0.00000000
       8       0.00000000     3.31230943     0.00000000     0.00000000   -17.14642913
       9       0.00000000     0.00000000     3.31230943     0.00000000     0.00000000
      10       1.91449472     0.00000000     0.00000000     2.59409569     0.00000000
      11      -1.54534568     0.00000000     0.00000000     0.00000000     0.00000000
      12      -0.36914903     0.00000000     0.00000000    -2.59409569     0.00000000
      13       0.57239612     0.00000000     0.00000000     0.00000000     0.00000000

               Column   6     Column   7     Column   8     Column   9     Column  10
       1       0.00000000     9.57221835     0.00000000     0.00000000     1.91449472
       2       0.00000000     0.00000000     3.31230943     0.00000000     0.00000000
       3     -17.14642913     0.00000000     0.00000000     3.31230943     0.00000000
       4       0.00000000     9.87372861     0.00000000     0.00000000     2.59409569
       5       0.00000000     0.00000000   -17.14642913     0.00000000     0.00000000
       6      51.60806047     0.00000000     0.00000000   -17.14642913     0.00000000
       7       0.00000000    40.33913354     0.00000000     0.00000000     0.36914903
       8       0.00000000     0.00000000    45.36979979     0.00000000     0.00000000
       9     -17.14642913     0.00000000     0.00000000    45.36979979     0.00000000
      10       0.00000000     0.36914903     0.00000000     0.00000000    -0.77014991
      11       0.00000000     1.54534568     0.00000000     0.00000000     0.52404942
      12       0.00000000    -1.91449472     0.00000000     0.00000000     0.24610049
      13       0.00000000    -0.57239612     0.00000000     0.00000000     0.38515470

               Column  11     Column  12     Column  13
       1      -1.54534568    -0.36914903     0.57239612
       4       0.00000000    -2.59409569    -0.00000000
       7       1.54534568    -1.91449472    -0.57239612
      10       0.52404942     0.24610049     0.38515470
      11      -1.04809884     0.52404942     0.22969060
      12       0.52404942    -0.77014991     0.38515470
      13       0.22969060     0.38515470     0.42149383
    ==== End of matrix output ====

  *** Computed FV vector start ***
       1       -0.00269143
       2       -0.00000000
       3        0.00196135
       4        0.00000000
       5       -0.00000000
       6        0.00642104
       7        0.00269143
       8        0.00000000
       9        0.00196135
      10       -0.01176515
      11       -0.02089781
      12       -0.01176515
      13        0.00000000

  *** Computed FV vector end ***

  *** Computed MQ vector start ***
       1       -0.06869389
       2       -0.00000000
       3       -0.01461543
       4        0.00000000
       5       -0.00000000
       6        0.26411734
       7        0.06869389
       8        0.00000000
       9       -0.01461543
      10       -0.00894515
      11        0.01789030
      12       -0.00894515
      13       -0.01694397

  *** Computed MQ vector end ***

  *** Computed MQ vector start ***
       1       -0.06869389
       2       -0.00000000
       3       -0.01461543
       4        0.00000000
       5       -0.00000000
       6        0.26411734
       7        0.06869389
       8        0.00000000
       9       -0.01461543
      10       -0.00894515
      11        0.01789030
      12       -0.00894515
      13       -0.01694397

  *** Computed MQ vector end ***
@  4  -100.000554884     -1.827665602995E-02    5.75576D-03   -7.67D-06
      Virial theorem: -V/T =      1.999954
@      MULPOP F      -0.30; H       0.30; 
 -----------------------------------------------------------------------------
   5  Screening settings (-IFTHRS, JTDIIS, DIFDEN, times)   -9    5    F  3.05D-02  8.00D-03

  *** Computed Relay matrix ***

               Column   1     Column   2     Column   3     Column   4     Column   5
       1       0.02529743     0.00000000     0.00000000    -0.00721700     0.00000000
       2       0.00000000     0.02529743     0.00000000     0.00000000     0.00891006
       3       0.00000000     0.00000000     0.02529743     0.00000000     0.00000000
       4      -0.00721700     0.00000000     0.00000000     0.02529743     0.00000000
       5       0.00000000     0.00891006     0.00000000     0.00000000     0.02529743
       6       0.00000000     0.00000000     0.00891006     0.00000000     0.00000000
       7      -0.00301200     0.00000000     0.00000000    -0.00721700     0.00000000
       8       0.00000000     0.00152046     0.00000000     0.00000000     0.00891006
       9       0.00000000     0.00000000     0.00152046     0.00000000     0.00000000
      10       0.00000000     0.00000000     0.00000000     0.04835708     0.00000000
      11      -0.04835708     0.00000000     0.00000000     0.00000000     0.00000000
      12      -0.01323375     0.00000000     0.00000000    -0.04835708     0.00000000

               Column   6     Column   7     Column   8     Column   9     Column  10
       1       0.00000000    -0.00301200     0.00000000     0.00000000     0.00000000
       2       0.00000000     0.00000000     0.00152046     0.00000000     0.00000000
       3       0.00891006     0.00000000     0.00000000     0.00152046     0.00000000
       4       0.00000000    -0.00721700     0.00000000     0.00000000     0.04835708
       5       0.00000000     0.00000000     0.00891006     0.00000000     0.00000000
       6       0.02529743     0.00000000     0.00000000     0.00891006     0.00000000
       7       0.00000000     0.02529743     0.00000000     0.00000000     0.01323375
       8       0.00000000     0.00000000     0.02529743     0.00000000     0.00000000
       9       0.00891006     0.00000000     0.00000000     0.02529743     0.00000000
      10       0.00000000     0.01323375     0.00000000     0.00000000    -0.82243606
      11       0.00000000     0.04835708     0.00000000     0.00000000    -0.23007533
      12       0.00000000     0.00000000     0.00000000     0.00000000    -0.11503852
      13       0.00000000     0.00000000     0.00000000     0.00000000     1.00000000

               Column  11     Column  12     Column  13
       1      -0.04835708    -0.01323375     0.00000000
       4       0.00000000    -0.04835708     0.00000000
       7       0.04835708     0.00000000     0.00000000
      10      -0.23007533    -0.11503852     1.00000000
      11      -0.82243606    -0.23007533     1.00000000
      12      -0.23007533    -0.82243606     1.00000000
      13       1.00000000     1.00000000     0.00000000
    ==== End of matrix output ====

  *** Inverted Relay matrix ***

               Column   1     Column   2     Column   3     Column   4     Column   5
       1      40.33913354     0.00000000     0.00000000     9.87372861     0.00000000
       2       0.00000000    45.36979979     0.00000000     0.00000000   -17.14642913
       3       0.00000000     0.00000000    45.36979979     0.00000000     0.00000000
       4       9.87372861     0.00000000     0.00000000    35.24593189     0.00000000
       5       0.00000000   -17.14642913     0.00000000     0.00000000    51.60806047
       6       0.00000000     0.00000000   -17.14642913     0.00000000     0.00000000
       7       9.57221835     0.00000000     0.00000000     9.87372861     0.00000000
       8       0.00000000     3.31230943     0.00000000     0.00000000   -17.14642913
       9       0.00000000     0.00000000     3.31230943     0.00000000     0.00000000
      10       1.91449472     0.00000000     0.00000000     2.59409569     0.00000000
      11      -1.54534568     0.00000000     0.00000000     0.00000000     0.00000000
      12      -0.36914903     0.00000000     0.00000000    -2.59409569     0.00000000
      13       0.57239612     0.00000000     0.00000000     0.00000000     0.00000000

               Column   6     Column   7     Column   8     Column   9     Column  10
       1       0.00000000     9.57221835     0.00000000     0.00000000     1.91449472
       2       0.00000000     0.00000000     3.31230943     0.00000000     0.00000000
       3     -17.14642913     0.00000000     0.00000000     3.31230943     0.00000000
       4       0.00000000     9.87372861     0.00000000     0.00000000     2.59409569
       5       0.00000000     0.00000000   -17.14642913     0.00000000     0.00000000
       6      51.60806047     0.00000000     0.00000000   -17.14642913     0.00000000
       7       0.00000000    40.33913354     0.00000000     0.00000000     0.36914903
       8       0.00000000     0.00000000    45.36979979     0.00000000     0.00000000
       9     -17.14642913     0.00000000     0.00000000    45.36979979     0.00000000
      10       0.00000000     0.36914903     0.00000000     0.00000000    -0.77014991
      11       0.00000000     1.54534568     0.00000000     0.00000000     0.52404942
      12       0.00000000    -1.91449472     0.00000000     0.00000000     0.24610049
      13       0.00000000    -0.57239612     0.00000000     0.00000000     0.38515470

               Column  11     Column  12     Column  13
       1      -1.54534568    -0.36914903     0.57239612
       4       0.00000000    -2.59409569    -0.00000000
       7       1.54534568    -1.91449472    -0.57239612
      10       0.52404942     0.24610049     0.38515470
      11      -1.04809884     0.52404942     0.22969060
      12       0.52404942    -0.77014991     0.38515470
      13       0.22969060     0.38515470     0.42149383
    ==== End of matrix output ====

  *** Computed FV vector start ***
       1       -0.00269888
       2       -0.00000000
       3        0.00196552
       4        0.00000000
       5       -0.00000000
       6        0.00644236
       7        0.00269888
       8        0.00000000
       9        0.00196552
      10       -0.01179255
      11       -0.02095565
      12       -0.01179255
      13        0.00000000

  *** Computed FV vector end ***

  *** Computed MQ vector start ***
       1       -0.06887617
       2       -0.00000000
       3       -0.01477796
       4        0.00000000
       5       -0.00000000
       6        0.26507447
       7        0.06887617
       8        0.00000000
       9       -0.01477796
      10       -0.00897262
      11        0.01794525
      12       -0.00897262
      13       -0.01698689

  *** Computed MQ vector end ***

  *** Computed MQ vector start ***
       1       -0.06887617
       2       -0.00000000
       3       -0.01477796
       4        0.00000000
       5       -0.00000000
       6        0.26507447
       7        0.06887617
       8        0.00000000
       9       -0.01477796
      10       -0.00897262
      11        0.01794525
      12       -0.00897262
      13       -0.01698689

  *** Computed MQ vector end ***
@  5  -100.000528044     -1.839331745495E-02    1.84707D-03    2.68D-05
      Virial theorem: -V/T =      1.999895
@      MULPOP F      -0.30; H       0.30; 
 -----------------------------------------------------------------------------
   6  Screening settings (-IFTHRS, JTDIIS, DIFDEN, times)  -10    6    F  3.04D-02  8.00D-03

  *** Computed Relay matrix ***

               Column   1     Column   2     Column   3     Column   4     Column   5
       1       0.02529743     0.00000000     0.00000000    -0.00721700     0.00000000
       2       0.00000000     0.02529743     0.00000000     0.00000000     0.00891006
       3       0.00000000     0.00000000     0.02529743     0.00000000     0.00000000
       4      -0.00721700     0.00000000     0.00000000     0.02529743     0.00000000
       5       0.00000000     0.00891006     0.00000000     0.00000000     0.02529743
       6       0.00000000     0.00000000     0.00891006     0.00000000     0.00000000
       7      -0.00301200     0.00000000     0.00000000    -0.00721700     0.00000000
       8       0.00000000     0.00152046     0.00000000     0.00000000     0.00891006
       9       0.00000000     0.00000000     0.00152046     0.00000000     0.00000000
      10       0.00000000     0.00000000     0.00000000     0.04835708     0.00000000
      11      -0.04835708     0.00000000     0.00000000     0.00000000     0.00000000
      12      -0.01323375     0.00000000     0.00000000    -0.04835708     0.00000000

               Column   6     Column   7     Column   8     Column   9     Column  10
       1       0.00000000    -0.00301200     0.00000000     0.00000000     0.00000000
       2       0.00000000     0.00000000     0.00152046     0.00000000     0.00000000
       3       0.00891006     0.00000000     0.00000000     0.00152046     0.00000000
       4       0.00000000    -0.00721700     0.00000000     0.00000000     0.04835708
       5       0.00000000     0.00000000     0.00891006     0.00000000     0.00000000
       6       0.02529743     0.00000000     0.00000000     0.00891006     0.00000000
       7       0.00000000     0.02529743     0.00000000     0.00000000     0.01323375
       8       0.00000000     0.00000000     0.02529743     0.00000000     0.00000000
       9       0.00891006     0.00000000     0.00000000     0.02529743     0.00000000
      10       0.00000000     0.01323375     0.00000000     0.00000000    -0.82243606
      11       0.00000000     0.04835708     0.00000000     0.00000000    -0.23007533
      12       0.00000000     0.00000000     0.00000000     0.00000000    -0.11503852
      13       0.00000000     0.00000000     0.00000000     0.00000000     1.00000000

               Column  11     Column  12     Column  13
       1      -0.04835708    -0.01323375     0.00000000
       4       0.00000000    -0.04835708     0.00000000
       7       0.04835708     0.00000000     0.00000000
      10      -0.23007533    -0.11503852     1.00000000
      11      -0.82243606    -0.23007533     1.00000000
      12      -0.23007533    -0.82243606     1.00000000
      13       1.00000000     1.00000000     0.00000000
    ==== End of matrix output ====

  *** Inverted Relay matrix ***

               Column   1     Column   2     Column   3     Column   4     Column   5
       1      40.33913354     0.00000000     0.00000000     9.87372861     0.00000000
       2       0.00000000    45.36979979     0.00000000     0.00000000   -17.14642913
       3       0.00000000     0.00000000    45.36979979     0.00000000     0.00000000
       4       9.87372861     0.00000000     0.00000000    35.24593189     0.00000000
       5       0.00000000   -17.14642913     0.00000000     0.00000000    51.60806047
       6       0.00000000     0.00000000   -17.14642913     0.00000000     0.00000000
       7       9.57221835     0.00000000     0.00000000     9.87372861     0.00000000
       8       0.00000000     3.31230943     0.00000000     0.00000000   -17.14642913
       9       0.00000000     0.00000000     3.31230943     0.00000000     0.00000000
      10       1.91449472     0.00000000     0.00000000     2.59409569     0.00000000
      11      -1.54534568     0.00000000     0.00000000     0.00000000     0.00000000
      12      -0.36914903     0.00000000     0.00000000    -2.59409569     0.00000000
      13       0.57239612     0.00000000     0.00000000     0.00000000     0.00000000

               Column   6     Column   7     Column   8     Column   9     Column  10
       1       0.00000000     9.57221835     0.00000000     0.00000000     1.91449472
       2       0.00000000     0.00000000     3.31230943     0.00000000     0.00000000
       3     -17.14642913     0.00000000     0.00000000     3.31230943     0.00000000
       4       0.00000000     9.87372861     0.00000000     0.00000000     2.59409569
       5       0.00000000     0.00000000   -17.14642913     0.00000000     0.00000000
       6      51.60806047     0.00000000     0.00000000   -17.14642913     0.00000000
       7       0.00000000    40.33913354     0.00000000     0.00000000     0.36914903
       8       0.00000000     0.00000000    45.36979979     0.00000000     0.00000000
       9     -17.14642913     0.00000000     0.00000000    45.36979979     0.00000000
      10       0.00000000     0.36914903     0.00000000     0.00000000    -0.77014991
      11       0.00000000     1.54534568     0.00000000     0.00000000     0.52404942
      12       0.00000000    -1.91449472     0.00000000     0.00000000     0.24610049
      13       0.00000000    -0.57239612     0.00000000     0.00000000     0.38515470

               Column  11     Column  12     Column  13
       1      -1.54534568    -0.36914903     0.57239612
       4       0.00000000    -2.59409569    -0.00000000
       7       1.54534568    -1.91449472    -0.57239612
      10       0.52404942     0.24610049     0.38515470
      11      -1.04809884     0.52404942     0.22969060
      12       0.52404942    -0.77014991     0.38515470
      13       0.22969060     0.38515470     0.42149383
    ==== End of matrix output ====

  *** Computed FV vector start ***
       1       -0.00269801
       2       -0.00000000
       3        0.00196507
       4        0.00000000
       5       -0.00000000
       6        0.00643933
       7        0.00269801
       8        0.00000000
       9        0.00196507
      10       -0.01178932
      11       -0.02094825
      12       -0.01178932
      13        0.00000000

  *** Computed FV vector end ***

  *** Computed MQ vector start ***
       1       -0.06885574
       2       -0.00000000
       3       -0.01474769
       4        0.00000000
       5       -0.00000000
       6        0.26493358
       7        0.06885574
       8        0.00000000
       9       -0.01474769
      10       -0.00896909
      11        0.01793818
      12       -0.00896909
      13       -0.01698171

  *** Computed MQ vector end ***

  *** Computed MQ vector start ***
       1       -0.06885574
       2       -0.00000000
       3       -0.01474769
       4        0.00000000
       5       -0.00000000
       6        0.26493358
       7        0.06885574
       8        0.00000000
       9       -0.01474769
      10       -0.00896909
      11        0.01793818
      12       -0.00896909
      13       -0.01698171

  *** Computed MQ vector end ***
@  6  -100.000514735     -1.840022330697E-02    4.29244D-04    1.33D-05

!!! Info: DIIS restarted because it was stalled ...
 - energy changed by    1.331E-05
 - gradient changed by -1.418E-03
 - or strange C vector coeff. for current index (=  6) :
    0.000010    0.000434    0.001775   -0.068253    0.113623    0.952411

! Backstep to previous Fock matrix because energy increased.
      Virial theorem: -V/T =      1.999894
@      MULPOP F      -0.30; H       0.30; 
 -----------------------------------------------------------------------------
   7  Screening settings (-IFTHRS, JTDIIS, DIFDEN, times)  -10    2    F  2.96D-02  7.00D-03

  *** Computed Relay matrix ***

               Column   1     Column   2     Column   3     Column   4     Column   5
       1       0.02529743     0.00000000     0.00000000    -0.00721700     0.00000000
       2       0.00000000     0.02529743     0.00000000     0.00000000     0.00891006
       3       0.00000000     0.00000000     0.02529743     0.00000000     0.00000000
       4      -0.00721700     0.00000000     0.00000000     0.02529743     0.00000000
       5       0.00000000     0.00891006     0.00000000     0.00000000     0.02529743
       6       0.00000000     0.00000000     0.00891006     0.00000000     0.00000000
       7      -0.00301200     0.00000000     0.00000000    -0.00721700     0.00000000
       8       0.00000000     0.00152046     0.00000000     0.00000000     0.00891006
       9       0.00000000     0.00000000     0.00152046     0.00000000     0.00000000
      10       0.00000000     0.00000000     0.00000000     0.04835708     0.00000000
      11      -0.04835708     0.00000000     0.00000000     0.00000000     0.00000000
      12      -0.01323375     0.00000000     0.00000000    -0.04835708     0.00000000

               Column   6     Column   7     Column   8     Column   9     Column  10
       1       0.00000000    -0.00301200     0.00000000     0.00000000     0.00000000
       2       0.00000000     0.00000000     0.00152046     0.00000000     0.00000000
       3       0.00891006     0.00000000     0.00000000     0.00152046     0.00000000
       4       0.00000000    -0.00721700     0.00000000     0.00000000     0.04835708
       5       0.00000000     0.00000000     0.00891006     0.00000000     0.00000000
       6       0.02529743     0.00000000     0.00000000     0.00891006     0.00000000
       7       0.00000000     0.02529743     0.00000000     0.00000000     0.01323375
       8       0.00000000     0.00000000     0.02529743     0.00000000     0.00000000
       9       0.00891006     0.00000000     0.00000000     0.02529743     0.00000000
      10       0.00000000     0.01323375     0.00000000     0.00000000    -0.82243606
      11       0.00000000     0.04835708     0.00000000     0.00000000    -0.23007533
      12       0.00000000     0.00000000     0.00000000     0.00000000    -0.11503852
      13       0.00000000     0.00000000     0.00000000     0.00000000     1.00000000

               Column  11     Column  12     Column  13
       1      -0.04835708    -0.01323375     0.00000000
       4       0.00000000    -0.04835708     0.00000000
       7       0.04835708     0.00000000     0.00000000
      10      -0.23007533    -0.11503852     1.00000000
      11      -0.82243606    -0.23007533     1.00000000
      12      -0.23007533    -0.82243606     1.00000000
      13       1.00000000     1.00000000     0.00000000
    ==== End of matrix output ====

  *** Inverted Relay matrix ***

               Column   1     Column   2     Column   3     Column   4     Column   5
       1      40.33913354     0.00000000     0.00000000     9.87372861     0.00000000
       2       0.00000000    45.36979979     0.00000000     0.00000000   -17.14642913
       3       0.00000000     0.00000000    45.36979979     0.00000000     0.00000000
       4       9.87372861     0.00000000     0.00000000    35.24593189     0.00000000
       5       0.00000000   -17.14642913     0.00000000     0.00000000    51.60806047
       6       0.00000000     0.00000000   -17.14642913     0.00000000     0.00000000
       7       9.57221835     0.00000000     0.00000000     9.87372861     0.00000000
       8       0.00000000     3.31230943     0.00000000     0.00000000   -17.14642913
       9       0.00000000     0.00000000     3.31230943     0.00000000     0.00000000
      10       1.91449472     0.00000000     0.00000000     2.59409569     0.00000000
      11      -1.54534568     0.00000000     0.00000000     0.00000000     0.00000000
      12      -0.36914903     0.00000000     0.00000000    -2.59409569     0.00000000
      13       0.57239612     0.00000000     0.00000000     0.00000000     0.00000000

               Column   6     Column   7     Column   8     Column   9     Column  10
       1       0.00000000     9.57221835     0.00000000     0.00000000     1.91449472
       2       0.00000000     0.00000000     3.31230943     0.00000000     0.00000000
       3     -17.14642913     0.00000000     0.00000000     3.31230943     0.00000000
       4       0.00000000     9.87372861     0.00000000     0.00000000     2.59409569
       5       0.00000000     0.00000000   -17.14642913     0.00000000     0.00000000
       6      51.60806047     0.00000000     0.00000000   -17.14642913     0.00000000
       7       0.00000000    40.33913354     0.00000000     0.00000000     0.36914903
       8       0.00000000     0.00000000    45.36979979     0.00000000     0.00000000
       9     -17.14642913     0.00000000     0.00000000    45.36979979     0.00000000
      10       0.00000000     0.36914903     0.00000000     0.00000000    -0.77014991
      11       0.00000000     1.54534568     0.00000000     0.00000000     0.52404942
      12       0.00000000    -1.91449472     0.00000000     0.00000000     0.24610049
      13       0.00000000    -0.57239612     0.00000000     0.00000000     0.38515470

               Column  11     Column  12     Column  13
       1      -1.54534568    -0.36914903     0.57239612
       4       0.00000000    -2.59409569    -0.00000000
       7       1.54534568    -1.91449472    -0.57239612
      10       0.52404942     0.24610049     0.38515470
      11      -1.04809884     0.52404942     0.22969060
      12       0.52404942    -0.77014991     0.38515470
      13       0.22969060     0.38515470     0.42149383
    ==== End of matrix output ====

  *** Computed FV vector start ***
       1       -0.00269717
       2       -0.00000000
       3        0.00196463
       4        0.00000000
       5       -0.00000000
       6        0.00643673
       7        0.00269717
       8        0.00000000
       9        0.00196463
      10       -0.01178629
      11       -0.02094154
      12       -0.01178629
      13        0.00000000

  *** Computed FV vector end ***

  *** Computed MQ vector start ***
       1       -0.06883561
       2       -0.00000000
       3       -0.01472450
       4        0.00000000
       5       -0.00000000
       6        0.26481422
       7        0.06883561
       8        0.00000000
       9       -0.01472450
      10       -0.00896587
      11        0.01793173
      12       -0.00896587
      13       -0.01697686

  *** Computed MQ vector end ***

  *** Computed MQ vector start ***
       1       -0.06883561
       2       -0.00000000
       3       -0.01472450
       4        0.00000000
       5       -0.00000000
       6        0.26481422
       7        0.06883561
       8        0.00000000
       9       -0.01472450
      10       -0.00896587
      11        0.01793173
      12       -0.00896587
      13       -0.01697686

  *** Computed MQ vector end ***
@  7  -100.000509121     -1.839738487545E-02    6.96117D-04    5.61D-06
      Virial theorem: -V/T =      1.999926
@      MULPOP F      -0.30; H       0.30; 
 -----------------------------------------------------------------------------
   8  Screening settings (-IFTHRS, JTDIIS, DIFDEN, times)  -10    3    F  2.99D-02  7.00D-03

  *** Computed Relay matrix ***

               Column   1     Column   2     Column   3     Column   4     Column   5
       1       0.02529743     0.00000000     0.00000000    -0.00721700     0.00000000
       2       0.00000000     0.02529743     0.00000000     0.00000000     0.00891006
       3       0.00000000     0.00000000     0.02529743     0.00000000     0.00000000
       4      -0.00721700     0.00000000     0.00000000     0.02529743     0.00000000
       5       0.00000000     0.00891006     0.00000000     0.00000000     0.02529743
       6       0.00000000     0.00000000     0.00891006     0.00000000     0.00000000
       7      -0.00301200     0.00000000     0.00000000    -0.00721700     0.00000000
       8       0.00000000     0.00152046     0.00000000     0.00000000     0.00891006
       9       0.00000000     0.00000000     0.00152046     0.00000000     0.00000000
      10       0.00000000     0.00000000     0.00000000     0.04835708     0.00000000
      11      -0.04835708     0.00000000     0.00000000     0.00000000     0.00000000
      12      -0.01323375     0.00000000     0.00000000    -0.04835708     0.00000000

               Column   6     Column   7     Column   8     Column   9     Column  10
       1       0.00000000    -0.00301200     0.00000000     0.00000000     0.00000000
       2       0.00000000     0.00000000     0.00152046     0.00000000     0.00000000
       3       0.00891006     0.00000000     0.00000000     0.00152046     0.00000000
       4       0.00000000    -0.00721700     0.00000000     0.00000000     0.04835708
       5       0.00000000     0.00000000     0.00891006     0.00000000     0.00000000
       6       0.02529743     0.00000000     0.00000000     0.00891006     0.00000000
       7       0.00000000     0.02529743     0.00000000     0.00000000     0.01323375
       8       0.00000000     0.00000000     0.02529743     0.00000000     0.00000000
       9       0.00891006     0.00000000     0.00000000     0.02529743     0.00000000
      10       0.00000000     0.01323375     0.00000000     0.00000000    -0.82243606
      11       0.00000000     0.04835708     0.00000000     0.00000000    -0.23007533
      12       0.00000000     0.00000000     0.00000000     0.00000000    -0.11503852
      13       0.00000000     0.00000000     0.00000000     0.00000000     1.00000000

               Column  11     Column  12     Column  13
       1      -0.04835708    -0.01323375     0.00000000
       4       0.00000000    -0.04835708     0.00000000
       7       0.04835708     0.00000000     0.00000000
      10      -0.23007533    -0.11503852     1.00000000
      11      -0.82243606    -0.23007533     1.00000000
      12      -0.23007533    -0.82243606     1.00000000
      13       1.00000000     1.00000000     0.00000000
    ==== End of matrix output ====

  *** Inverted Relay matrix ***

               Column   1     Column   2     Column   3     Column   4     Column   5
       1      40.33913354     0.00000000     0.00000000     9.87372861     0.00000000
       2       0.00000000    45.36979979     0.00000000     0.00000000   -17.14642913
       3       0.00000000     0.00000000    45.36979979     0.00000000     0.00000000
       4       9.87372861     0.00000000     0.00000000    35.24593189     0.00000000
       5       0.00000000   -17.14642913     0.00000000     0.00000000    51.60806047
       6       0.00000000     0.00000000   -17.14642913     0.00000000     0.00000000
       7       9.57221835     0.00000000     0.00000000     9.87372861     0.00000000
       8       0.00000000     3.31230943     0.00000000     0.00000000   -17.14642913
       9       0.00000000     0.00000000     3.31230943     0.00000000     0.00000000
      10       1.91449472     0.00000000     0.00000000     2.59409569     0.00000000
      11      -1.54534568     0.00000000     0.00000000     0.00000000     0.00000000
      12      -0.36914903     0.00000000     0.00000000    -2.59409569     0.00000000
[...]
       2       0.00000000     0.02529743     0.00000000     0.00000000     0.00891006
       3       0.00000000     0.00000000     0.02529743     0.00000000     0.00000000
       4      -0.00721700     0.00000000     0.00000000     0.02529743     0.00000000
       5       0.00000000     0.00891006     0.00000000     0.00000000     0.02529743
       6       0.00000000     0.00000000     0.00891006     0.00000000     0.00000000
       7      -0.00301200     0.00000000     0.00000000    -0.00721700     0.00000000
       8       0.00000000     0.00152046     0.00000000     0.00000000     0.00891006
       9       0.00000000     0.00000000     0.00152046     0.00000000     0.00000000
      10       0.00000000     0.00000000     0.00000000     0.04835708     0.00000000
      11      -0.04835708     0.00000000     0.00000000     0.00000000     0.00000000
      12      -0.01323375     0.00000000     0.00000000    -0.04835708     0.00000000

               Column   6     Column   7     Column   8     Column   9     Column  10
       1       0.00000000    -0.00301200     0.00000000     0.00000000     0.00000000
       2       0.00000000     0.00000000     0.00152046     0.00000000     0.00000000
       3       0.00891006     0.00000000     0.00000000     0.00152046     0.00000000
       4       0.00000000    -0.00721700     0.00000000     0.00000000     0.04835708
       5       0.00000000     0.00000000     0.00891006     0.00000000     0.00000000
       6       0.02529743     0.00000000     0.00000000     0.00891006     0.00000000
       7       0.00000000     0.02529743     0.00000000     0.00000000     0.01323375
       8       0.00000000     0.00000000     0.02529743     0.00000000     0.00000000
       9       0.00891006     0.00000000     0.00000000     0.02529743     0.00000000
      10       0.00000000     0.01323375     0.00000000     0.00000000    -0.82243606
      11       0.00000000     0.04835708     0.00000000     0.00000000    -0.23007533
      12       0.00000000     0.00000000     0.00000000     0.00000000    -0.11503852
      13       0.00000000     0.00000000     0.00000000     0.00000000     1.00000000

               Column  11     Column  12     Column  13
       1      -0.04835708    -0.01323375     0.00000000
       4       0.00000000    -0.04835708     0.00000000
       7       0.04835708     0.00000000     0.00000000
      10      -0.23007533    -0.11503852     1.00000000
      11      -0.82243606    -0.23007533     1.00000000
      12      -0.23007533    -0.82243606     1.00000000
      13       1.00000000     1.00000000     0.00000000
    ==== End of matrix output ====

  *** Inverted Relay matrix ***

               Column   1     Column   2     Column   3     Column   4     Column   5
       1      40.33913354     0.00000000     0.00000000     9.87372861     0.00000000
       2       0.00000000    45.36979979     0.00000000     0.00000000   -17.14642913
       3       0.00000000     0.00000000    45.36979979     0.00000000     0.00000000
       4       9.87372861     0.00000000     0.00000000    35.24593189     0.00000000
       5       0.00000000   -17.14642913     0.00000000     0.00000000    51.60806047
       6       0.00000000     0.00000000   -17.14642913     0.00000000     0.00000000
       7       9.57221835     0.00000000     0.00000000     9.87372861     0.00000000
       8       0.00000000     3.31230943     0.00000000     0.00000000   -17.14642913
       9       0.00000000     0.00000000     3.31230943     0.00000000     0.00000000
      10       1.91449472     0.00000000     0.00000000     2.59409569     0.00000000
      11      -1.54534568     0.00000000     0.00000000     0.00000000     0.00000000
      12      -0.36914903     0.00000000     0.00000000    -2.59409569     0.00000000
      13       0.57239612     0.00000000     0.00000000     0.00000000     0.00000000

               Column   6     Column   7     Column   8     Column   9     Column  10
       1       0.00000000     9.57221835     0.00000000     0.00000000     1.91449472
       2       0.00000000     0.00000000     3.31230943     0.00000000     0.00000000
       3     -17.14642913     0.00000000     0.00000000     3.31230943     0.00000000
       4       0.00000000     9.87372861     0.00000000     0.00000000     2.59409569
       5       0.00000000     0.00000000   -17.14642913     0.00000000     0.00000000
       6      51.60806047     0.00000000     0.00000000   -17.14642913     0.00000000
       7       0.00000000    40.33913354     0.00000000     0.00000000     0.36914903
       8       0.00000000     0.00000000    45.36979979     0.00000000     0.00000000
       9     -17.14642913     0.00000000     0.00000000    45.36979979     0.00000000
      10       0.00000000     0.36914903     0.00000000     0.00000000    -0.77014991
      11       0.00000000     1.54534568     0.00000000     0.00000000     0.52404942
      12       0.00000000    -1.91449472     0.00000000     0.00000000     0.24610049
      13       0.00000000    -0.57239612     0.00000000     0.00000000     0.38515470

               Column  11     Column  12     Column  13
       1      -1.54534568    -0.36914903     0.57239612
       4       0.00000000    -2.59409569    -0.00000000
       7       1.54534568    -1.91449472    -0.57239612
      10       0.52404942     0.24610049     0.38515470
      11      -1.04809884     0.52404942     0.22969060
      12       0.52404942    -0.77014991     0.38515470
      13       0.22969060     0.38515470     0.42149383
    ==== End of matrix output ====

  *** Computed FV vector start ***
       1       -0.00269868
       2       -0.00000000
       3        0.00196547
       4        0.00000000
       5       -0.00000000
       6        0.00644123
       7        0.00269868
       8        0.00000000
       9        0.00196547
      10       -0.01179189
      11       -0.02095350
      12       -0.01179189
      13        0.00000000

  *** Computed FV vector end ***

  *** Computed MQ vector start ***
       1       -0.06887221
       2       -0.00000000
       3       -0.01476090
       4        0.00000000
       5       -0.00000000
       6        0.26501766
       7        0.06887221
       8        0.00000000
       9       -0.01476090
      10       -0.00897153
      11        0.01794307
      12       -0.00897153
      13       -0.01698565

  *** Computed MQ vector end ***

  *** Computed MQ vector start ***
       1       -0.06887221
       2       -0.00000000
       3       -0.01476090
       4        0.00000000
       5       -0.00000000
       6        0.26501766
       7        0.06887221
       8        0.00000000
       9       -0.01476090
      10       -0.00897153
      11        0.01794307
      12       -0.00897153
      13       -0.01698565

  *** Computed MQ vector end ***
@  9  -100.000511634     -1.841113075417E-02    2.29295D-05    2.22D-06
      Virial theorem: -V/T =      1.999914
@      MULPOP F      -0.30; H       0.30; 
 -----------------------------------------------------------------------------
  10  Screening settings (-IFTHRS, JTDIIS, DIFDEN, times)  -10    5    F  2.97D-02  8.00D-03

  *** Computed Relay matrix ***

               Column   1     Column   2     Column   3     Column   4     Column   5
       1       0.02529743     0.00000000     0.00000000    -0.00721700     0.00000000
       2       0.00000000     0.02529743     0.00000000     0.00000000     0.00891006
       3       0.00000000     0.00000000     0.02529743     0.00000000     0.00000000
       4      -0.00721700     0.00000000     0.00000000     0.02529743     0.00000000
       5       0.00000000     0.00891006     0.00000000     0.00000000     0.02529743
       6       0.00000000     0.00000000     0.00891006     0.00000000     0.00000000
       7      -0.00301200     0.00000000     0.00000000    -0.00721700     0.00000000
       8       0.00000000     0.00152046     0.00000000     0.00000000     0.00891006
       9       0.00000000     0.00000000     0.00152046     0.00000000     0.00000000
      10       0.00000000     0.00000000     0.00000000     0.04835708     0.00000000
      11      -0.04835708     0.00000000     0.00000000     0.00000000     0.00000000
      12      -0.01323375     0.00000000     0.00000000    -0.04835708     0.00000000

               Column   6     Column   7     Column   8     Column   9     Column  10
       1       0.00000000    -0.00301200     0.00000000     0.00000000     0.00000000
       2       0.00000000     0.00000000     0.00152046     0.00000000     0.00000000
       3       0.00891006     0.00000000     0.00000000     0.00152046     0.00000000
       4       0.00000000    -0.00721700     0.00000000     0.00000000     0.04835708
       5       0.00000000     0.00000000     0.00891006     0.00000000     0.00000000
       6       0.02529743     0.00000000     0.00000000     0.00891006     0.00000000
       7       0.00000000     0.02529743     0.00000000     0.00000000     0.01323375
       8       0.00000000     0.00000000     0.02529743     0.00000000     0.00000000
       9       0.00891006     0.00000000     0.00000000     0.02529743     0.00000000
      10       0.00000000     0.01323375     0.00000000     0.00000000    -0.82243606
      11       0.00000000     0.04835708     0.00000000     0.00000000    -0.23007533
      12       0.00000000     0.00000000     0.00000000     0.00000000    -0.11503852
      13       0.00000000     0.00000000     0.00000000     0.00000000     1.00000000

               Column  11     Column  12     Column  13
       1      -0.04835708    -0.01323375     0.00000000
       4       0.00000000    -0.04835708     0.00000000
       7       0.04835708     0.00000000     0.00000000
      10      -0.23007533    -0.11503852     1.00000000
      11      -0.82243606    -0.23007533     1.00000000
      12      -0.23007533    -0.82243606     1.00000000
      13       1.00000000     1.00000000     0.00000000
    ==== End of matrix output ====

  *** Inverted Relay matrix ***

               Column   1     Column   2     Column   3     Column   4     Column   5
       1      40.33913354     0.00000000     0.00000000     9.87372861     0.00000000
       2       0.00000000    45.36979979     0.00000000     0.00000000   -17.14642913
       3       0.00000000     0.00000000    45.36979979     0.00000000     0.00000000
       4       9.87372861     0.00000000     0.00000000    35.24593189     0.00000000
       5       0.00000000   -17.14642913     0.00000000     0.00000000    51.60806047
       6       0.00000000     0.00000000   -17.14642913     0.00000000     0.00000000
       7       9.57221835     0.00000000     0.00000000     9.87372861     0.00000000
       8       0.00000000     3.31230943     0.00000000     0.00000000   -17.14642913
       9       0.00000000     0.00000000     3.31230943     0.00000000     0.00000000
      10       1.91449472     0.00000000     0.00000000     2.59409569     0.00000000
      11      -1.54534568     0.00000000     0.00000000     0.00000000     0.00000000
      12      -0.36914903     0.00000000     0.00000000    -2.59409569     0.00000000
      13       0.57239612     0.00000000     0.00000000     0.00000000     0.00000000

               Column   6     Column   7     Column   8     Column   9     Column  10
       1       0.00000000     9.57221835     0.00000000     0.00000000     1.91449472
       2       0.00000000     0.00000000     3.31230943     0.00000000     0.00000000
       3     -17.14642913     0.00000000     0.00000000     3.31230943     0.00000000
       4       0.00000000     9.87372861     0.00000000     0.00000000     2.59409569
       5       0.00000000     0.00000000   -17.14642913     0.00000000     0.00000000
       6      51.60806047     0.00000000     0.00000000   -17.14642913     0.00000000
       7       0.00000000    40.33913354     0.00000000     0.00000000     0.36914903
       8       0.00000000     0.00000000    45.36979979     0.00000000     0.00000000
       9     -17.14642913     0.00000000     0.00000000    45.36979979     0.00000000
      10       0.00000000     0.36914903     0.00000000     0.00000000    -0.77014991
      11       0.00000000     1.54534568     0.00000000     0.00000000     0.52404942
      12       0.00000000    -1.91449472     0.00000000     0.00000000     0.24610049
      13       0.00000000    -0.57239612     0.00000000     0.00000000     0.38515470

               Column  11     Column  12     Column  13
       1      -1.54534568    -0.36914903     0.57239612
       4       0.00000000    -2.59409569    -0.00000000
       7       1.54534568    -1.91449472    -0.57239612
      10       0.52404942     0.24610049     0.38515470
      11      -1.04809884     0.52404942     0.22969060
      12       0.52404942    -0.77014991     0.38515470
      13       0.22969060     0.38515470     0.42149383
    ==== End of matrix output ====

  *** Computed FV vector start ***
       1       -0.00269871
       2       -0.00000000
       3        0.00196549
       4        0.00000000
       5       -0.00000000
       6        0.00644130
       7        0.00269871
       8        0.00000000
       9        0.00196549
      10       -0.01179200
      11       -0.02095371
      12       -0.01179200
      13        0.00000000

  *** Computed FV vector end ***

  *** Computed MQ vector start ***
       1       -0.06887288
       2       -0.00000000
       3       -0.01476125
       4        0.00000000
       5       -0.00000000
       6        0.26502073
       7        0.06887288
       8        0.00000000
       9       -0.01476125
      10       -0.00897163
      11        0.01794326
      12       -0.00897163
      13       -0.01698582

  *** Computed MQ vector end ***

  *** Computed MQ vector start ***
       1       -0.06887288
       2       -0.00000000
       3       -0.01476125
       4        0.00000000
       5       -0.00000000
       6        0.26502073
       7        0.06887288
       8        0.00000000
       9       -0.01476125
      10       -0.00897163
      11        0.01794326
      12       -0.00897163
      13       -0.01698582

  *** Computed MQ vector end ***
@ 10  -100.000511734     -1.841136767806E-02    5.72219D-06   -9.99D-08

@ *** DIIS converged in  10 iterations !
@     Converged SCF energy, gradient:   -100.000511733565    5.72D-06
    - total time used in SIRFCK :              0.00 seconds


 *** SCF orbital energy analysis ***
    (incl. solvent contribution)

 Number of electrons :   10
 Orbital occupations :    5

 Sym       Hartree-Fock orbital energies

1 A     -26.26140264    -1.51887202    -0.68960755    -0.62157973    -0.62130430
          0.14593381     0.62260238     1.36092226     1.36101027     1.45547210
          1.59104452     1.59171400     1.99534666     2.21026020     4.01295719
          4.01295809     4.13619650     4.13638100     4.74424105

    E(LUMO) :     0.14593381 au (symmetry 1)
  - E(HOMO) :    -0.62130430 au (symmetry 1)
  ------------------------------------------
    gap     :     0.76723811 au

 >>> Writing SIRIFC interface file

 >>>> CPU and wall time for SCF :       0.592       0.149


                       .-----------------------------------.
                       | >>> Final results from SIRIUS <<< |
                       `-----------------------------------'


@    Spin multiplicity:           1
@    Spatial symmetry:            1 ( irrep  A   in C1  )
@    Total charge of molecule:    0

     QM/NP/MM calculation converged     :

     NP charges nuclear contribution    :      0.004720727909
     NP charges electronic contribution :     -0.086247843246
     NP dipoles nuclear contribution    :      0.063115747659
     NP dipoles electronic contribution :      0.000000000000
     Total QM/NP/MM energy              :     -0.018411367678


@    Final HF energy:            -100.000511733565                 
@    Nuclear repulsion:             4.329631724727
@    Electronic energy:          -104.311732090614

@    Final gradient norm:           0.000005722195

 
     Date and time (Linux)  : Tue Feb 17 10:55:54 2015
     Host name              : donkey                                  

File label for MO orbitals:  17Feb15   FOCKDIIS

 (Only coefficients >0.0100 are printed.)

 Molecular orbitals for symmetry species 1  (A  )
 ------------------------------------------------

    Orbital         1        2        3        4        5        6        7
   1 F   :1s    -1.0008   0.0056   0.0037   0.0000  -0.0000  -0.0287  -0.0258
   2 F   :1s    -0.0037  -0.9449  -0.1681   0.0000  -0.0000   0.1263  -0.1604
   3 F   :1s     0.0050  -0.0020  -0.1053   0.0000  -0.0000   0.4587   0.2584
   4 F   :2px    0.0000  -0.0000  -0.0000  -0.9767  -0.0000   0.0000   0.0000
   5 F   :2py    0.0000   0.0000   0.0000   0.0000  -0.9764  -0.0000  -0.0000
   6 F   :2pz   -0.0014  -0.0476   0.7931  -0.0000   0.0000   0.4150  -0.4146
   7 F   :2px    0.0000  -0.0000  -0.0000  -0.0195  -0.0000   0.0000   0.0000
   8 F   :2py    0.0000   0.0000   0.0000   0.0000  -0.0199  -0.0000  -0.0000
   9 F   :2pz    0.0025   0.0187  -0.0461  -0.0000   0.0000   0.1982  -0.0379
  11 F   :3d1-  -0.0000  -0.0000  -0.0000  -0.0000  -0.0104   0.0000   0.0000
  12 F   :3d0    0.0005  -0.0030   0.0171  -0.0000   0.0000   0.0021   0.0448
  13 F   :3d1+  -0.0000   0.0000   0.0000  -0.0104   0.0000  -0.0000  -0.0000
  15 H   :1s    -0.0033  -0.1874   0.6703  -0.0000   0.0000  -0.3088   2.2866
  16 H   :1s     0.0009   0.0843  -0.2745  -0.0000   0.0000  -0.9341  -2.2195
  17 H   :2px    0.0000  -0.0000  -0.0000  -0.0339  -0.0000   0.0000   0.0000
  18 H   :2py    0.0000   0.0000   0.0000   0.0000  -0.0337  -0.0000  -0.0000
  19 H   :2pz    0.0009   0.0251  -0.0370  -0.0000   0.0000  -0.0007   0.1488

    Orbital         8        9       10       11       12       13       14
   1 F   :1s     0.0000  -0.0000   0.0875  -0.0000   0.0000  -0.3528   0.6184
   2 F   :1s     0.0000  -0.0000   0.6021  -0.0000   0.0000  -1.8082   2.6795
   3 F   :1s     0.0000  -0.0000  -0.1914  -0.0000   0.0000   1.6154  -3.7079
   4 F   :2px   -1.0887   0.0001  -0.0000  -0.7868   0.0001   0.0000   0.0000
   5 F   :2py   -0.0001  -1.0882   0.0000  -0.0001  -0.7879  -0.0000  -0.0000
   6 F   :2pz   -0.0000   0.0000  -1.1026   0.0000  -0.0000  -0.7974  -0.2255
   7 F   :2px    1.1774  -0.0001  -0.0000   1.2337  -0.0001   0.0000   0.0000
   8 F   :2py    0.0001   1.1765   0.0000   0.0001   1.2346  -0.0000  -0.0000
   9 F   :2pz   -0.0000   0.0000   1.9250   0.0000  -0.0000   0.5789  -0.6269
  11 F   :3d1-   0.0000   0.0329  -0.0000  -0.0000  -0.0774   0.0000   0.0000
  12 F   :3d0   -0.0000   0.0000  -0.0293   0.0000  -0.0000   0.0028   0.1203
  13 F   :3d1+   0.0329  -0.0000   0.0000  -0.0774   0.0000  -0.0000  -0.0000
  15 H   :1s    -0.0000   0.0000  -1.0712   0.0000  -0.0000   0.0315   0.9923
  16 H   :1s    -0.0000   0.0000   0.4033   0.0000  -0.0000  -0.0521   0.0694
  17 H   :2px    0.5588  -0.0000  -0.0000  -0.8711   0.0001   0.0000   0.0000
  18 H   :2py    0.0000   0.5595   0.0000  -0.0001  -0.8707  -0.0000  -0.0000
  19 H   :2pz   -0.0000   0.0000   0.4890   0.0000  -0.0000  -0.8116  -0.9991

    Orbital        15
  10 F   :3d2-   1.0000



 >>>> Total CPU  time used in SIRIUS :      0.61 seconds
 >>>> Total wall time used in SIRIUS :      0.15 seconds

 
     Date and time (Linux)  : Tue Feb 17 10:55:54 2015
     Host name              : donkey                                  


                     .---------------------------------------.
                     | End of Wave Function Section (SIRIUS) |
                     `---------------------------------------'

 >>>> Total CPU  time used in DALTON:   0.65 seconds
 >>>> Total wall time used in DALTON:   0.18 seconds

 
     Date and time (Linux)  : Tue Feb 17 10:55:54 2015
     Host name              : donkey                                  
