

     ************************************************************************
     *************** Dalton - An Electronic Structure Program ***************
     ************************************************************************

    This is output from DALTON 2016.alpha
   ----------------------------------------------------------------------------
    NOTE:
     
    Dalton is an experimental code for the evaluation of molecular
    properties using (MC)SCF, DFT, CI, and CC wave functions.
    The authors accept no responsibility for the performance of
    the code or for the correctness of the results.
     
    The code (in whole or part) is provided under a licence and
    is not to be reproduced for further distribution without
    the written permission of the authors or their representatives.
     
    See the home page "http://daltonprogram.org" for further information.
     
    If results obtained with this code are published,
    the appropriate citations would be both of:
     
       K. Aidas, C. Angeli, K. L. Bak, V. Bakken, R. Bast,
       L. Boman, O. Christiansen, R. Cimiraglia, S. Coriani,
       J. Cukras, P. Dahle, E. K. Dalskov, U. Ekstroem,
       T. Enevoldsen, J. J. Eriksen, P. Ettenhuber, B. Fernandez,
       L. Ferrighi, H. Fliegl, L. Frediani, K. Hald, A. Halkier,
       C. Haettig, H. Heiberg, T. Helgaker, A. C. Hennum,
       H. Hettema, E. Hjertenaes, S. Hoest, I.-M. Hoeyvik,
       M. F. Iozzi, B. Jansik, H. J. Aa. Jensen, D. Jonsson,
       P. Joergensen, M. Kaminski, J. Kauczor, S. Kirpekar,
       T. Kjaergaard, W. Klopper, S. Knecht, R. Kobayashi, H. Koch,
       J. Kongsted, A. Krapp, K. Kristensen, A. Ligabue,
       O. B. Lutnaes, J. I. Melo, K. V. Mikkelsen, R. H. Myhre,
       C. Neiss, C. B. Nielsen, P. Norman, J. Olsen,
       J. M. H. Olsen, A. Osted, M. J. Packer, F. Pawlowski,
       T. B. Pedersen, P. F. Provasi, S. Reine, Z. Rinkevicius,
       T. A. Ruden, K. Ruud, V. Rybkin, P. Salek, C. C. M. Samson,
       A. Sanchez de Meras, T. Saue, S. P. A. Sauer,
       B. Schimmelpfennig, K. Sneskov, A. H. Steindal,
       K. O. Sylvester-Hvid, P. R. Taylor, A. M. Teale,
       E. I. Tellgren, D. P. Tew, A. J. Thorvaldsen, L. Thoegersen,
       O. Vahtras, M. A. Watson, D. J. D. Wilson, M. Ziolkowski
       and H. Agren,
       "The Dalton quantum chemistry program system",
       WIREs Comput. Mol. Sci. 2013. (doi: 10.1002/wcms.1172)
    
    and
    
       Dalton, a Molecular Electronic Structure Program,
       Release DALTON2015.alpha (2015), see http://daltonprogram.org
   ----------------------------------------------------------------------------

    Authors in alphabetical order (major contribution(s) in parenthesis):

  Kestutis Aidas,           Vilnius University,           Lithuania   (QM/MM)
  Celestino Angeli,         University of Ferrara,        Italy       (NEVPT2)
  Keld L. Bak,              UNI-C,                        Denmark     (AOSOPPA, non-adiabatic coupling, magnetic properties)
  Vebjoern Bakken,          University of Oslo,           Norway      (DALTON; geometry optimizer, symmetry detection)
  Radovan Bast,             KTH Stockholm,                Sweden      (DALTON installation and execution frameworks)
  Pablo Baudin,             University of Valencia,       Spain       (Cholesky excitation energies)
  Linus Boman,              NTNU,                         Norway      (Cholesky decomposition and subsystems)
  Ove Christiansen,         Aarhus University,            Denmark     (CC module)
  Renzo Cimiraglia,         University of Ferrara,        Italy       (NEVPT2)
  Sonia Coriani,            University of Trieste,        Italy       (CC module, MCD in RESPONS)
  Janusz Cukras,            University of Trieste,        Italy       (MChD in RESPONS)
  Paal Dahle,               University of Oslo,           Norway      (Parallelization)
  Erik K. Dalskov,          UNI-C,                        Denmark     (SOPPA)
  Thomas Enevoldsen,        Univ. of Southern Denmark,    Denmark     (SOPPA)
  Janus J. Eriksen,         Aarhus University,            Denmark     (Polarizable embedding model, TDA)
  Berta Fernandez,          U. of Santiago de Compostela, Spain       (doublet spin, ESR in RESPONS)
  Lara Ferrighi,            Aarhus University,            Denmark     (PCM Cubic response)
  Heike Fliegl,             University of Oslo,           Norway      (CCSD(R12))
  Luca Frediani,            UiT The Arctic U. of Norway,  Norway      (PCM)
  Bin Gao,                  UiT The Arctic U. of Norway,  Norway      (Gen1Int library)
  Christof Haettig,         Ruhr-University Bochum,       Germany     (CC module)
  Kasper Hald,              Aarhus University,            Denmark     (CC module)
  Asger Halkier,            Aarhus University,            Denmark     (CC module)
  Erik D. Hedegaard,        Univ. of Southern Denmark,    Denmark     (Polarizable embedding model, QM/MM)
  Hanne Heiberg,            University of Oslo,           Norway      (geometry analysis, selected one-electron integrals)
  Trygve Helgaker,          University of Oslo,           Norway      (DALTON; ABACUS, ERI, DFT modules, London, and much more)
  Alf Christian Hennum,     University of Oslo,           Norway      (Parity violation)
  Hinne Hettema,            University of Auckland,       New Zealand (quadratic response in RESPONS; SIRIUS supersymmetry)
  Eirik Hjertenaes,         NTNU,                         Norway      (Cholesky decomposition)
  Maria Francesca Iozzi,    University of Oslo,           Norway      (RPA)
  Brano Jansik              Technical Univ. of Ostrava    Czech Rep.  (DFT cubic response)
  Hans Joergen Aa. Jensen,  Univ. of Southern Denmark,    Denmark     (DALTON; SIRIUS, RESPONS, ABACUS modules, London, and much more)
  Dan Jonsson,              UiT The Arctic U. of Norway,  Norway      (cubic response in RESPONS module)
  Poul Joergensen,          Aarhus University,            Denmark     (RESPONS, ABACUS, and CC modules)
  Maciej Kaminski,          University of Warsaw,         Poland      (CPPh in RESPONS)
  Joanna Kauczor,           Linkoeping University,        Sweden      (Complex polarization propagator (CPP) module)
  Sheela Kirpekar,          Univ. of Southern Denmark,    Denmark     (Mass-velocity & Darwin integrals)
  Wim Klopper,              KIT Karlsruhe,                Germany     (R12 code in CC, SIRIUS, and ABACUS modules)
  Stefan Knecht,            ETH Zurich,                   Switzerland (Parallel CI and MCSCF)
  Rika Kobayashi,           Australian National Univ.,    Australia   (DIIS in CC, London in MCSCF)
  Henrik Koch,              NTNU,                         Norway      (CC module, Cholesky decomposition)
  Jacob Kongsted,           Univ. of Southern Denmark,    Denmark     (Polarizable embedding model, QM/MM)
  Andrea Ligabue,           University of Modena,         Italy       (CTOCD, AOSOPPA)
  Nanna H. List             Univ. of Southern Denmark,    Denmark     (Polarizable embedding model)
  Ola B. Lutnaes,           University of Oslo,           Norway      (DFT Hessian)
  Juan I. Melo,             University of Buenos Aires,   Argentina   (LRESC, Relativistic Effects on NMR Shieldings)
  Kurt V. Mikkelsen,        University of Copenhagen,     Denmark     (MC-SCRF and QM/MM)
  Rolf H. Myhre,            NTNU,                         Norway      (Cholesky, subsystems and ECC2)
  Christian Neiss,          Univ. Erlangen-Nuernberg,     Germany     (CCSD(R12))
  Christian B. Nielsen,     University of Copenhagen,     Denmark     (QM/MM)
  Patrick Norman,           Linkoeping University,        Sweden      (Cubic response and complex response in RESPONS)
  Jeppe Olsen,              Aarhus University,            Denmark     (SIRIUS CI/density modules)
  Jogvan Magnus H. Olsen,   Univ. of Southern Denmark,    Denmark     (Polarizable embedding model, QM/MM)
  Anders Osted,             Copenhagen University,        Denmark     (QM/MM)
  Martin J. Packer,         University of Sheffield,      UK          (SOPPA)
  Filip Pawlowski,          Kazimierz Wielki University,  Poland      (CC3)
  Morten N. Pedersen,       Univ. of Southern Denmark,    Denmark     (Polarizable embedding model)
  Thomas B. Pedersen,       University of Oslo,           Norway      (Cholesky decomposition)
  Patricio F. Provasi,      University of Northeastern,   Argentina   (Analysis of coupling constants in localized orbitals)
  Zilvinas Rinkevicius,     KTH Stockholm,                Sweden      (open-shell DFT, ESR)
  Elias Rudberg,            KTH Stockholm,                Sweden      (DFT grid and basis info)
  Torgeir A. Ruden,         University of Oslo,           Norway      (Numerical derivatives in ABACUS)
  Kenneth Ruud,             UiT The Arctic U. of Norway,  Norway      (DALTON; ABACUS magnetic properties and much more)
  Pawel Salek,              KTH Stockholm,                Sweden      (DALTON; DFT code)
  Claire C. M. Samson       University of Karlsruhe       Germany     (Boys localization, r12 integrals in ERI)
  Alfredo Sanchez de Meras, University of Valencia,       Spain       (CC module, Cholesky decomposition)
  Trond Saue,               Paul Sabatier University,     France      (direct Fock matrix construction)
  Stephan P. A. Sauer,      University of Copenhagen,     Denmark     (SOPPA(CCSD), SOPPA prop., AOSOPPA, vibrational g-factors)
  Bernd Schimmelpfennig,    Forschungszentrum Karlsruhe,  Germany     (AMFI module)
  Kristian Sneskov,         Aarhus University,            Denmark     (Polarizable embedding model, QM/MM)
  Arnfinn H. Steindal,      UiT The Arctic U. of Norway,  Norway      (parallel QM/MM, Polarizable embedding model)
  Casper Steinmann,         Univ. of Southern Denmark,    Denmark     (QFIT, Polarizable embedding model)
  K. O. Sylvester-Hvid,     University of Copenhagen,     Denmark     (MC-SCRF)
  Peter R. Taylor,          VLSCI/Univ. of Melbourne,     Australia   (Symmetry handling ABACUS, integral transformation)
  Andrew M. Teale,          University of Nottingham,     England     (DFT-AC, DFT-D)
  David P. Tew,             University of Bristol,        England     (CCSD(R12))
  Olav Vahtras,             KTH Stockholm,                Sweden      (triplet response, spin-orbit, ESR, TDDFT, open-shell DFT)
  David J. Wilson,          La Trobe University,          Australia   (DFT Hessian and DFT magnetizabilities)
  Hans Agren,               KTH Stockholm,                Sweden      (SIRIUS module, RESPONS, MC-SCRF solvation model)
 --------------------------------------------------------------------------------

     Date and time (Linux)  : Tue Feb 24 16:28:08 2015
     Host name              : donkey                                  

 * Work memory size             :    64000000 =  488.28 megabytes.

 * Directories for basis set searches:
   1) /home/bast/devel/dalton/qmcmm/DALTON/test/qmcmm
   2) /home/bast/devel/dalton/qmcmm/build/basis


Compilation information
-----------------------

 Who compiled             | bast
 Host                     | donkey
 System                   | Linux-3.13.0-44-generic
 CMake generator          | Unix Makefiles
 Processor                | x86_64
 64-bit integers          | OFF
 MPI                      | OFF
 Fortran compiler         | /usr/bin/f95
 Fortran compiler version | GNU Fortran (Ubuntu 4.8.2-19ubuntu1) 4.8.2
 Fortran flags            | -DVAR_GFORTRAN -DGFORTRAN=445 -ffloat-store -fcray
                          | -pointer -m64 -O0 -g -fbacktrace -fcray-pointer -W
                          | uninitialized
 C compiler               | /usr/bin/cc
 C compiler version       | unknown
 C flags                  | -std=c99 -DRESTRICT=restrict -DFUNDERSCORE=1 -DHAV
                          | E_NO_LSEEK64 -ffloat-store -Wall -m64 -O0 -g3
 C++ compiler             | /usr/bin/c++
 C++ compiler version     | c++ (Ubuntu 4.8.2-19ubuntu1) 4.8.2
 C++ flags                | -g -Wall -fno-rtti -fno-exceptions -m64 -march=nat
                          | ive -O0 -g3
 BLAS                     | /opt/intel/mkl/lib/intel64/libmkl_gf_lp64.so;/opt/
                          | intel/mkl/lib/intel64/libmkl_sequential.so;/opt/in
                          | tel/mkl/lib/intel64/libmkl_core.so;/usr/lib/x86_64
                          | -linux-gnu/libpthread.so;/usr/lib/x86_64-linux-gnu
                          | /libm.so
 LAPACK                   | /opt/intel/mkl/lib/intel64/libmkl_lapack95_lp64.a;
                          | /opt/intel/mkl/lib/intel64/libmkl_gf_lp64.so
 Static linking           | OFF
 Last Git revision        | b484c6390811746526bc4e585a1ea091d8867b56
 Git branch               | radovan/qmcmm
 Configuration time       | 2015-02-24 16:27:27.492503


   Content of the .dal input file
 ----------------------------------

**DALTON INPUT                                    
.RUN WAVE                                         
.RUN RESPONS                                      
.DIRECT                                           
*QMNPMM                                           
.QMNP                                             
.DAMPED                                           
.PRINT                                            
 15                                               
**WAVE FUNCTIONS                                  
.HF                                               
**RESPONS                                         
*LINEAR                                           
.DIPLEN                                           
.FREQUE                                           
 2                                                
0.00 0.03                                         
*END OF DALTON INPUT                              


   Content of the .mol file
 ----------------------------

ATOMBASIS                                                                      
HF on gold surface                                                             
------------------------                                                       
AtomTypes=2 NoSymmetry Angstroms                                               
        9.0   1    Basis=cc-pVDZ                                               
F            0.00000    0.000000     2.500000                                  
        1.0   1    Basis=cc-pVDZ                                               
H            0.00000    0.000000     3.600000                                  


       *******************************************************************
       *********** Output from DALTON general input processing ***********
       *******************************************************************

 --------------------------------------------------------------------------------
   Overall default print level:    0
   Print level for DALTON.STAT:    1

    AO-direct calculation (in sections where implemented)
    HERMIT 1- and 2-electron integral sections will be executed
    "Old" integral transformation used (limited to max 255 basis functions)
    Wave function sections will be executed (SIRIUS module)
    Dynamic molecular response properties section will be executed (RESPONSE module)
 --------------------------------------------------------------------------------


                  *********************************************
                  *** QM/NP Embedding: Nanoparticle(s) data ***
                  *********************************************


  Nanoparticle region contains single nanoparticle.

  Nanoparticle  1 with charge 0.000. Coordinates in au.
  --------------------------------------------------
  Atom    Coord. X    Coord. Y    Coord. Z   FF Type
  ==================================================
   Au     4.34637     0.00000     0.00000      1
   Au     0.00000     0.00000     0.00000      1
   Au    -4.34637     0.00000     0.00000      1
  ==================================================

  Static force field(s) data for nanoparticle region.
  -------------------------------------
  FF Type Polarizability    Capacitance
  =====================================
    1        39.52970         1.21590
  =====================================

  Dynamic force field(s) data for nanoparticle region.
  ---------------------------------------------------------
  FF Type Omega(1)  Gamma(1)  Omega(2)  Gamma(2)  Factor
  =========================================================
    1      0.00000   0.00000   0.00000   0.00000   0.00000
  =========================================================


   ****************************************************************************
   *************** Output of molecule and basis set information ***************
   ****************************************************************************


    The two title cards from your ".mol" input:
    ------------------------------------------------------------------------
 1: HF on gold surface                                                      
 2: ------------------------                                                
    ------------------------------------------------------------------------

  Coordinates are entered in Angstrom and converted to atomic units.
          - Conversion factor : 1 bohr = 0.52917721 A

  Atomic type no.    1
  --------------------
  Nuclear charge:   9.00000
  Number of symmetry independent centers:    1
  Number of basis sets to read;    2
  The basis set is "cc-pVDZ" from the basis set library.
  Basis set file used for this atomic type with Z =   9 :
     "/home/bast/devel/dalton/qmcmm/build/basis/cc-pVDZ"

  Atomic type no.    2
  --------------------
  Nuclear charge:   1.00000
  Number of symmetry independent centers:    1
  Number of basis sets to read;    2
  The basis set is "cc-pVDZ" from the basis set library.
  Basis set file used for this atomic type with Z =   1 :
     "/home/bast/devel/dalton/qmcmm/build/basis/cc-pVDZ"


                         SYMGRP: Point group information
                         -------------------------------

@    Point group: C1 


                                 Isotopic Masses
                                 ---------------

                           F          18.998403
                           H           1.007825

                       Total mass:    20.006228 amu
                       Natural abundance:  99.985 %

 Center-of-mass coordinates (a.u.):    0.000000    0.000000    4.829031


  Atoms and basis sets
  --------------------

  Number of atom types :    2
  Total number of atoms:    2

  label    atoms   charge   prim   cont     basis
  ----------------------------------------------------------------------
  F           1    9.0000    26    14      [9s4p1d|3s2p1d]                                    
  H           1    1.0000     7     5      [4s1p|2s1p]                                        
  ----------------------------------------------------------------------
  total:      2   10.0000    33    19
  ----------------------------------------------------------------------
  Spherical harmonic basis used.

  Threshold for neglecting AO integrals:  1.00D-12


  Cartesian Coordinates (a.u.)
  ----------------------------

  Total number of coordinates:    6
  F       :     1  x   0.0000000000    2  y   0.0000000000    3  z   4.7243153125
  H       :     4  x   0.0000000000    5  y   0.0000000000    6  z   6.8030140500


   Interatomic separations (in Angstrom):
   --------------------------------------

            F           H     
            ------      ------
 F     :    0.000000
 H     :    1.100000    0.000000


  Max    interatomic separation is    1.1000 Angstrom (    2.0787 Bohr)
  between atoms    2 and    1, "H     " and "F     ".

  Min HX interatomic separation is    1.1000 Angstrom (    2.0787 Bohr)


  Bond distances (Angstrom):
  --------------------------

                  atom 1     atom 2       distance
                  ------     ------       --------
  bond distance:  H          F            1.100000




 Principal moments of inertia (u*A**2) and principal axes
 --------------------------------------------------------

   IA       0.000000          0.000000    0.000000    1.000000
   IB       1.158037          0.000000    1.000000    0.000000
   IC       1.158037          1.000000    0.000000    0.000000


 Rotational constants
 --------------------

@    The molecule is linear.

               B =       436410.12 MHz     (   14.557075 cm-1)


@  Nuclear repulsion energy :    4.329631724727 Hartree


                     .---------------------------------------.
                     | Starting in Integral Section (HERMIT) |
                     `---------------------------------------'



 ***************************************************************************************
 ****************** Output from **INTEGRALS input processing (HERMIT) ******************
 ***************************************************************************************


 - Using defaults, no **INTEGRALS input found

 Default print level:        1

 * Nuclear model: Point charge

 Calculation of one-electron Hamiltonian integrals.

 Center of mass  (bohr):      0.000000000000      0.000000000000      4.829030931796
 Operator center (bohr):      0.000000000000      0.000000000000      0.000000000000
 Gauge origin    (bohr):      0.000000000000      0.000000000000      0.000000000000
 Dipole origin   (bohr):      0.000000000000      0.000000000000      0.000000000000


     ************************************************************************
     ************************** Output from HERINT **************************
     ************************************************************************

 >>>> Total CPU  time used in HERMIT:   0.03 seconds
 >>>> Total wall time used in HERMIT:   0.03 seconds


                        .----------------------------------.
                        | End of Integral Section (HERMIT) |
                        `----------------------------------'



                   .--------------------------------------------.
                   | Starting in Wave Function Section (SIRIUS) |
                   `--------------------------------------------'


 *** Output from Huckel module :

     Using EWMO model:          T
     Using EHT  model:          F
     Number of Huckel orbitals each symmetry:    6

 EWMO - Energy Weighted Maximum Overlap - is a Huckel type method,
        which normally is better than Extended Huckel Theory.
 Reference: Linderberg and Ohrn, Propagators in Quantum Chemistry (Wiley, 1973)

 Huckel EWMO eigenvalues for symmetry :  1
          -26.383492      -1.672506      -0.827058      -0.730000      -0.730000
           -0.302144

 **********************************************************************
 *SIRIUS* a direct, restricted step, second order MCSCF program       *
 **********************************************************************

 
     Date and time (Linux)  : Tue Feb 24 16:28:08 2015
     Host name              : donkey                                  

 Title lines from ".mol" input file:
     HF on gold surface                                                      
     ------------------------                                                

 Print level on unit LUPRI =   2 is   0
 Print level on unit LUW4  =   2 is   5

@    Restricted, closed shell Hartree-Fock calculation.

@    Time-dependent Hartree-Fock calculation (random phase approximation).
 Fock matrices are calculated directly without use of integrals on disk.

 Initial molecular orbitals are obtained according to
 ".MOSTART EWMO  " input option

@    QM part is embedded in an environment :

     Wave function specification
     ============================
@    Wave function type        >>> HF <<<
@    Number of closed shell electrons          10
@    Number of electrons in active shells       0
@    Total charge of the molecule               0

@    Spin multiplicity and 2 M_S                1         0
@    Total number of symmetries                 1 (point group: C1 )
@    Reference state symmetry                   1 (irrep name : A  )

     Orbital specifications
     ======================
@    Abelian symmetry species          All |    1
@                                          |  A  
                                       --- |  ---
@    Occupied SCF orbitals               5 |    5
@    Secondary orbitals                 14 |   14
@    Total number of orbitals           19 |   19
@    Number of basis functions          19 |   19

     Optimization information
     ========================
@    Number of configurations                 1
@    Number of orbital rotations             70
     ------------------------------------------
@    Total number of variables               71

     Maximum number of Fock   iterations      0
     Maximum number of DIIS   iterations     60
     Maximum number of QC-SCF iterations     60
     Threshold for SCF convergence     1.00D-05


 ***********************************************
 ***** DIIS acceleration of SCF iterations *****
 ***********************************************

 C1-DIIS algorithm; max error vectors =    8

 Iter      Total energy       Solvation energy    Error norm    Delta(E)
 -----------------------------------------------------------------------------
   1  Screening settings (-IFTHRS, JTDIIS, DIFDEN, times)   -6    1    F  1.72D-02  1.70D-02

  *** Computed Relay matrix ***

               Column   1     Column   2     Column   3     Column   4     Column   5
       1       0.02529743     0.00000000     0.00000000    -0.00721700    -0.00000000
       2       0.00000000     0.02529743     0.00000000    -0.00000000     0.00891006
       3       0.00000000     0.00000000     0.02529743    -0.00000000    -0.00000000
       4      -0.00721700    -0.00000000    -0.00000000     0.02529743     0.00000000
       5      -0.00000000     0.00891006    -0.00000000     0.00000000     0.02529743
       6      -0.00000000    -0.00000000     0.00891006     0.00000000     0.00000000
       7      -0.00301200    -0.00000000    -0.00000000    -0.00721700    -0.00000000
       8      -0.00000000     0.00152046    -0.00000000    -0.00000000     0.00891006
       9      -0.00000000    -0.00000000     0.00152046    -0.00000000    -0.00000000
      10       0.00000000     0.00000000     0.00000000     0.04835708    -0.00000000
      11      -0.04835708    -0.00000000    -0.00000000     0.00000000     0.00000000
      12      -0.01323375    -0.00000000    -0.00000000    -0.04835708    -0.00000000

               Column   6     Column   7     Column   8     Column   9     Column  10
       1      -0.00000000    -0.00301200    -0.00000000    -0.00000000     0.00000000
       2      -0.00000000    -0.00000000     0.00152046    -0.00000000     0.00000000
       3       0.00891006    -0.00000000    -0.00000000     0.00152046     0.00000000
       4       0.00000000    -0.00721700    -0.00000000    -0.00000000     0.04835708
       5       0.00000000    -0.00000000     0.00891006    -0.00000000    -0.00000000
       6       0.02529743    -0.00000000    -0.00000000     0.00891006    -0.00000000
       7      -0.00000000     0.02529743     0.00000000     0.00000000     0.01323375
       8      -0.00000000     0.00000000     0.02529743     0.00000000    -0.00000000
       9       0.00891006     0.00000000     0.00000000     0.02529743    -0.00000000
      10      -0.00000000     0.01323375    -0.00000000    -0.00000000    -0.82243606
      11       0.00000000     0.04835708    -0.00000000    -0.00000000    -0.23007533
      12      -0.00000000     0.00000000     0.00000000     0.00000000    -0.11503852
      13       0.00000000     0.00000000     0.00000000     0.00000000     1.00000000

               Column  11     Column  12     Column  13
       1      -0.04835708    -0.01323375     0.00000000
       4       0.00000000    -0.04835708     0.00000000
       7       0.04835708     0.00000000     0.00000000
      10      -0.23007533    -0.11503852     1.00000000
      11      -0.82243606    -0.23007533     1.00000000
      12      -0.23007533    -0.82243606     1.00000000
      13       1.00000000     1.00000000     0.00000000
    ==== End of matrix output ====

  *** Inverted Relay matrix ***

               Column   1     Column   2     Column   3     Column   4     Column   5
       1      40.33913354     0.00000000     0.00000000     9.87372861     0.00000000
       2      -0.00000000    45.36979979     0.00000000     0.00000000   -17.14642913
       3      -0.00000000     0.00000000    45.36979979     0.00000000     0.00000000
       4       9.87372861     0.00000000     0.00000000    35.24593189     0.00000000
       5      -0.00000000   -17.14642913     0.00000000     0.00000000    51.60806047
       6      -0.00000000     0.00000000   -17.14642913     0.00000000     0.00000000
       7       9.57221835     0.00000000     0.00000000     9.87372861     0.00000000
       8      -0.00000000     3.31230943     0.00000000     0.00000000   -17.14642913
       9      -0.00000000     0.00000000     3.31230943     0.00000000     0.00000000
      10       1.91449472     0.00000000     0.00000000     2.59409569     0.00000000
      11      -1.54534568     0.00000000     0.00000000     0.00000000     0.00000000
      12      -0.36914903     0.00000000     0.00000000    -2.59409569     0.00000000
      13       0.57239612     0.00000000     0.00000000    -0.00000000     0.00000000

               Column   6     Column   7     Column   8     Column   9     Column  10
       1       0.00000000     9.57221835     0.00000000     0.00000000     1.91449472
       2       0.00000000     0.00000000     3.31230943     0.00000000     0.00000000
       3     -17.14642913     0.00000000     0.00000000     3.31230943     0.00000000
       4       0.00000000     9.87372861     0.00000000     0.00000000     2.59409569
       5       0.00000000     0.00000000   -17.14642913     0.00000000     0.00000000
       6      51.60806047     0.00000000     0.00000000   -17.14642913     0.00000000
       7       0.00000000    40.33913354     0.00000000     0.00000000     0.36914903
       8       0.00000000     0.00000000    45.36979979     0.00000000     0.00000000
       9     -17.14642913     0.00000000     0.00000000    45.36979979     0.00000000
      10       0.00000000     0.36914903     0.00000000     0.00000000    -0.77014991
      11       0.00000000     1.54534568     0.00000000     0.00000000     0.52404942
      12       0.00000000    -1.91449472     0.00000000     0.00000000     0.24610049
      13       0.00000000    -0.57239612     0.00000000     0.00000000     0.38515470

               Column  11     Column  12     Column  13
       1      -1.54534568    -0.36914903     0.57239612
       4       0.00000000    -2.59409569     0.00000000
       7       1.54534568    -1.91449472    -0.57239612
      10       0.52404942     0.24610049     0.38515470
      11      -1.04809884     0.52404942     0.22969060
      12       0.52404942    -0.77014991     0.38515470
      13       0.22969060     0.38515470     0.42149383
    ==== End of matrix output ====

  *** Computed FV vector start ***
       1       -0.00439701
       2       -0.00000000
       3        0.00275100
       4       -0.00000000
       5       -0.00000000
       6        0.01205730
       7        0.00439701
       8       -0.00000000
       9        0.00275100
      10       -0.01751267
      11       -0.03459409
      12       -0.01751267
      13        0.00000000

  *** Computed FV vector end ***

  *** Computed MQ vector start ***
       1       -0.10888583
       2        0.00000000
       3       -0.07281532
       4       -0.00000000
       5       -0.00000000
       6        0.52791428
       7        0.10888583
       8        0.00000000
       9       -0.07281532
      10       -0.01574641
      11        0.03149282
      12       -0.01574641
      13       -0.02646978

  *** Computed MQ vector end ***

  *** Computed MQ vector start ***
       1       -0.10888583
       2        0.00000000
       3       -0.07281532
       4       -0.00000000
       5       -0.00000000
       6        0.52791428
       7        0.10888583
       8        0.00000000
       9       -0.07281532
      10       -0.01574641
      11        0.03149282
      12       -0.01574641
      13       -0.02646978

  *** Computed MQ vector end ***
@  1  -99.9368131325     -9.851713523796E-03    1.16961D+00   -9.99D+01
      Virial theorem: -V/T =      1.997024
@      MULPOP F      -0.47; H       0.47; 
 -----------------------------------------------------------------------------
   2  Screening settings (-IFTHRS, JTDIIS, DIFDEN, times)   -7    2    F  1.70D-02  1.70D-02

  *** Computed Relay matrix ***

               Column   1     Column   2     Column   3     Column   4     Column   5
       1       0.02529743     0.00000000     0.00000000    -0.00721700    -0.00000000
       2       0.00000000     0.02529743     0.00000000    -0.00000000     0.00891006
       3       0.00000000     0.00000000     0.02529743    -0.00000000    -0.00000000
       4      -0.00721700    -0.00000000    -0.00000000     0.02529743     0.00000000
       5      -0.00000000     0.00891006    -0.00000000     0.00000000     0.02529743
       6      -0.00000000    -0.00000000     0.00891006     0.00000000     0.00000000
       7      -0.00301200    -0.00000000    -0.00000000    -0.00721700    -0.00000000
       8      -0.00000000     0.00152046    -0.00000000    -0.00000000     0.00891006
       9      -0.00000000    -0.00000000     0.00152046    -0.00000000    -0.00000000
      10       0.00000000     0.00000000     0.00000000     0.04835708    -0.00000000
      11      -0.04835708    -0.00000000    -0.00000000     0.00000000     0.00000000
      12      -0.01323375    -0.00000000    -0.00000000    -0.04835708    -0.00000000

               Column   6     Column   7     Column   8     Column   9     Column  10
       1      -0.00000000    -0.00301200    -0.00000000    -0.00000000     0.00000000
       2      -0.00000000    -0.00000000     0.00152046    -0.00000000     0.00000000
       3       0.00891006    -0.00000000    -0.00000000     0.00152046     0.00000000
       4       0.00000000    -0.00721700    -0.00000000    -0.00000000     0.04835708
       5       0.00000000    -0.00000000     0.00891006    -0.00000000    -0.00000000
       6       0.02529743    -0.00000000    -0.00000000     0.00891006    -0.00000000
       7      -0.00000000     0.02529743     0.00000000     0.00000000     0.01323375
       8      -0.00000000     0.00000000     0.02529743     0.00000000    -0.00000000
       9       0.00891006     0.00000000     0.00000000     0.02529743    -0.00000000
      10      -0.00000000     0.01323375    -0.00000000    -0.00000000    -0.82243606
      11       0.00000000     0.04835708    -0.00000000    -0.00000000    -0.23007533
      12      -0.00000000     0.00000000     0.00000000     0.00000000    -0.11503852
      13       0.00000000     0.00000000     0.00000000     0.00000000     1.00000000

               Column  11     Column  12     Column  13
       1      -0.04835708    -0.01323375     0.00000000
       4       0.00000000    -0.04835708     0.00000000
       7       0.04835708     0.00000000     0.00000000
      10      -0.23007533    -0.11503852     1.00000000
      11      -0.82243606    -0.23007533     1.00000000
      12      -0.23007533    -0.82243606     1.00000000
      13       1.00000000     1.00000000     0.00000000
    ==== End of matrix output ====

  *** Inverted Relay matrix ***

               Column   1     Column   2     Column   3     Column   4     Column   5
       1      40.33913354     0.00000000     0.00000000     9.87372861     0.00000000
       2      -0.00000000    45.36979979     0.00000000     0.00000000   -17.14642913
       3      -0.00000000     0.00000000    45.36979979     0.00000000     0.00000000
       4       9.87372861     0.00000000     0.00000000    35.24593189     0.00000000
       5      -0.00000000   -17.14642913     0.00000000     0.00000000    51.60806047
       6      -0.00000000     0.00000000   -17.14642913     0.00000000     0.00000000
       7       9.57221835     0.00000000     0.00000000     9.87372861     0.00000000
       8      -0.00000000     3.31230943     0.00000000     0.00000000   -17.14642913
       9      -0.00000000     0.00000000     3.31230943     0.00000000     0.00000000
      10       1.91449472     0.00000000     0.00000000     2.59409569     0.00000000
      11      -1.54534568     0.00000000     0.00000000     0.00000000     0.00000000
      12      -0.36914903     0.00000000     0.00000000    -2.59409569     0.00000000
      13       0.57239612     0.00000000     0.00000000    -0.00000000     0.00000000

               Column   6     Column   7     Column   8     Column   9     Column  10
       1       0.00000000     9.57221835     0.00000000     0.00000000     1.91449472
       2       0.00000000     0.00000000     3.31230943     0.00000000     0.00000000
       3     -17.14642913     0.00000000     0.00000000     3.31230943     0.00000000
       4       0.00000000     9.87372861     0.00000000     0.00000000     2.59409569
       5       0.00000000     0.00000000   -17.14642913     0.00000000     0.00000000
       6      51.60806047     0.00000000     0.00000000   -17.14642913     0.00000000
       7       0.00000000    40.33913354     0.00000000     0.00000000     0.36914903
       8       0.00000000     0.00000000    45.36979979     0.00000000     0.00000000
       9     -17.14642913     0.00000000     0.00000000    45.36979979     0.00000000
      10       0.00000000     0.36914903     0.00000000     0.00000000    -0.77014991
      11       0.00000000     1.54534568     0.00000000     0.00000000     0.52404942
      12       0.00000000    -1.91449472     0.00000000     0.00000000     0.24610049
      13       0.00000000    -0.57239612     0.00000000     0.00000000     0.38515470

               Column  11     Column  12     Column  13
       1      -1.54534568    -0.36914903     0.57239612
       4       0.00000000    -2.59409569     0.00000000
       7       1.54534568    -1.91449472    -0.57239612
      10       0.52404942     0.24610049     0.38515470
      11      -1.04809884     0.52404942     0.22969060
      12       0.52404942    -0.77014991     0.38515470
      13       0.22969060     0.38515470     0.42149383
    ==== End of matrix output ====

  *** Computed FV vector start ***
       1       -0.00206482
       2       -0.00000000
       3        0.00163041
       4       -0.00000000
       5       -0.00000000
       6        0.00448669
       7        0.00206482
       8        0.00000000
       9        0.00163041
      10       -0.00949368
      11       -0.01589502
      12       -0.00949368
      13        0.00000000

  *** Computed FV vector end ***

  *** Computed MQ vector start ***
       1       -0.05363594
       2       -0.00000009
       3        0.00244128
       4       -0.00000000
       5       -0.00000000
       6        0.17563782
       7        0.05363594
       8        0.00000009
       9        0.00244128
      10       -0.00654548
      11        0.01309097
      12       -0.00654548
      13       -0.01332780

  *** Computed MQ vector end ***

  *** Computed MQ vector start ***
       1       -0.05363594
       2       -0.00000009
       3        0.00244128
       4       -0.00000000
       5       -0.00000000
       6        0.17563782
       7        0.05363594
       8        0.00000009
       9        0.00244128
      10       -0.00654548
      11        0.01309097
      12       -0.00654548
      13       -0.01332780

  *** Computed MQ vector end ***
@  2  -99.9905210187     -1.692528502639E-02    3.46589D-01   -5.37D-02
      Virial theorem: -V/T =      2.000873
@      MULPOP F      -0.24; H       0.24; 
 -----------------------------------------------------------------------------
   3  Screening settings (-IFTHRS, JTDIIS, DIFDEN, times)   -8    3    F  1.68D-02  1.70D-02

  *** Computed Relay matrix ***

               Column   1     Column   2     Column   3     Column   4     Column   5
       1       0.02529743     0.00000000     0.00000000    -0.00721700    -0.00000000
       2       0.00000000     0.02529743     0.00000000    -0.00000000     0.00891006
       3       0.00000000     0.00000000     0.02529743    -0.00000000    -0.00000000
       4      -0.00721700    -0.00000000    -0.00000000     0.02529743     0.00000000
       5      -0.00000000     0.00891006    -0.00000000     0.00000000     0.02529743
       6      -0.00000000    -0.00000000     0.00891006     0.00000000     0.00000000
       7      -0.00301200    -0.00000000    -0.00000000    -0.00721700    -0.00000000
       8      -0.00000000     0.00152046    -0.00000000    -0.00000000     0.00891006
       9      -0.00000000    -0.00000000     0.00152046    -0.00000000    -0.00000000
      10       0.00000000     0.00000000     0.00000000     0.04835708    -0.00000000
      11      -0.04835708    -0.00000000    -0.00000000     0.00000000     0.00000000
      12      -0.01323375    -0.00000000    -0.00000000    -0.04835708    -0.00000000

               Column   6     Column   7     Column   8     Column   9     Column  10
       1      -0.00000000    -0.00301200    -0.00000000    -0.00000000     0.00000000
       2      -0.00000000    -0.00000000     0.00152046    -0.00000000     0.00000000
       3       0.00891006    -0.00000000    -0.00000000     0.00152046     0.00000000
       4       0.00000000    -0.00721700    -0.00000000    -0.00000000     0.04835708
       5       0.00000000    -0.00000000     0.00891006    -0.00000000    -0.00000000
       6       0.02529743    -0.00000000    -0.00000000     0.00891006    -0.00000000
       7      -0.00000000     0.02529743     0.00000000     0.00000000     0.01323375
       8      -0.00000000     0.00000000     0.02529743     0.00000000    -0.00000000
       9       0.00891006     0.00000000     0.00000000     0.02529743    -0.00000000
      10      -0.00000000     0.01323375    -0.00000000    -0.00000000    -0.82243606
      11       0.00000000     0.04835708    -0.00000000    -0.00000000    -0.23007533
      12      -0.00000000     0.00000000     0.00000000     0.00000000    -0.11503852
      13       0.00000000     0.00000000     0.00000000     0.00000000     1.00000000

               Column  11     Column  12     Column  13
       1      -0.04835708    -0.01323375     0.00000000
       4       0.00000000    -0.04835708     0.00000000
       7       0.04835708     0.00000000     0.00000000
      10      -0.23007533    -0.11503852     1.00000000
      11      -0.82243606    -0.23007533     1.00000000
      12      -0.23007533    -0.82243606     1.00000000
      13       1.00000000     1.00000000     0.00000000
    ==== End of matrix output ====

  *** Inverted Relay matrix ***

               Column   1     Column   2     Column   3     Column   4     Column   5
       1      40.33913354     0.00000000     0.00000000     9.87372861     0.00000000
       2      -0.00000000    45.36979979     0.00000000     0.00000000   -17.14642913
       3      -0.00000000     0.00000000    45.36979979     0.00000000     0.00000000
       4       9.87372861     0.00000000     0.00000000    35.24593189     0.00000000
       5      -0.00000000   -17.14642913     0.00000000     0.00000000    51.60806047
       6      -0.00000000     0.00000000   -17.14642913     0.00000000     0.00000000
       7       9.57221835     0.00000000     0.00000000     9.87372861     0.00000000
       8      -0.00000000     3.31230943     0.00000000     0.00000000   -17.14642913
       9      -0.00000000     0.00000000     3.31230943     0.00000000     0.00000000
      10       1.91449472     0.00000000     0.00000000     2.59409569     0.00000000
      11      -1.54534568     0.00000000     0.00000000     0.00000000     0.00000000
      12      -0.36914903     0.00000000     0.00000000    -2.59409569     0.00000000
      13       0.57239612     0.00000000     0.00000000    -0.00000000     0.00000000

               Column   6     Column   7     Column   8     Column   9     Column  10
       1       0.00000000     9.57221835     0.00000000     0.00000000     1.91449472
       2       0.00000000     0.00000000     3.31230943     0.00000000     0.00000000
       3     -17.14642913     0.00000000     0.00000000     3.31230943     0.00000000
       4       0.00000000     9.87372861     0.00000000     0.00000000     2.59409569
       5       0.00000000     0.00000000   -17.14642913     0.00000000     0.00000000
       6      51.60806047     0.00000000     0.00000000   -17.14642913     0.00000000
       7       0.00000000    40.33913354     0.00000000     0.00000000     0.36914903
       8       0.00000000     0.00000000    45.36979979     0.00000000     0.00000000
       9     -17.14642913     0.00000000     0.00000000    45.36979979     0.00000000
      10       0.00000000     0.36914903     0.00000000     0.00000000    -0.77014991
      11       0.00000000     1.54534568     0.00000000     0.00000000     0.52404942
      12       0.00000000    -1.91449472     0.00000000     0.00000000     0.24610049
      13       0.00000000    -0.57239612     0.00000000     0.00000000     0.38515470

               Column  11     Column  12     Column  13
       1      -1.54534568    -0.36914903     0.57239612
       4       0.00000000    -2.59409569     0.00000000
       7       1.54534568    -1.91449472    -0.57239612
      10       0.52404942     0.24610049     0.38515470
      11      -1.04809884     0.52404942     0.22969060
      12       0.52404942    -0.77014991     0.38515470
      13       0.22969060     0.38515470     0.42149383
    ==== End of matrix output ====

  *** Computed FV vector start ***
       1       -0.00267909
       2       -0.00000000
       3        0.00195226
       4       -0.00000000
       5       -0.00000000
       6        0.00639504
       7        0.00267909
       8        0.00000000
       9        0.00195226
      10       -0.01171197
      11       -0.02080638
      12       -0.01171197
      13        0.00000000

  *** Computed FV vector end ***

  *** Computed MQ vector start ***
       1       -0.06837339
       2       -0.00000003
       3       -0.01461220
       4        0.00000000
       5       -0.00000000
       6        0.26308733
       7        0.06837339
       8        0.00000003
       9       -0.01461220
      10       -0.00890604
      11        0.01781209
      12       -0.00890604
      13       -0.01686787

  *** Computed MQ vector end ***

  *** Computed MQ vector start ***
       1       -0.06837339
       2       -0.00000003
       3       -0.01461220
       4        0.00000000
       5       -0.00000000
       6        0.26308733
       7        0.06837339
       8        0.00000003
       9       -0.01461220
      10       -0.00890604
      11        0.01781209
      12       -0.00890604
      13       -0.01686787

  *** Computed MQ vector end ***
@  3  -100.000547045     -1.792928592383E-02    4.31860D-02   -1.00D-02
      Virial theorem: -V/T =      2.000020
@      MULPOP F      -0.30; H       0.30; 
 -----------------------------------------------------------------------------
   4  Screening settings (-IFTHRS, JTDIIS, DIFDEN, times)   -8    4    F  1.68D-02  1.70D-02

  *** Computed Relay matrix ***

               Column   1     Column   2     Column   3     Column   4     Column   5
       1       0.02529743     0.00000000     0.00000000    -0.00721700    -0.00000000
       2       0.00000000     0.02529743     0.00000000    -0.00000000     0.00891006
       3       0.00000000     0.00000000     0.02529743    -0.00000000    -0.00000000
       4      -0.00721700    -0.00000000    -0.00000000     0.02529743     0.00000000
       5      -0.00000000     0.00891006    -0.00000000     0.00000000     0.02529743
       6      -0.00000000    -0.00000000     0.00891006     0.00000000     0.00000000
       7      -0.00301200    -0.00000000    -0.00000000    -0.00721700    -0.00000000
       8      -0.00000000     0.00152046    -0.00000000    -0.00000000     0.00891006
       9      -0.00000000    -0.00000000     0.00152046    -0.00000000    -0.00000000
      10       0.00000000     0.00000000     0.00000000     0.04835708    -0.00000000
      11      -0.04835708    -0.00000000    -0.00000000     0.00000000     0.00000000
      12      -0.01323375    -0.00000000    -0.00000000    -0.04835708    -0.00000000

               Column   6     Column   7     Column   8     Column   9     Column  10
       1      -0.00000000    -0.00301200    -0.00000000    -0.00000000     0.00000000
       2      -0.00000000    -0.00000000     0.00152046    -0.00000000     0.00000000
       3       0.00891006    -0.00000000    -0.00000000     0.00152046     0.00000000
       4       0.00000000    -0.00721700    -0.00000000    -0.00000000     0.04835708
       5       0.00000000    -0.00000000     0.00891006    -0.00000000    -0.00000000
       6       0.02529743    -0.00000000    -0.00000000     0.00891006    -0.00000000
       7      -0.00000000     0.02529743     0.00000000     0.00000000     0.01323375
       8      -0.00000000     0.00000000     0.02529743     0.00000000    -0.00000000
       9       0.00891006     0.00000000     0.00000000     0.02529743    -0.00000000
      10      -0.00000000     0.01323375    -0.00000000    -0.00000000    -0.82243606
      11       0.00000000     0.04835708    -0.00000000    -0.00000000    -0.23007533
      12      -0.00000000     0.00000000     0.00000000     0.00000000    -0.11503852
      13       0.00000000     0.00000000     0.00000000     0.00000000     1.00000000

               Column  11     Column  12     Column  13
       1      -0.04835708    -0.01323375     0.00000000
       4       0.00000000    -0.04835708     0.00000000
       7       0.04835708     0.00000000     0.00000000
      10      -0.23007533    -0.11503852     1.00000000
      11      -0.82243606    -0.23007533     1.00000000
      12      -0.23007533    -0.82243606     1.00000000
      13       1.00000000     1.00000000     0.00000000
    ==== End of matrix output ====

  *** Inverted Relay matrix ***

               Column   1     Column   2     Column   3     Column   4     Column   5
       1      40.33913354     0.00000000     0.00000000     9.87372861     0.00000000
       2      -0.00000000    45.36979979     0.00000000     0.00000000   -17.14642913
       3      -0.00000000     0.00000000    45.36979979     0.00000000     0.00000000
       4       9.87372861     0.00000000     0.00000000    35.24593189     0.00000000
       5      -0.00000000   -17.14642913     0.00000000     0.00000000    51.60806047
       6      -0.00000000     0.00000000   -17.14642913     0.00000000     0.00000000
       7       9.57221835     0.00000000     0.00000000     9.87372861     0.00000000
       8      -0.00000000     3.31230943     0.00000000     0.00000000   -17.14642913
       9      -0.00000000     0.00000000     3.31230943     0.00000000     0.00000000
      10       1.91449472     0.00000000     0.00000000     2.59409569     0.00000000
      11      -1.54534568     0.00000000     0.00000000     0.00000000     0.00000000
      12      -0.36914903     0.00000000     0.00000000    -2.59409569     0.00000000
      13       0.57239612     0.00000000     0.00000000    -0.00000000     0.00000000

               Column   6     Column   7     Column   8     Column   9     Column  10
       1       0.00000000     9.57221835     0.00000000     0.00000000     1.91449472
       2       0.00000000     0.00000000     3.31230943     0.00000000     0.00000000
       3     -17.14642913     0.00000000     0.00000000     3.31230943     0.00000000
       4       0.00000000     9.87372861     0.00000000     0.00000000     2.59409569
       5       0.00000000     0.00000000   -17.14642913     0.00000000     0.00000000
       6      51.60806047     0.00000000     0.00000000   -17.14642913     0.00000000
       7       0.00000000    40.33913354     0.00000000     0.00000000     0.36914903
       8       0.00000000     0.00000000    45.36979979     0.00000000     0.00000000
       9     -17.14642913     0.00000000     0.00000000    45.36979979     0.00000000
      10       0.00000000     0.36914903     0.00000000     0.00000000    -0.77014991
      11       0.00000000     1.54534568     0.00000000     0.00000000     0.52404942
      12       0.00000000    -1.91449472     0.00000000     0.00000000     0.24610049
      13       0.00000000    -0.57239612     0.00000000     0.00000000     0.38515470

               Column  11     Column  12     Column  13
       1      -1.54534568    -0.36914903     0.57239612
       4       0.00000000    -2.59409569     0.00000000
       7       1.54534568    -1.91449472    -0.57239612
      10       0.52404942     0.24610049     0.38515470
      11      -1.04809884     0.52404942     0.22969060
      12       0.52404942    -0.77014991     0.38515470
      13       0.22969060     0.38515470     0.42149383
    ==== End of matrix output ====

  *** Computed FV vector start ***
       1       -0.00269143
       2       -0.00000000
       3        0.00196135
       4       -0.00000000
       5       -0.00000000
       6        0.00642104
       7        0.00269143
       8        0.00000000
       9        0.00196135
      10       -0.01176514
      11       -0.02089779
      12       -0.01176514
      13        0.00000000

  *** Computed FV vector end ***

  *** Computed MQ vector start ***
       1       -0.06869383
       2       -0.00000001
       3       -0.01461540
       4       -0.00000000
       5       -0.00000000
       6        0.26411709
       7        0.06869383
       8        0.00000001
       9       -0.01461540
      10       -0.00894514
      11        0.01789029
      12       -0.00894514
      13       -0.01694395

  *** Computed MQ vector end ***

  *** Computed MQ vector start ***
       1       -0.06869383
       2       -0.00000001
       3       -0.01461540
       4       -0.00000000
       5       -0.00000000
       6        0.26411709
       7        0.06869383
       8        0.00000001
       9       -0.01461540
      10       -0.00894514
      11        0.01789029
      12       -0.00894514
      13       -0.01694395

  *** Computed MQ vector end ***
@  4  -100.000554918     -1.827659484844E-02    5.75867D-03   -7.87D-06
      Virial theorem: -V/T =      1.999954
@      MULPOP F      -0.30; H       0.30; 
 -----------------------------------------------------------------------------
   5  Screening settings (-IFTHRS, JTDIIS, DIFDEN, times)   -9    5    F  1.68D-02  1.70D-02

  *** Computed Relay matrix ***

               Column   1     Column   2     Column   3     Column   4     Column   5
       1       0.02529743     0.00000000     0.00000000    -0.00721700    -0.00000000
       2       0.00000000     0.02529743     0.00000000    -0.00000000     0.00891006
       3       0.00000000     0.00000000     0.02529743    -0.00000000    -0.00000000
       4      -0.00721700    -0.00000000    -0.00000000     0.02529743     0.00000000
       5      -0.00000000     0.00891006    -0.00000000     0.00000000     0.02529743
       6      -0.00000000    -0.00000000     0.00891006     0.00000000     0.00000000
       7      -0.00301200    -0.00000000    -0.00000000    -0.00721700    -0.00000000
       8      -0.00000000     0.00152046    -0.00000000    -0.00000000     0.00891006
       9      -0.00000000    -0.00000000     0.00152046    -0.00000000    -0.00000000
      10       0.00000000     0.00000000     0.00000000     0.04835708    -0.00000000
      11      -0.04835708    -0.00000000    -0.00000000     0.00000000     0.00000000
      12      -0.01323375    -0.00000000    -0.00000000    -0.04835708    -0.00000000

               Column   6     Column   7     Column   8     Column   9     Column  10
       1      -0.00000000    -0.00301200    -0.00000000    -0.00000000     0.00000000
       2      -0.00000000    -0.00000000     0.00152046    -0.00000000     0.00000000
       3       0.00891006    -0.00000000    -0.00000000     0.00152046     0.00000000
       4       0.00000000    -0.00721700    -0.00000000    -0.00000000     0.04835708
       5       0.00000000    -0.00000000     0.00891006    -0.00000000    -0.00000000
       6       0.02529743    -0.00000000    -0.00000000     0.00891006    -0.00000000
       7      -0.00000000     0.02529743     0.00000000     0.00000000     0.01323375
       8      -0.00000000     0.00000000     0.02529743     0.00000000    -0.00000000
       9       0.00891006     0.00000000     0.00000000     0.02529743    -0.00000000
      10      -0.00000000     0.01323375    -0.00000000    -0.00000000    -0.82243606
      11       0.00000000     0.04835708    -0.00000000    -0.00000000    -0.23007533
      12      -0.00000000     0.00000000     0.00000000     0.00000000    -0.11503852
      13       0.00000000     0.00000000     0.00000000     0.00000000     1.00000000

               Column  11     Column  12     Column  13
       1      -0.04835708    -0.01323375     0.00000000
       4       0.00000000    -0.04835708     0.00000000
       7       0.04835708     0.00000000     0.00000000
      10      -0.23007533    -0.11503852     1.00000000
      11      -0.82243606    -0.23007533     1.00000000
      12      -0.23007533    -0.82243606     1.00000000
      13       1.00000000     1.00000000     0.00000000
    ==== End of matrix output ====

  *** Inverted Relay matrix ***

               Column   1     Column   2     Column   3     Column   4     Column   5
       1      40.33913354     0.00000000     0.00000000     9.87372861     0.00000000
       2      -0.00000000    45.36979979     0.00000000     0.00000000   -17.14642913
       3      -0.00000000     0.00000000    45.36979979     0.00000000     0.00000000
       4       9.87372861     0.00000000     0.00000000    35.24593189     0.00000000
       5      -0.00000000   -17.14642913     0.00000000     0.00000000    51.60806047
       6      -0.00000000     0.00000000   -17.14642913     0.00000000     0.00000000
       7       9.57221835     0.00000000     0.00000000     9.87372861     0.00000000
       8      -0.00000000     3.31230943     0.00000000     0.00000000   -17.14642913
       9      -0.00000000     0.00000000     3.31230943     0.00000000     0.00000000
      10       1.91449472     0.00000000     0.00000000     2.59409569     0.00000000
      11      -1.54534568     0.00000000     0.00000000     0.00000000     0.00000000
      12      -0.36914903     0.00000000     0.00000000    -2.59409569     0.00000000
      13       0.57239612     0.00000000     0.00000000    -0.00000000     0.00000000

               Column   6     Column   7     Column   8     Column   9     Column  10
       1       0.00000000     9.57221835     0.00000000     0.00000000     1.91449472
       2       0.00000000     0.00000000     3.31230943     0.00000000     0.00000000
       3     -17.14642913     0.00000000     0.00000000     3.31230943     0.00000000
       4       0.00000000     9.87372861     0.00000000     0.00000000     2.59409569
       5       0.00000000     0.00000000   -17.14642913     0.00000000     0.00000000
       6      51.60806047     0.00000000     0.00000000   -17.14642913     0.00000000
       7       0.00000000    40.33913354     0.00000000     0.00000000     0.36914903
       8       0.00000000     0.00000000    45.36979979     0.00000000     0.00000000
       9     -17.14642913     0.00000000     0.00000000    45.36979979     0.00000000
      10       0.00000000     0.36914903     0.00000000     0.00000000    -0.77014991
      11       0.00000000     1.54534568     0.00000000     0.00000000     0.52404942
      12       0.00000000    -1.91449472     0.00000000     0.00000000     0.24610049
      13       0.00000000    -0.57239612     0.00000000     0.00000000     0.38515470

               Column  11     Column  12     Column  13
       1      -1.54534568    -0.36914903     0.57239612
       4       0.00000000    -2.59409569     0.00000000
       7       1.54534568    -1.91449472    -0.57239612
      10       0.52404942     0.24610049     0.38515470
      11      -1.04809884     0.52404942     0.22969060
      12       0.52404942    -0.77014991     0.38515470
      13       0.22969060     0.38515470     0.42149383
    ==== End of matrix output ====

  *** Computed FV vector start ***
       1       -0.00269888
       2       -0.00000000
       3        0.00196552
       4       -0.00000000
       5       -0.00000000
       6        0.00644236
       7        0.00269888
       8        0.00000000
       9        0.00196552
      10       -0.01179255
      11       -0.02095564
      12       -0.01179255
      13        0.00000000

  *** Computed FV vector end ***

  *** Computed MQ vector start ***
       1       -0.06887615
       2       -0.00000000
       3       -0.01477795
       4       -0.00000000
       5       -0.00000000
       6        0.26507436
       7        0.06887615
       8        0.00000000
       9       -0.01477795
      10       -0.00897262
      11        0.01794524
      12       -0.00897262
      13       -0.01698689

  *** Computed MQ vector end ***

  *** Computed MQ vector start ***
       1       -0.06887615
       2       -0.00000000
       3       -0.01477795
       4       -0.00000000
       5       -0.00000000
       6        0.26507436
       7        0.06887615
       8        0.00000000
       9       -0.01477795
      10       -0.00897262
      11        0.01794524
      12       -0.00897262
      13       -0.01698689

  *** Computed MQ vector end ***
@  5  -100.000528046     -1.839330698503E-02    1.84698D-03    2.69D-05
      Virial theorem: -V/T =      1.999895
@      MULPOP F      -0.30; H       0.30; 
 -----------------------------------------------------------------------------
   6  Screening settings (-IFTHRS, JTDIIS, DIFDEN, times)  -10    6    F  1.68D-02  1.70D-02

  *** Computed Relay matrix ***

               Column   1     Column   2     Column   3     Column   4     Column   5
       1       0.02529743     0.00000000     0.00000000    -0.00721700    -0.00000000
       2       0.00000000     0.02529743     0.00000000    -0.00000000     0.00891006
       3       0.00000000     0.00000000     0.02529743    -0.00000000    -0.00000000
       4      -0.00721700    -0.00000000    -0.00000000     0.02529743     0.00000000
       5      -0.00000000     0.00891006    -0.00000000     0.00000000     0.02529743
       6      -0.00000000    -0.00000000     0.00891006     0.00000000     0.00000000
       7      -0.00301200    -0.00000000    -0.00000000    -0.00721700    -0.00000000
       8      -0.00000000     0.00152046    -0.00000000    -0.00000000     0.00891006
       9      -0.00000000    -0.00000000     0.00152046    -0.00000000    -0.00000000
      10       0.00000000     0.00000000     0.00000000     0.04835708    -0.00000000
      11      -0.04835708    -0.00000000    -0.00000000     0.00000000     0.00000000
      12      -0.01323375    -0.00000000    -0.00000000    -0.04835708    -0.00000000

               Column   6     Column   7     Column   8     Column   9     Column  10
       1      -0.00000000    -0.00301200    -0.00000000    -0.00000000     0.00000000
       2      -0.00000000    -0.00000000     0.00152046    -0.00000000     0.00000000
       3       0.00891006    -0.00000000    -0.00000000     0.00152046     0.00000000
       4       0.00000000    -0.00721700    -0.00000000    -0.00000000     0.04835708
       5       0.00000000    -0.00000000     0.00891006    -0.00000000    -0.00000000
       6       0.02529743    -0.00000000    -0.00000000     0.00891006    -0.00000000
       7      -0.00000000     0.02529743     0.00000000     0.00000000     0.01323375
       8      -0.00000000     0.00000000     0.02529743     0.00000000    -0.00000000
       9       0.00891006     0.00000000     0.00000000     0.02529743    -0.00000000
      10      -0.00000000     0.01323375    -0.00000000    -0.00000000    -0.82243606
      11       0.00000000     0.04835708    -0.00000000    -0.00000000    -0.23007533
      12      -0.00000000     0.00000000     0.00000000     0.00000000    -0.11503852
      13       0.00000000     0.00000000     0.00000000     0.00000000     1.00000000

               Column  11     Column  12     Column  13
       1      -0.04835708    -0.01323375     0.00000000
       4       0.00000000    -0.04835708     0.00000000
       7       0.04835708     0.00000000     0.00000000
      10      -0.23007533    -0.11503852     1.00000000
      11      -0.82243606    -0.23007533     1.00000000
      12      -0.23007533    -0.82243606     1.00000000
      13       1.00000000     1.00000000     0.00000000
    ==== End of matrix output ====

  *** Inverted Relay matrix ***

               Column   1     Column   2     Column   3     Column   4     Column   5
       1      40.33913354     0.00000000     0.00000000     9.87372861     0.00000000
       2      -0.00000000    45.36979979     0.00000000     0.00000000   -17.14642913
       3      -0.00000000     0.00000000    45.36979979     0.00000000     0.00000000
       4       9.87372861     0.00000000     0.00000000    35.24593189     0.00000000
       5      -0.00000000   -17.14642913     0.00000000     0.00000000    51.60806047
       6      -0.00000000     0.00000000   -17.14642913     0.00000000     0.00000000
       7       9.57221835     0.00000000     0.00000000     9.87372861     0.00000000
       8      -0.00000000     3.31230943     0.00000000     0.00000000   -17.14642913
       9      -0.00000000     0.00000000     3.31230943     0.00000000     0.00000000
      10       1.91449472     0.00000000     0.00000000     2.59409569     0.00000000
      11      -1.54534568     0.00000000     0.00000000     0.00000000     0.00000000
      12      -0.36914903     0.00000000     0.00000000    -2.59409569     0.00000000
      13       0.57239612     0.00000000     0.00000000    -0.00000000     0.00000000

               Column   6     Column   7     Column   8     Column   9     Column  10
       1       0.00000000     9.57221835     0.00000000     0.00000000     1.91449472
       2       0.00000000     0.00000000     3.31230943     0.00000000     0.00000000
       3     -17.14642913     0.00000000     0.00000000     3.31230943     0.00000000
       4       0.00000000     9.87372861     0.00000000     0.00000000     2.59409569
       5       0.00000000     0.00000000   -17.14642913     0.00000000     0.00000000
       6      51.60806047     0.00000000     0.00000000   -17.14642913     0.00000000
       7       0.00000000    40.33913354     0.00000000     0.00000000     0.36914903
       8       0.00000000     0.00000000    45.36979979     0.00000000     0.00000000
       9     -17.14642913     0.00000000     0.00000000    45.36979979     0.00000000
      10       0.00000000     0.36914903     0.00000000     0.00000000    -0.77014991
      11       0.00000000     1.54534568     0.00000000     0.00000000     0.52404942
      12       0.00000000    -1.91449472     0.00000000     0.00000000     0.24610049
      13       0.00000000    -0.57239612     0.00000000     0.00000000     0.38515470

               Column  11     Column  12     Column  13
       1      -1.54534568    -0.36914903     0.57239612
       4       0.00000000    -2.59409569     0.00000000
       7       1.54534568    -1.91449472    -0.57239612
      10       0.52404942     0.24610049     0.38515470
      11      -1.04809884     0.52404942     0.22969060
      12       0.52404942    -0.77014991     0.38515470
      13       0.22969060     0.38515470     0.42149383
    ==== End of matrix output ====

  *** Computed FV vector start ***
       1       -0.00269801
       2       -0.00000000
       3        0.00196507
       4       -0.00000000
       5       -0.00000000
       6        0.00643933
       7        0.00269801
       8        0.00000000
       9        0.00196507
      10       -0.01178932
      11       -0.02094825
      12       -0.01178932
      13        0.00000000

  *** Computed FV vector end ***

  *** Computed MQ vector start ***
       1       -0.06885573
       2       -0.00000000
       3       -0.01474768
       4       -0.00000000
       5       -0.00000000
       6        0.26493355
       7        0.06885573
       8        0.00000000
       9       -0.01474768
      10       -0.00896909
      11        0.01793818
      12       -0.00896909
      13       -0.01698170

  *** Computed MQ vector end ***

  *** Computed MQ vector start ***
       1       -0.06885573
       2       -0.00000000
       3       -0.01474768
       4       -0.00000000
       5       -0.00000000
       6        0.26493355
       7        0.06885573
       8        0.00000000
       9       -0.01474768
      10       -0.00896909
      11        0.01793818
      12       -0.00896909
      13       -0.01698170

  *** Computed MQ vector end ***
@  6  -100.000514734     -1.840022221525E-02    4.29325D-04    1.33D-05

!!! Info: DIIS restarted because it was stalled ...
 - energy changed by    1.331E-05
 - gradient changed by -1.418E-03
 - or strange C vector coeff. for current index (=  6) :
    0.000010    0.000433    0.001784   -0.068247    0.113761    0.952260

! Backstep to previous Fock matrix because energy increased.
      Virial theorem: -V/T =      1.999894
@      MULPOP F      -0.30; H       0.30; 
 -----------------------------------------------------------------------------
   7  Screening settings (-IFTHRS, JTDIIS, DIFDEN, times)  -10    2    F  1.69D-02  1.70D-02

  *** Computed Relay matrix ***

               Column   1     Column   2     Column   3     Column   4     Column   5
       1       0.02529743     0.00000000     0.00000000    -0.00721700    -0.00000000
       2       0.00000000     0.02529743     0.00000000    -0.00000000     0.00891006
       3       0.00000000     0.00000000     0.02529743    -0.00000000    -0.00000000
       4      -0.00721700    -0.00000000    -0.00000000     0.02529743     0.00000000
       5      -0.00000000     0.00891006    -0.00000000     0.00000000     0.02529743
       6      -0.00000000    -0.00000000     0.00891006     0.00000000     0.00000000
       7      -0.00301200    -0.00000000    -0.00000000    -0.00721700    -0.00000000
       8      -0.00000000     0.00152046    -0.00000000    -0.00000000     0.00891006
       9      -0.00000000    -0.00000000     0.00152046    -0.00000000    -0.00000000
      10       0.00000000     0.00000000     0.00000000     0.04835708    -0.00000000
      11      -0.04835708    -0.00000000    -0.00000000     0.00000000     0.00000000
      12      -0.01323375    -0.00000000    -0.00000000    -0.04835708    -0.00000000

               Column   6     Column   7     Column   8     Column   9     Column  10
       1      -0.00000000    -0.00301200    -0.00000000    -0.00000000     0.00000000
       2      -0.00000000    -0.00000000     0.00152046    -0.00000000     0.00000000
       3       0.00891006    -0.00000000    -0.00000000     0.00152046     0.00000000
       4       0.00000000    -0.00721700    -0.00000000    -0.00000000     0.04835708
       5       0.00000000    -0.00000000     0.00891006    -0.00000000    -0.00000000
       6       0.02529743    -0.00000000    -0.00000000     0.00891006    -0.00000000
       7      -0.00000000     0.02529743     0.00000000     0.00000000     0.01323375
       8      -0.00000000     0.00000000     0.02529743     0.00000000    -0.00000000
       9       0.00891006     0.00000000     0.00000000     0.02529743    -0.00000000
      10      -0.00000000     0.01323375    -0.00000000    -0.00000000    -0.82243606
      11       0.00000000     0.04835708    -0.00000000    -0.00000000    -0.23007533
      12      -0.00000000     0.00000000     0.00000000     0.00000000    -0.11503852
      13       0.00000000     0.00000000     0.00000000     0.00000000     1.00000000

               Column  11     Column  12     Column  13
       1      -0.04835708    -0.01323375     0.00000000
       4       0.00000000    -0.04835708     0.00000000
       7       0.04835708     0.00000000     0.00000000
      10      -0.23007533    -0.11503852     1.00000000
      11      -0.82243606    -0.23007533     1.00000000
      12      -0.23007533    -0.82243606     1.00000000
      13       1.00000000     1.00000000     0.00000000
    ==== End of matrix output ====

  *** Inverted Relay matrix ***

               Column   1     Column   2     Column   3     Column   4     Column   5
       1      40.33913354     0.00000000     0.00000000     9.87372861     0.00000000
       2      -0.00000000    45.36979979     0.00000000     0.00000000   -17.14642913
       3      -0.00000000     0.00000000    45.36979979     0.00000000     0.00000000
       4       9.87372861     0.00000000     0.00000000    35.24593189     0.00000000
       5      -0.00000000   -17.14642913     0.00000000     0.00000000    51.60806047
       6      -0.00000000     0.00000000   -17.14642913     0.00000000     0.00000000
       7       9.57221835     0.00000000     0.00000000     9.87372861     0.00000000
       8      -0.00000000     3.31230943     0.00000000     0.00000000   -17.14642913
       9      -0.00000000     0.00000000     3.31230943     0.00000000     0.00000000
      10       1.91449472     0.00000000     0.00000000     2.59409569     0.00000000
      11      -1.54534568     0.00000000     0.00000000     0.00000000     0.00000000
      12      -0.36914903     0.00000000     0.00000000    -2.59409569     0.00000000
      13       0.57239612     0.00000000     0.00000000    -0.00000000     0.00000000

               Column   6     Column   7     Column   8     Column   9     Column  10
       1       0.00000000     9.57221835     0.00000000     0.00000000     1.91449472
       2       0.00000000     0.00000000     3.31230943     0.00000000     0.00000000
       3     -17.14642913     0.00000000     0.00000000     3.31230943     0.00000000
       4       0.00000000     9.87372861     0.00000000     0.00000000     2.59409569
       5       0.00000000     0.00000000   -17.14642913     0.00000000     0.00000000
       6      51.60806047     0.00000000     0.00000000   -17.14642913     0.00000000
       7       0.00000000    40.33913354     0.00000000     0.00000000     0.36914903
       8       0.00000000     0.00000000    45.36979979     0.00000000     0.00000000
       9     -17.14642913     0.00000000     0.00000000    45.36979979     0.00000000
      10       0.00000000     0.36914903     0.00000000     0.00000000    -0.77014991
      11       0.00000000     1.54534568     0.00000000     0.00000000     0.52404942
      12       0.00000000    -1.91449472     0.00000000     0.00000000     0.24610049
      13       0.00000000    -0.57239612     0.00000000     0.00000000     0.38515470

               Column  11     Column  12     Column  13
       1      -1.54534568    -0.36914903     0.57239612
       4       0.00000000    -2.59409569     0.00000000
       7       1.54534568    -1.91449472    -0.57239612
      10       0.52404942     0.24610049     0.38515470
      11      -1.04809884     0.52404942     0.22969060
      12       0.52404942    -0.77014991     0.38515470
      13       0.22969060     0.38515470     0.42149383
    ==== End of matrix output ====

  *** Computed FV vector start ***
       1       -0.00269717
       2       -0.00000000
       3        0.00196463
       4       -0.00000000
       5       -0.00000000
       6        0.00643673
       7        0.00269717
       8        0.00000000
       9        0.00196463
      10       -0.01178629
      11       -0.02094154
      12       -0.01178629
      13        0.00000000

  *** Computed FV vector end ***

  *** Computed MQ vector start ***
       1       -0.06883561
       2       -0.00000000
       3       -0.01472451
       4       -0.00000000
       5       -0.00000000
       6        0.26481422
       7        0.06883561
       8        0.00000000
       9       -0.01472451
      10       -0.00896587
      11        0.01793173
      12       -0.00896587
      13       -0.01697686

  *** Computed MQ vector end ***

  *** Computed MQ vector start ***
       1       -0.06883561
       2       -0.00000000
       3       -0.01472451
       4       -0.00000000
       5       -0.00000000
       6        0.26481422
       7        0.06883561
       8        0.00000000
       9       -0.01472451
      10       -0.00896587
      11        0.01793173
      12       -0.00896587
      13       -0.01697686

  *** Computed MQ vector end ***
@  7  -100.000509122     -1.839738343872E-02    6.95885D-04    5.61D-06
      Virial theorem: -V/T =      1.999926
@      MULPOP F      -0.30; H       0.30; 
 -----------------------------------------------------------------------------
   8  Screening settings (-IFTHRS, JTDIIS, DIFDEN, times)  -10    3    F  1.72D-02  1.70D-02

  *** Computed Relay matrix ***

               Column   1     Column   2     Column   3     Column   4     Column   5
       1       0.02529743     0.00000000     0.00000000    -0.00721700    -0.00000000
       2       0.00000000     0.02529743     0.00000000    -0.00000000     0.00891006
       3       0.00000000     0.00000000     0.02529743    -0.00000000    -0.00000000
       4      -0.00721700    -0.00000000    -0.00000000     0.02529743     0.00000000
       5      -0.00000000     0.00891006    -0.00000000     0.00000000     0.02529743
       6      -0.00000000    -0.00000000     0.00891006     0.00000000     0.00000000
       7      -0.00301200    -0.00000000    -0.00000000    -0.00721700    -0.00000000
       8      -0.00000000     0.00152046    -0.00000000    -0.00000000     0.00891006
       9      -0.00000000    -0.00000000     0.00152046    -0.00000000    -0.00000000
      10       0.00000000     0.00000000     0.00000000     0.04835708    -0.00000000
      11      -0.04835708    -0.00000000    -0.00000000     0.00000000     0.00000000
      12      -0.01323375    -0.00000000    -0.00000000    -0.04835708    -0.00000000

               Column   6     Column   7     Column   8     Column   9     Column  10
       1      -0.00000000    -0.00301200    -0.00000000    -0.00000000     0.00000000
       2      -0.00000000    -0.00000000     0.00152046    -0.00000000     0.00000000
       3       0.00891006    -0.00000000    -0.00000000     0.00152046     0.00000000
       4       0.00000000    -0.00721700    -0.00000000    -0.00000000     0.04835708
       5       0.00000000    -0.00000000     0.00891006    -0.00000000    -0.00000000
       6       0.02529743    -0.00000000    -0.00000000     0.00891006    -0.00000000
       7      -0.00000000     0.02529743     0.00000000     0.00000000     0.01323375
       8      -0.00000000     0.00000000     0.02529743     0.00000000    -0.00000000
       9       0.00891006     0.00000000     0.00000000     0.02529743    -0.00000000
      10      -0.00000000     0.01323375    -0.00000000    -0.00000000    -0.82243606
      11       0.00000000     0.04835708    -0.00000000    -0.00000000    -0.23007533
      12      -0.00000000     0.00000000     0.00000000     0.00000000    -0.11503852
      13       0.00000000     0.00000000     0.00000000     0.00000000     1.00000000

               Column  11     Column  12     Column  13
       1      -0.04835708    -0.01323375     0.00000000
       4       0.00000000    -0.04835708     0.00000000
       7       0.04835708     0.00000000     0.00000000
      10      -0.23007533    -0.11503852     1.00000000
      11      -0.82243606    -0.23007533     1.00000000
[...]

  *** Computed MQ vector start 1st-order density 1
       1       -0.02772351
       2       -0.00000003
       3        0.09147040
       4        0.13172648
       5       -0.00000032
       6        0.00000000
       7       -0.02772351
       8       -0.00000003
       9       -0.09147040
      10        0.01712387
      11        0.00000000
      12       -0.01712387
      13       -0.00000000

  *** Computed MQ vector end ***

  *** Computed MQ vector start 1st-order density 2
       1       -0.00123781
       2       -0.00000001
       3        0.00073147
       4       -0.00196125
       5       -0.00000017
       6       -0.00000000
       7       -0.00123781
       8       -0.00000001
       9       -0.00073147
      10       -0.00016443
      11       -0.00000000
      12        0.00016443
      13        0.00000000

  *** Computed MQ vector end ***

 *** THE REQUESTED    2 SOLUTION VECTORS CONVERGED

 Convergence of RSP solution vectors, threshold = 1.00D-03
 ---------------------------------------------------------------
 (dimension of paired reduced space:   16)
 RSP solution vector no.    1; norm of residual   4.08D-04
 RSP solution vector no.    2; norm of residual   4.18D-04

 *** RSPCTL MICROITERATIONS CONVERGED


 RSPLR -- linear response calculation for symmetry 1  ( A  )
 RSPLR -- operator label : YDIPLEN 
 RSPLR -- operator spin  :   0
 RSPLR -- frequencies :   0.000000  0.030000
 FREQ 2    0.0000000000000000        2.9999999999999999E-002



 <<<  SOLVING SETS OF LINEAR EQUATIONS FOR LINEAR RESPONSE PROPERTIES >>>

 Operator symmetry = 1  ( A  ); triplet =   F


  *** Computed FV vector start 1 1
       1        0.00000000
       2        0.00512159
       3       -0.00000000
       4       -0.00000000
       5        0.01188088
       6        0.00000000
       7        0.00000000
       8        0.00512159
       9        0.00000000
      10        0.00000000
      11       -0.00000000
      12       -0.00000000
      13        0.00000000

  *** Computed FV vector end ***

  *** Computed FV vector start 1 2
       1        0.00000000
       2       -0.00237294
       3       -0.00000000
       4       -0.00000000
       5       -0.00539421
       6        0.00000000
       7        0.00000000
       8       -0.00237294
       9        0.00000000
      10        0.00000000
      11       -0.00000000
      12       -0.00000000
      13        0.00000000

  *** Computed FV vector end ***

  *** Computed MQ vector start 1st-order density 1
       1        0.00000000
       2        0.04561503
       3       -0.00000000
       4       -0.00000000
       5        0.43751525
       6        0.00000000
       7        0.00000000
       8        0.04561503
       9        0.00000000
      10       -0.00000000
      11        0.00000000
      12        0.00000000
      13       -0.00000000

  *** Computed MQ vector end ***

  *** Computed MQ vector start 1st-order density 2
       1        0.00000000
       2       -0.02302812
       3       -0.00000000
       4       -0.00000000
       5       -0.19700982
       6        0.00000000
       7        0.00000000
       8       -0.02302812
       9        0.00000000
      10       -0.00000000
      11        0.00000000
      12        0.00000000
      13       -0.00000000

  *** Computed MQ vector end ***

  *** Computed FV vector start 1 1
       1        0.00000000
       2       -0.00023391
       3       -0.00000000
       4       -0.00000000
       5       -0.00094034
       6        0.00000000
       7        0.00000000
       8       -0.00023391
       9        0.00000000
      10        0.00000000
      11       -0.00000000
      12       -0.00000000
      13        0.00000000

  *** Computed FV vector end ***

  *** Computed FV vector start 1 2
       1       -0.00000000
       2       -0.00174543
       3        0.00000000
       4        0.00000000
       5       -0.00458458
       6       -0.00000000
       7       -0.00000000
       8       -0.00174543
       9       -0.00000000
      10       -0.00000000
      11        0.00000000
      12        0.00000000
      13        0.00000000

  *** Computed FV vector end ***

  *** Computed MQ vector start 1st-order density 1
       1        0.00000000
       2        0.00473614
       3       -0.00000000
       4       -0.00000000
       5       -0.04050773
       6        0.00000000
       7        0.00000000
       8        0.00473614
       9        0.00000000
      10       -0.00000000
      11        0.00000000
      12        0.00000000
      13       -0.00000000

  *** Computed MQ vector end ***

  *** Computed MQ vector start 1st-order density 2
       1       -0.00000000
       2       -0.00636187
       3        0.00000000
       4        0.00000000
       5       -0.17674557
       6       -0.00000000
       7       -0.00000000
       8       -0.00636187
       9       -0.00000000
      10        0.00000000
      11       -0.00000000
      12       -0.00000000
      13        0.00000000

  *** Computed MQ vector end ***

  *** Computed FV vector start 1 1
       1        0.00000000
       2        0.00096730
       3       -0.00000000
       4       -0.00000001
       5        0.00280973
       6       -0.00000000
       7        0.00000000
       8        0.00096730
       9        0.00000000
      10        0.00000001
      11        0.00000000
      12       -0.00000001
      13        0.00000000

  *** Computed FV vector end ***

  *** Computed FV vector start 1 2
       1       -0.00000000
       2        0.00186283
       3        0.00000000
       4        0.00000000
       5        0.00498388
       6        0.00000000
       7       -0.00000000
       8        0.00186283
       9       -0.00000000
      10       -0.00000000
      11       -0.00000000
      12        0.00000000
      13        0.00000000

  *** Computed FV vector end ***

  *** Computed MQ vector start 1st-order density 1
       1        0.00000001
       2       -0.00108638
       3       -0.00000012
       4       -0.00000012
       5        0.11183287
       6       -0.00000000
       7        0.00000001
       8       -0.00108638
       9        0.00000012
      10       -0.00000002
      11       -0.00000000
      12        0.00000002
      13        0.00000000

  *** Computed MQ vector end ***

  *** Computed MQ vector start 1st-order density 2
       1       -0.00000000
       2        0.00523095
       3        0.00000004
       4        0.00000004
       5        0.19332657
       6        0.00000000
       7       -0.00000000
       8        0.00523095
       9       -0.00000004
      10        0.00000001
      11        0.00000000
      12       -0.00000001
      13       -0.00000000

  *** Computed MQ vector end ***

  *** Computed FV vector start 1 1
       1       -0.00000000
       2        0.00140627
       3        0.00000000
       4        0.00000000
       5        0.00539062
       6        0.00000000
       7       -0.00000000
       8        0.00140627
       9       -0.00000000
      10       -0.00000000
      11       -0.00000000
      12        0.00000000
      13        0.00000000

  *** Computed FV vector end ***

  *** Computed FV vector start 1 2
       1       -0.00000000
       2       -0.00000047
       3        0.00000000
       4        0.00000000
       5       -0.00004377
       6       -0.00000000
       7       -0.00000000
       8       -0.00000047
       9       -0.00000000
      10       -0.00000001
      11        0.00000000
      12        0.00000001
      13        0.00000000

  *** Computed FV vector end ***

  *** Computed MQ vector start 1st-order density 1
       1       -0.00000001
       2       -0.02396955
       3        0.00000006
       4        0.00000002
       5        0.22997425
       6        0.00000000
       7       -0.00000001
       8       -0.02396955
       9       -0.00000006
      10        0.00000001
      11        0.00000000
      12       -0.00000001
      13       -0.00000000

  *** Computed MQ vector end ***

  *** Computed MQ vector start 1st-order density 2
       1        0.00000000
       2        0.00072735
       3        0.00000014
       4        0.00000011
       5       -0.00224246
       6       -0.00000000
       7        0.00000000
       8        0.00072735
       9       -0.00000014
      10        0.00000002
      11       -0.00000000
      12       -0.00000002
      13        0.00000000

  *** Computed MQ vector end ***

 *** THE REQUESTED    2 SOLUTION VECTORS CONVERGED

 Convergence of RSP solution vectors, threshold = 1.00D-03
 ---------------------------------------------------------------
 (dimension of paired reduced space:   16)
 RSP solution vector no.    1; norm of residual   4.08D-04
 RSP solution vector no.    2; norm of residual   4.17D-04

 *** RSPCTL MICROITERATIONS CONVERGED


 RSPLR -- linear response calculation for symmetry 1  ( A  )
 RSPLR -- operator label : ZDIPLEN 
 RSPLR -- operator spin  :   0
 RSPLR -- frequencies :   0.000000  0.030000
 FREQ 2    0.0000000000000000        2.9999999999999999E-002



 <<<  SOLVING SETS OF LINEAR EQUATIONS FOR LINEAR RESPONSE PROPERTIES >>>

 Operator symmetry = 1  ( A  ); triplet =   F


  *** Computed FV vector start 1 1
       1        0.01006903
       2       -0.00000000
       3       -0.00533930
       4       -0.00000000
       5       -0.00000000
       6       -0.03116200
       7       -0.01006903
       8        0.00000000
       9       -0.00533930
      10        0.03661446
      11        0.08055368
      12        0.03661446
      13        0.00000000

  *** Computed FV vector end ***

  *** Computed FV vector start 1 2
       1       -0.00492276
       2       -0.00000000
       3        0.00213278
       4       -0.00000000
       5       -0.00000000
       6        0.01635971
       7        0.00492276
       8        0.00000000
       9        0.00213278
      10       -0.01587774
      11       -0.03909347
      12       -0.01587774
      13        0.00000000

  *** Computed FV vector end ***

  *** Computed MQ vector start 1st-order density 1
       1        0.24189160
       2       -0.00000000
       3        0.27438864
       4        0.00000000
       5       -0.00000000
       6       -1.42511047
       7       -0.24189160
       8        0.00000000
       9        0.27438864
      10        0.03858645
      11       -0.07717290
      12        0.03858645
      13        0.05823383

  *** Computed MQ vector end ***

  *** Computed MQ vector start 1st-order density 2
       1       -0.11558185
       2       -0.00000000
       3       -0.17668257
       4       -0.00000000
       5       -0.00000000
       6        0.77115402
       7        0.11558185
       8        0.00000000
       9       -0.17668257
      10       -0.01977356
      11        0.03954711
      12       -0.01977356
      13       -0.02684571

  *** Computed MQ vector end ***

  *** Computed FV vector start 1 1
       1       -0.00013657
       2       -0.00000000
       3        0.00020678
       4       -0.00000000
       5       -0.00000000
       6       -0.00024915
       7        0.00013657
       8        0.00000000
       9        0.00020678
      10       -0.00090023
      11       -0.00063903
      12       -0.00090023
      13        0.00000000

  *** Computed FV vector end ***

  *** Computed FV vector start 1 2
       1       -0.00276773
       2       -0.00000000
       3        0.00101058
       4        0.00000000
       5        0.00000000
       6        0.00902650
       7        0.00276773
       8        0.00000000
       9        0.00101058
      10       -0.00781115
      11       -0.02090279
      12       -0.00781115
      13        0.00000000

  *** Computed FV vector end ***

  *** Computed MQ vector start 1st-order density 1
       1       -0.00460542
       2       -0.00000000
       3        0.01433823
       4       -0.00000000
       5       -0.00000000
       6       -0.01994887
       7        0.00460542
       8        0.00000000
       9        0.01433823
      10       -0.00007417
      11        0.00014833
      12       -0.00007417
      13       -0.00099657

  *** Computed MQ vector end ***

  *** Computed MQ vector start 1st-order density 2
       1       -0.06492343
       2       -0.00000000
       3       -0.10557532
       4        0.00000000
       5        0.00000000
       6        0.43118477
       7        0.06492343
       8        0.00000000
       9       -0.10557532
      10       -0.01113776
      11        0.02227552
      12       -0.01113776
      13       -0.01398666

  *** Computed MQ vector end ***

  *** Computed FV vector start 1 1
       1        0.00092375
       2        0.00000000
       3       -0.00004649
       4       -0.00000000
       5        0.00000000
       6       -0.00463208
       7       -0.00092375
       8       -0.00000000
       9       -0.00004649
      10        0.00184962
      11        0.00825423
      12        0.00184962
      13        0.00000000

  *** Computed FV vector end ***

  *** Computed FV vector start 1 2
       1        0.00245103
       2        0.00000000
       3       -0.00006167
       4        0.00000000
       5        0.00000000
       6       -0.01228437
       7       -0.00245103
       8       -0.00000000
       9       -0.00006167
      10        0.00457399
      11        0.02163184
      12        0.00457399
      13        0.00000000

  *** Computed FV vector end ***

  *** Computed MQ vector start 1st-order density 1
       1        0.01852363
       2        0.00000000
       3        0.07716026
       4        0.00000000
       5        0.00000000
       6       -0.23745810
       7       -0.01852363
       8       -0.00000000
       9        0.07716026
      10        0.00478385
      11       -0.00956770
      12        0.00478385
      13        0.00437820

  *** Computed MQ vector end ***

  *** Computed MQ vector start 1st-order density 2
       1        0.04905022
       2        0.00000000
       3        0.20763079
       4        0.00000000
       5        0.00000000
       6       -0.63185774
       7       -0.04905022
       8       -0.00000000
       9        0.20763079
      10        0.01272684
      11       -0.02545369
      12        0.01272684
      13        0.01129793

  *** Computed MQ vector end ***

  *** Computed FV vector start 1 1
       1        0.00258400
       2        0.00000000
       3       -0.00050609
       4       -0.00000000
       5       -0.00000000
       6       -0.01017550
       7       -0.00258400
       8       -0.00000000
       9       -0.00050609
      10        0.00581790
      11        0.02038330
      12        0.00581790
      13        0.00000000

  *** Computed FV vector end ***

  *** Computed FV vector start 1 2
       1        0.00054963
       2        0.00000000
       3        0.00009156
       4        0.00000000
       5        0.00000000
       6       -0.00293667
       7       -0.00054963
       8       -0.00000000
       9        0.00009156
      10        0.00043098
      11        0.00454879
      12        0.00043098
      13        0.00000000

  *** Computed FV vector end ***

  *** Computed MQ vector start 1st-order density 1
       1        0.05699299
       2        0.00000000
       3        0.14983590
       4       -0.00000000
       5       -0.00000000
       6       -0.50778263
       7       -0.05699299
       8       -0.00000000
       9        0.14983590
      10        0.01162615
      11       -0.02325230
      12        0.01162615
      13        0.01212158

  *** Computed MQ vector end ***

  *** Computed MQ vector start 1st-order density 2
       1        0.01054712
       2        0.00000000
       3        0.05481080
       4        0.00000000
       5        0.00000000
       6       -0.15469563
       7       -0.01054712
       8       -0.00000000
       9        0.05481080
      10        0.00300731
      11       -0.00601462
      12        0.00300731
      13        0.00200602

  *** Computed MQ vector end ***

  *** Computed FV vector start 1 1
       1        0.00155133
       2        0.00000000
       3       -0.00091507
       4       -0.00000000
       5       -0.00000000
       6       -0.00391365
       7       -0.00155133
       8       -0.00000000
       9       -0.00091507
      10        0.00573682
      11        0.01147561
      12        0.00573682
      13        0.00000000

  *** Computed FV vector end ***

  *** Computed FV vector start 1 2
       1        0.00083293
       2       -0.00000000
       3       -0.00057464
       4        0.00000000
       5        0.00000000
       6       -0.00198998
       7       -0.00083293
       8        0.00000000
       9       -0.00057464
      10        0.00339259
      11        0.00624518
      12        0.00339259
      13        0.00000000

  *** Computed FV vector end ***

  *** Computed MQ vector start 1st-order density 1
       1        0.03886130
       2        0.00000000
       3        0.02255763
       4       -0.00000000
       5       -0.00000000
       6       -0.17059574
       7       -0.03886130
       8       -0.00000000
       9        0.02255763
      10        0.00540475
      11       -0.01080951
      12        0.00540475
      13        0.00883092

  *** Computed MQ vector end ***

  *** Computed MQ vector start 1st-order density 2
       1        0.02121850
       2       -0.00000000
       3        0.00614644
       4        0.00000000
       5        0.00000000
       6       -0.08299290
       7       -0.02121850
       8        0.00000000
       9        0.00614644
      10        0.00278206
      11       -0.00556413
      12        0.00278206
      13        0.00500133

  *** Computed MQ vector end ***

 *** THE REQUESTED    2 SOLUTION VECTORS CONVERGED

 Convergence of RSP solution vectors, threshold = 1.00D-03
 ---------------------------------------------------------------
 (dimension of paired reduced space:   20)
 RSP solution vector no.    1; norm of residual   1.35D-04
 RSP solution vector no.    2; norm of residual   1.36D-04

 *** RSPCTL MICROITERATIONS CONVERGED


           Final output of second order properties from linear response
           ------------------------------------------------------------


@ Spin symmetry of operators: singlet

 Note that minus the linear response function: - << A; B >>(omega) is printed.
 The results are of quadratic accuracy using Sellers formula.

@ FREQUENCY INDEPENDENT SECOND ORDER PROPERTIES

@ -<< XDIPLEN  ; XDIPLEN  >> =  1.468184471280D+00
@ -<< XDIPLEN  ; YDIPLEN  >> = -1.779983665129D-10
@ -<< XDIPLEN  ; ZDIPLEN  >> = -1.564268267865D-16
@ -<< YDIPLEN  ; YDIPLEN  >> =  1.468715941930D+00
@ -<< YDIPLEN  ; ZDIPLEN  >> = -2.744394339997D-15
@ -<< ZDIPLEN  ; ZDIPLEN  >> =  6.155919665828D+00

@ FREQUENCY DEPENDENT SECOND ORDER PROPERTIES WITH FREQUENCY :

@    a.u.:  3.0000000D-02
@    cm-1:  6.5842389D+03
@    eV  :  8.1634153D-01
@  kJ/mol:  7.8764988D+01
@    nm  :  1.5187784D+03

@ -<< XDIPLEN  ; XDIPLEN  >> =  1.469996454776D+00
@ -<< XDIPLEN  ; YDIPLEN  >> = -1.785962408386D-10
@ -<< XDIPLEN  ; ZDIPLEN  >> = -1.575823952212D-16
@ -<< YDIPLEN  ; YDIPLEN  >> =  1.470531432792D+00
@ -<< YDIPLEN  ; ZDIPLEN  >> = -2.764913210619D-15
@ -<< ZDIPLEN  ; ZDIPLEN  >> =  6.171372954058D+00


 Time used in linear response calculation is      0.47 CPU seconds for symmetry 1

 >>>> Total CPU  time used in RESPONSE:   0.47 seconds
 >>>> Total wall time used in RESPONSE:   0.47 seconds


                   .-------------------------------------------.
                   | End of Dynamic Property Section (RESPONS) |
                   `-------------------------------------------'

 >>>> Total CPU  time used in DALTON:   0.87 seconds
 >>>> Total wall time used in DALTON:   0.87 seconds

 
     Date and time (Linux)  : Tue Feb 24 16:28:09 2015
     Host name              : donkey                                  
