

     ************************************************************************
     *************** Dalton - An Electronic Structure Program ***************
     ************************************************************************

    This is output from DALTON (Release Dalton2013 patch 0)
   ----------------------------------------------------------------------------
    NOTE:
     
    Dalton is an experimental code for the evaluation of molecular
    properties using (MC)SCF, DFT, CI, and CC wave functions.
    The authors accept no responsibility for the performance of
    the code or for the correctness of the results.
     
    The code (in whole or part) is provided under a licence and
    is not to be reproduced for further distribution without
    the written permission of the authors or their representatives.
     
    See the home page "http://daltonprogram.org" for further information.
     
    If results obtained with this code are published,
    the appropriate citations would be both of:
     
       K. Aidas, C. Angeli, K. L. Bak, V. Bakken, R. Bast,
       L. Boman, O. Christiansen, R. Cimiraglia, S. Coriani,
       P. Dahle, E. K. Dalskov, U. Ekstroem, T. Enevoldsen,
       J. J. Eriksen, P. Ettenhuber, B. Fernandez, L. Ferrighi,
       H. Fliegl, L. Frediani, K. Hald, A. Halkier, C. Haettig,
       H. Heiberg, T. Helgaker, A. C. Hennum, H. Hettema,
       E. Hjertenaes, S. Hoest, I.-M. Hoeyvik, M. F. Iozzi,
       B. Jansik, H. J. Aa. Jensen, D. Jonsson, P. Joergensen,
       J. Kauczor, S. Kirpekar, T. Kjaergaard, W. Klopper,
       S. Knecht, R. Kobayashi, H. Koch, J. Kongsted, A. Krapp,
       K. Kristensen, A. Ligabue, O. B. Lutnaes, J. I. Melo,
       K. V. Mikkelsen, R. H. Myhre, C. Neiss, C. B. Nielsen,
       P. Norman, J. Olsen, J. M. H. Olsen, A. Osted,
       M. J. Packer, F. Pawlowski, T. B. Pedersen, P. F. Provasi,
       S. Reine, Z. Rinkevicius, T. A. Ruden, K. Ruud, V. Rybkin,
       P. Salek, C. C. M. Samson, A. Sanchez de Meras, T. Saue,
       S. P. A. Sauer, B. Schimmelpfennig, K. Sneskov,
       A. H. Steindal, K. O. Sylvester-Hvid, P. R. Taylor,
       A. M. Teale, E. I. Tellgren, D. P. Tew, A. J. Thorvaldsen,
       L. Thoegersen, O. Vahtras, M. A. Watson, D. J. D. Wilson,
       M. Ziolkowski and H. Agren.
       The Dalton quantum chemistry program system.
       WIREs Comput. Mol. Sci. 2013. doi: 10.1002/wcms.1172
    
    and
    
       Dalton, a Molecular Electronic Structure Program,
       Release DALTON2013.0 (2013), see http://daltonprogram.org
   ----------------------------------------------------------------------------

    Authors in alphabetical order (major contribution(s) in parenthesis):

  Kestutis Aidas,           Vilnius University,           Lithuania   (QM/MM)
  Celestino Angeli,         University of Ferrara,        Italy       (NEVPT2)
  Keld L. Bak,              UNI-C,                        Denmark     (AOSOPPA, non-adiabatic coupling, magnetic properties)
  Vebjoern Bakken,          University of Oslo,           Norway      (DALTON; geometry optimizer, symmetry detection)
  Radovan Bast,             KTH Stockholm                 Sweden      (DALTON installation and execution frameworks)
  Linus Boman,              NTNU,                         Norway      (Cholesky decomposition and subsystems)
  Ove Christiansen,         Aarhus University,            Denmark     (CC module)
  Renzo Cimiraglia,         University of Ferrara,        Italy       (NEVPT2)
  Sonia Coriani,            University of Trieste,        Italy       (CC module, MCD in RESPONS)
  Paal Dahle,               University of Oslo,           Norway      (Parallelization)
  Erik K. Dalskov,          UNI-C,                        Denmark     (SOPPA)
  Thomas Enevoldsen,        Univ. of Southern Denmark,    Denmark     (SOPPA)
  Janus J. Eriksen,         Aarhus University,            Denmark     (PE-MP2/SOPPA, TDA)
  Berta Fernandez,          U. of Santiago de Compostela, Spain       (doublet spin, ESR in RESPONS)
  Lara Ferrighi,            Aarhus University,            Denmark     (PCM Cubic response)
  Heike Fliegl,             University of Oslo,           Norway      (CCSD(R12))
  Luca Frediani,            UiT The Arctic U. of Norway,  Norway      (PCM)
  Bin Gao,                  UiT The Arctic U. of Norway,  Norway      (Gen1Int library)
  Christof Haettig,         Ruhr-University Bochum,       Germany     (CC module)
  Kasper Hald,              Aarhus University,            Denmark     (CC module)
  Asger Halkier,            Aarhus University,            Denmark     (CC module)
  Hanne Heiberg,            University of Oslo,           Norway      (geometry analysis, selected one-electron integrals)
  Trygve Helgaker,          University of Oslo,           Norway      (DALTON; ABACUS, ERI, DFT modules, London, and much more)
  Alf Christian Hennum,     University of Oslo,           Norway      (Parity violation)
  Hinne Hettema,            University of Auckland,       New Zealand (quadratic response in RESPONS; SIRIUS supersymmetry)
  Eirik Hjertenaes,         NTNU,                         Norway      (Cholesky decomposition)
  Maria Francesca Iozzi,    University of Oslo,           Norway      (RPA)
  Brano Jansik              Technical Univ. of Ostrava    Czech Rep.  (DFT cubic response)
  Hans Joergen Aa. Jensen,  Univ. of Southern Denmark,    Denmark     (DALTON; SIRIUS, RESPONS, ABACUS modules, London, and much more)
  Dan Jonsson,              UiT The Arctic U. of Norway,  Norway      (cubic response in RESPONS module)
  Poul Joergensen,          Aarhus University,            Denmark     (RESPONS, ABACUS, and CC modules)
  Joanna Kauczor,           Linkoeping University,        Sweden      (Complex polarization propagator (CPP) module)
  Sheela Kirpekar,          Univ. of Southern Denmark,    Denmark     (Mass-velocity & Darwin integrals)
  Wim Klopper,              KIT Karlsruhe,                Germany     (R12 code in CC, SIRIUS, and ABACUS modules)
  Stefan Knecht,            ETH Zurich,                   Switzerland (Parallel CI and MCSCF)
  Rika Kobayashi,           Australian National Univ.,    Australia   (DIIS in CC, London in MCSCF)
  Henrik Koch,              NTNU,                         Norway      (CC module, Cholesky decomposition)
  Jacob Kongsted,           Univ. of Southern Denmark,    Denmark     (Polarizable embedding, QM/MM)
  Andrea Ligabue,           University of Modena,         Italy       (CTOCD, AOSOPPA)
  Ola B. Lutnaes,           University of Oslo,           Norway      (DFT Hessian)
  Juan I. Melo,             University of Buenos Aires,   Argentina   (LRESC, Relativistic Effects on NMR Shieldings)
  Kurt V. Mikkelsen,        University of Copenhagen,     Denmark     (MC-SCRF and QM/MM)
  Rolf H. Myhre,            NTNU,                         Norway      (Cholesky, subsystems and ECC2)
  Christian Neiss,          Univ. Erlangen-Nuernberg,     Germany     (CCSD(R12))
  Christian B. Nielsen,     University of Copenhagen,     Denmark     (QM/MM)
  Patrick Norman,           Linkoeping University,        Sweden      (Cubic response and complex response in RESPONS)
  Jeppe Olsen,              Aarhus University,            Denmark     (SIRIUS CI/density modules)
  Jogvan Magnus H. Olsen,   Univ. of Southern Denmark,    Denmark     (Polarizable embedding, PE library, QM/MM)
  Anders Osted,             Copenhagen University,        Denmark     (QM/MM)
  Martin J. Packer,         University of Sheffield,      UK          (SOPPA)
  Filip Pawlowski,          Kazimierz Wielki University   Poland      (CC3)
  Thomas B. Pedersen,       University of Oslo,           Norway      (Cholesky decomposition)
  Patricio F. Provasi,      University of Northeastern,   Argentina   (Analysis of coupling constants in localized orbitals)
  Zilvinas Rinkevicius,     KTH Stockholm,                Sweden      (open-shell DFT, ESR)
  Elias Rudberg,            KTH Stockholm,                Sweden      (DFT grid and basis info)
  Torgeir A. Ruden,         University of Oslo,           Norway      (Numerical derivatives in ABACUS)
  Kenneth Ruud,             UiT The Arctic U. of Norway,  Norway      (DALTON; ABACUS magnetic properties and  much more)
  Pawel Salek,              KTH Stockholm,                Sweden      (DALTON; DFT code)
  Claire C. M. Samson       University of Karlsruhe       Germany     (Boys localization, r12 integrals in ERI)
  Alfredo Sanchez de Meras, University of Valencia,       Spain       (CC module, Cholesky decomposition)
  Trond Saue,               Paul Sabatier University,     France      (direct Fock matrix construction)
  Stephan P. A. Sauer,      University of Copenhagen,     Denmark     (SOPPA(CCSD), SOPPA prop., AOSOPPA, vibrational g-factors)
  Bernd Schimmelpfennig,    Forschungszentrum Karlsruhe,  Germany     (AMFI module)
  Kristian Sneskov,         Aarhus University,            Denmark     (QM/MM, PE-CC)
  Arnfinn H. Steindal,      UiT The Arctic U. of Norway,  Norway      (parallel QM/MM)
  K. O. Sylvester-Hvid,     University of Copenhagen,     Denmark     (MC-SCRF)
  Peter R. Taylor,          VLSCI/Univ. of Melbourne,     Australia   (Symmetry handling ABACUS, integral transformation)
  Andrew M. Teale,          University of Nottingham,     England     (DFT-AC, DFT-D)
  David P. Tew,             University of Bristol,        England     (CCSD(R12))
  Olav Vahtras,             KTH Stockholm,                Sweden      (triplet response, spin-orbit, ESR, TDDFT, open-shell DFT)
  David J. Wilson,          La Trobe University,          Australia   (DFT Hessian and DFT magnetizabilities)
  Hans Agren,               KTH Stockholm,                Sweden      (SIRIUS module, RESPONS, MC-SCRF solvation model)
 --------------------------------------------------------------------------------

     Date and time (Linux)  : Sun Sep  8 20:39:13 2013
     Host name              : lpqlx131.ups-tlse.fr                    

 * Work memory size             :    64000000 =  488.28 megabytes.

 * Directories for basis set searches:
   1) /home/bast/DALTON-2013.0-Source/build/test_rsp_soppa1excinosymm
   2) /home/bast/DALTON-2013.0-Source/build/basis


Compilation information
-----------------------

 Who compiled             | bast
 Host                     | lpqlx131.ups-tlse.fr
 System                   | Linux-3.8.5-201.fc18.x86_64
 CMake generator          | Unix Makefiles
 Processor                | x86_64
 64-bit integers          | OFF
 MPI                      | OFF
 Fortran compiler         | /usr/bin/gfortran
 Fortran compiler version | GNU Fortran (GCC) 4.7.2 20121109 (Red Hat 4.7.2-8)
 C compiler               | /usr/bin/gcc
 C compiler version       | gcc (GCC) 4.7.2 20121109 (Red Hat 4.7.2-8)
 C++ compiler             | /usr/bin/g++
 C++ compiler version     | g++ (GCC) 4.7.2 20121109 (Red Hat 4.7.2-8)
 Static linking           | OFF
 Last Git revision        | f34203295a86316e27f9e7b44f9b6769c4a046c0
 Configuration time       | 2013-09-08 20:31:27.952056


   Content of the .dal input file
 ----------------------------------

**DALTON INPUT                                    
.RUN RESPONSE                                     
**WAVE FUNCTION                                   
.HF                                               
.MP2                                              
**RESPONSE                                        
.SOPPA                                            
*LINEAR                                           
.SINGLE                                           
.DIPLEN                                           
.ROOTS                                            
 4                                                
**END OF DALTON INPUT                             


   Content of the .mol file
 ----------------------------

BASIS                                                                          
cc-pVDZ                                                                        
SOPPA calculation of singlet excitation energies. No symmetry                  
                                                                               
    2    0                                                                     
        8.    1                                                                
O     0.0 -0.2249058930 0.0                                                    
        1.    2                                                                
H     1.45235 0.899623 0.0                                                     
H    -1.45235 0.899623 0.0                                                     


       *******************************************************************
       *********** Output from DALTON general input processing ***********
       *******************************************************************

 --------------------------------------------------------------------------------
   Overall default print level:    0
   Print level for DALTON.STAT:    1

    HERMIT 1- and 2-electron integral sections will be executed
    "Old" integral transformation used (limited to max 255 basis functions)
    Wave function sections will be executed (SIRIUS module)
    Dynamic molecular response properties section will be executed (RESPONSE module)
 --------------------------------------------------------------------------------


   ****************************************************************************
   *************** Output of molecule and basis set information ***************
   ****************************************************************************


    The two title cards from your ".mol" input:
    ------------------------------------------------------------------------
 1: SOPPA calculation of singlet excitation energies. No symmetry           
 2:                                                                         
    ------------------------------------------------------------------------

  Atomic type no.    1
  --------------------
  Nuclear charge:   8.00000
  Number of symmetry independent centers:    1
  Number of basis sets to read;    2
  Basis set file used for this atomic type with Z =   8 :
     "/home/bast/DALTON-2013.0-Source/build/basis/cc-pVDZ"

  Atomic type no.    2
  --------------------
  Nuclear charge:   1.00000
  Number of symmetry independent centers:    2
  Number of basis sets to read;    2
  Basis set file used for this atomic type with Z =   1 :
     "/home/bast/DALTON-2013.0-Source/build/basis/cc-pVDZ"


                         SYMGRP: Point group information
                         -------------------------------

Point group: C1 


                                 Isotopic Masses
                                 ---------------

                           O          15.994915
                           H           1.007825
                           H           1.007825

                       Total mass:    18.010565 amu
                       Natural abundance:  99.730 %

 Center-of-mass coordinates (a.u.):    0.000000   -0.099054    0.000000


  Atoms and basis sets
  --------------------

  Number of atom types :    2
  Total number of atoms:    3

  Basis set used is "cc-pVDZ" from the basis set library.

  label    atoms   charge   prim   cont     basis
  ----------------------------------------------------------------------
  O           1    8.0000    26    14      [9s4p1d|3s2p1d]                                    
  H           2    1.0000     7     5      [4s1p|2s1p]                                        
  ----------------------------------------------------------------------
  total:      3   10.0000    40    24
  ----------------------------------------------------------------------
  Spherical harmonic basis used.

  Threshold for neglecting AO integrals:  1.00D-12


  Cartesian Coordinates (a.u.)
  ----------------------------

  Total number of coordinates:    9
  O       :     1  x   0.0000000000    2  y  -0.2249058930    3  z   0.0000000000
  H       :     4  x   1.4523500000    5  y   0.8996230000    6  z   0.0000000000
  H       :     7  x  -1.4523500000    8  y   0.8996230000    9  z   0.0000000000


   Interatomic separations (in Angstrom):
   --------------------------------------

            O           H           H     
            ------      ------      ------
 O     :    0.000000
 H     :    0.972000    0.000000
 H     :    0.972000    1.537101    0.000000


  Max    interatomic separation is    1.5371 Angstrom (    2.9047 Bohr)
  between atoms    3 and    2, "H     " and "H     ".

  Min HX interatomic separation is    0.9720 Angstrom (    1.8368 Bohr)


  Bond distances (Angstrom):
  --------------------------

                  atom 1     atom 2       distance
                  ------     ------       --------
  bond distance:  H          O            0.972000
  bond distance:  H          O            0.972000


  Bond angles (degrees):
  ----------------------

                  atom 1     atom 2     atom 3         angle
                  ------     ------     ------         -----
  bond angle:     H          O          H            104.500




 Principal moments of inertia (u*A**2) and principal axes
 --------------------------------------------------------

   IA       0.633889          1.000000    0.000000    0.000000
   IB       1.190584          0.000000    1.000000    0.000000
   IC       1.824473          0.000000    0.000000    1.000000


 Rotational constants
 --------------------

 The molecule is planar.

               A                   B                   C

         797267.3370         424479.9976         277000.0210 MHz
           26.593976           14.159129            9.239726 cm-1


@  Nuclear repulsion energy :    9.055004525638 Hartree


                     .---------------------------------------.
                     | Starting in Integral Section (HERMIT) |
                     `---------------------------------------'



    *************************************************************************
    ****************** Output from HERMIT input processing ******************
    *************************************************************************



     ************************************************************************
     ************************** Output from HERINT **************************
     ************************************************************************


 Threshold for neglecting two-electron integrals:  1.00D-12
 Number of two-electron integrals written:       21669 ( 48.0% )
 Megabytes written:                              0.254

 >>>> Total CPU  time used in HERMIT:   0.03 seconds
 >>>> Total wall time used in HERMIT:   0.03 seconds


                        .----------------------------------.
                        | End of Integral Section (HERMIT) |
                        `----------------------------------'



                   .--------------------------------------------.
                   | Starting in Wave Function Section (SIRIUS) |
                   `--------------------------------------------'


 *** Output from Huckel module :

     Using EWMO model:          T
     Using EHT  model:          F
     Number of Huckel orbitals each symmetry:    7

 EWMO - Energy Weighted Maximum Overlap - is a Huckel type method,
        which normally is better than Extended Huckel Theory.
 Reference: Linderberg and Ohrn, Propagators in Quantum Chemistry (Wiley, 1973)

 Huckel EWMO eigenvalues for symmetry :  1
          -20.684736      -1.601749      -0.777914      -0.689171      -0.616200
           -0.237251      -0.172878

 **********************************************************************
 *SIRIUS* a direct, restricted step, second order MCSCF program       *
 **********************************************************************

 
     Date and time (Linux)  : Sun Sep  8 20:39:13 2013
     Host name              : lpqlx131.ups-tlse.fr                    

 Title lines from ".mol" input file:
     SOPPA calculation of singlet excitation energies. No symmetry           
                                                                             

 Print level on unit LUPRI =   2 is   0
 Print level on unit LUW4  =   2 is   5

@    MP2, closed-shell Moeller-Plesset second-order calculation.

@    This is a combination run starting with
@              a restricted, closed shell Hartree-Fock calculation


 Initial molecular orbitals are obtained according to
 ".MOSTART EWMO  " input option

     Wave function specification
     ============================
@    For the wave function of type :      >>> MP2 <<<
@    Number of closed shell electrons          10
@    Number of electrons in active shells       0
@    Total charge of the molecule               0

@    Spin multiplicity and 2 M_S                1         0
     Total number of symmetries                 1
@    Reference state symmetry                   1

     Orbital specifications
     ======================
     Abelian symmetry species          All |    1
                                       --- |  ---
@    Occupied SCF orbitals               5 |    5
     Secondary orbitals                 19 |   19
     Total number of orbitals           24 |   24
     Number of basis functions          24 |   24

     Optimization information
     ========================
@    Number of configurations                 1
@    Number of orbital rotations             95
     ------------------------------------------
@    Total number of variables               96

     Maximum number of Fock   iterations      0
     Maximum number of DIIS   iterations     60
     Maximum number of QC-SCF iterations     60
     Threshold for SCF convergence     1.00D-06


 >>>>> DIIS optimization of Hartree-Fock <<<<<

 C1-DIIS algorithm; max error vectors =   10

 Iter      Total energy        Error norm    Delta(E)  DIIS dim.
 -----------------------------------------------------------------------------
     (Precalculated two-electron integrals are transformed to P-supermatrix elements.
      Threshold for discarding integrals :  1.00D-12 )
@  1    -75.8558054129        1.60794D+00   -7.59D+01    1
      Virial theorem: -V/T =      2.000312
@      MULPOP O      -0.55; H       0.28; H       0.28; 
 -----------------------------------------------------------------------------
@  2    -76.0198639633        3.12287D-01   -1.64D-01    2
      Virial theorem: -V/T =      2.002416
@      MULPOP O      -0.28; H       0.14; H       0.14; 
 -----------------------------------------------------------------------------
@  3    -76.0251506648        7.25194D-02   -5.29D-03    3
      Virial theorem: -V/T =      2.000758
@      MULPOP O      -0.31; H       0.16; H       0.16; 
 -----------------------------------------------------------------------------
@  4    -76.0256406432        2.50537D-02   -4.90D-04    4
      Virial theorem: -V/T =      2.001614
@      MULPOP O      -0.32; H       0.16; H       0.16; 
 -----------------------------------------------------------------------------
@  5    -76.0256763237        6.18368D-03   -3.57D-05    5
      Virial theorem: -V/T =      2.001128
@      MULPOP O      -0.32; H       0.16; H       0.16; 
 -----------------------------------------------------------------------------
@  6    -76.0256811281        1.40431D-03   -4.80D-06    6
      Virial theorem: -V/T =      2.001201
@      MULPOP O      -0.32; H       0.16; H       0.16; 
 -----------------------------------------------------------------------------
@  7    -76.0256814782        1.85175D-04   -3.50D-07    7
      Virial theorem: -V/T =      2.001217
@      MULPOP O      -0.32; H       0.16; H       0.16; 
 -----------------------------------------------------------------------------
@  8    -76.0256814838        2.87151D-05   -5.64D-09    8
      Virial theorem: -V/T =      2.001217
@      MULPOP O      -0.32; H       0.16; H       0.16; 
 -----------------------------------------------------------------------------
@  9    -76.0256814839        5.54466D-06   -1.03D-10    9
      Virial theorem: -V/T =      2.001217
@      MULPOP O      -0.32; H       0.16; H       0.16; 
 -----------------------------------------------------------------------------
@ 10    -76.0256814839        3.02762D-07   -3.47D-12   10

@ *** DIIS converged in  10 iterations !
@     Converged SCF energy, gradient:    -76.025681483944    3.03D-07
    - total time used in SIRFCK :              0.00 seconds

 >>> Writing SIRIFC interface file <<<

 >>>> CPU and wall time for SCF :       0.010       0.010


 >>>>> Output from SIRIUS MP2 module <<<<<

 Reference: H.J.Aa.Jensen, P.Jorgensen, H.Agren, and J.Olsen,
            J. Chem. Phys. 88, 3834 (1988); 89, 5354 (1988)

 Checking that the closed shell orbitals are canonical Hartree-Fock orbitals

    Number of electrons  :   10
    Closed shell orbitals:    5

 Generating Fock matrix

 Hartree-Fock electronic energy:         -85.080686009582
 Hartree-Fock total      energy:         -76.025681483944

 Hartree-Fock orbital energies, symmetry 1, number of occupied SCF orbitals is    5

       -20.55301993    -1.32934102    -0.69144630    -0.56387093    -0.49212359
         0.18304192     0.25403523     0.77887081     0.84069367     1.16451081
         1.20008018     1.25426152     1.44696811     1.47255805     1.67196077
         1.87052767     1.91890925     2.41834249     2.45391739     3.27277146
         3.32446050     3.49100503     3.85003079     4.13079460

    E(LUMO) :     0.18304192   (in symmetry 1)
  - E(HOMO) :    -0.49212359   (in symmetry 1)
  --------------------------
    gap     :     0.67516550

 Integral transformation: Total CPU and WALL times (sec)       0.009       0.008

 MP2 move   0.101828 electrons to unoccupied HF orbitals


@   Hartree-Fock total energy   :           -76.0256814839
@   + MP2 contribution          :            -0.2049853470
@   = MP2 second order energy   :           -76.2306668309

 Natural orbital occupation numbers, symmetry 1
 Sum =    10.00000000; RHF =    10.00000000; Difference =     0.00000000

         1.99990776     1.98688812     1.97395691     1.96991989     1.96784854
         0.02381946     0.02159538     0.01750314     0.01037917     0.00548121
         0.00514075     0.00467520     0.00408130     0.00397740     0.00094720
         0.00089853     0.00061968     0.00053531     0.00047702     0.00045840
         0.00041081     0.00039136     0.00004517     0.00004229

 Time used for MP2 natural orbitals :       0.011 CPU seconds,       0.011 wall seconds.

 >>>> CPU and wall time for MP2 :       0.011       0.011


                       .-----------------------------------.
                       | >>> Final results from SIRIUS <<< |
                       `-----------------------------------'


@    Spin multiplicity:           1
@    Spatial symmetry:            1
@    Total charge of molecule:    0

@    Final HF energy:             -76.025681483944                 
@    Nuclear repulsion:             9.055004525638
@    Electronic energy:           -85.080686009582

@    Final gradient norm:           0.000000302762

 
     Date and time (Linux)  : Sun Sep  8 20:39:13 2013
     Host name              : lpqlx131.ups-tlse.fr                    

 (Only coefficients >0.0100 are printed.)

 Molecular orbitals for symmetry species  1
 ------------------------------------------

    Orbital         1        2        3        4        5        6        7
   1 O   :1s    -1.0004   0.0076   0.0000  -0.0022  -0.0000  -0.0519   0.0000
   2 O   :1s    -0.0021  -0.8737   0.0000   0.2932   0.0000   0.1433   0.0000
   3 O   :1s     0.0014   0.1145  -0.0000   0.1768  -0.0000   0.9058  -0.0000
   4 O   :2px   -0.0000   0.0000  -0.7111  -0.0000   0.0000  -0.0000  -0.4190
   5 O   :2py   -0.0025  -0.1108   0.0000  -0.7927   0.0000   0.2855   0.0000
   6 O   :2pz    0.0000  -0.0000  -0.0000   0.0000  -0.9204  -0.0000  -0.0000
   7 O   :2px    0.0000  -0.0000   0.1012  -0.0000  -0.0000  -0.0000  -0.4775
   8 O   :2py    0.0017   0.0619  -0.0000  -0.0018  -0.0000   0.2117   0.0000
   9 O   :2pz   -0.0000  -0.0000  -0.0000   0.0000  -0.0724  -0.0000  -0.0000
  10 O   :3d2-  -0.0000  -0.0000  -0.0262  -0.0000  -0.0000  -0.0000  -0.0201
  11 O   :3d1-  -0.0000  -0.0000  -0.0000   0.0000  -0.0180   0.0000  -0.0000
  12 O   :3d0    0.0001   0.0031   0.0000   0.0128   0.0000  -0.0117  -0.0000
  14 O   :3d2+  -0.0000  -0.0004  -0.0000   0.0130   0.0000  -0.0019   0.0000
  15 H   :1s     0.0003  -0.3191  -0.5530  -0.3516   0.0000  -0.1058   0.0501
  16 H   :1s    -0.0006   0.1494   0.1845   0.1327   0.0000  -0.7699   1.3912
  17 H   :2px   -0.0005   0.0364   0.0234   0.0317  -0.0000   0.0162  -0.0198
  18 H   :2py   -0.0005   0.0201   0.0324  -0.0070  -0.0000   0.0156  -0.0157
  19 H   :2pz   -0.0000   0.0000   0.0000  -0.0000  -0.0305   0.0000   0.0000
  20 H   :1s     0.0003  -0.3191   0.5530  -0.3516   0.0000  -0.1058  -0.0501
  21 H   :1s    -0.0006   0.1494  -0.1845   0.1327  -0.0000  -0.7699  -1.3912
  22 H   :2px    0.0005  -0.0364   0.0234  -0.0317  -0.0000  -0.0162  -0.0198
  23 H   :2py   -0.0005   0.0201  -0.0324  -0.0070   0.0000   0.0156   0.0157
  24 H   :2pz   -0.0000   0.0000   0.0000  -0.0000  -0.0305   0.0000   0.0000



 >>>> Total CPU  time used in SIRIUS :      0.03 seconds
 >>>> Total wall time used in SIRIUS :      0.02 seconds

 
     Date and time (Linux)  : Sun Sep  8 20:39:13 2013
     Host name              : lpqlx131.ups-tlse.fr                    


                     .---------------------------------------.
                     | End of Wave Function Section (SIRIUS) |
                     `---------------------------------------'



                 .------------------------------------------------.
                 | Starting in Dynamic Property Section (RESPONS) |
                 `------------------------------------------------'


 ------------------------------------------------------------------------------
  RESPONSE  -  an MCSCF, MC-srDFT, DFT, and SOPPA response property program
 ------------------------------------------------------------------------------


 <<<<<<<<<< OUTPUT FROM RESPONSE INPUT PROCESSING >>>>>>>>>>




 CHANGES OF DEFAULTS FOR RSPINP:
 -------------------------------


 Second Order Polarization Propagator Approximation -- SOPPA

 Default : Using Fock type decoupling of the two-electron density matrix :
    Add DV*(FC+FV) instead of DV*FC to E[2] approximate orbital diagonal



  Linear Response single residue calculation
 -------------------------------------------

 Print level                                    : IPRPP  =   2
 Maximum number of iterations for eigenval.eqs. : MAXITP =  60
 Threshold for convergence of eigenvalue eqs.   : THCPP  = 1.000D-03
 Maximum iterations in optimal orbital algorithm: MAXITO =   5

      4 Excitation energies are calculated for symmetry no.    1

      3 property residues are calculated with labels:

               XDIPLEN 
               YDIPLEN 
               ZDIPLEN 

 Old direct access AO file found, SORTA skipped.

 Integral transformation: Total CPU and WALL times (sec)       0.017       0.017


   SCF energy         :      -76.025681483943671
 -- inactive part     :      -85.080686009581569
 -- nuclear repulsion :        9.055004525637894


                     ***************************************
                     *** RHF response calculation (TDHF) ***
                     ***************************************



 >>>>>>>>>> Linear response calculation
 >>>>>>>>>> Symmetry of excitation/property operator(s)    1

 Number of excitations of this symmetry            4
 Number of response properties of this symmetry    0
 Number of C6/C8 properties of this symmetry       0


 Perturbation symmetry.     KSYMOP:       1
 p-h variables.             KZWOPT:      95
 2p-2h variables.           KZCONF:    4560
 Total number of variables. KZVAR :    4655



 <<< EXCITATION ENERGIES AND TRANSITION MOMENT CALCULATION (MCTDHF) >>>

 Operator symmetry =  1; triplet =   F


 *** THE REQUESTED    4 SOLUTION VECTORS CONVERGED

 Convergence of RSP solution vectors, threshold = 1.00D-03
 ---------------------------------------------------------------
 (dimension of paired reduced space:   86)
 RSP solution vector no.    1; norm of residual   8.59D-04
 RSP solution vector no.    2; norm of residual   1.52D-04
 RSP solution vector no.    3; norm of residual   6.27D-04
 RSP solution vector no.    4; norm of residual   9.95D-04

 *** RSPCTL MICROITERATIONS CONVERGED

@ Transition operator type:    XDIPLEN 
@ STATE NO:    1 *TRANSITION MOMENT:  2.31512275E-16 *ENERGY(eV):   7.7544505    
@ STATE NO:    2 *TRANSITION MOMENT:  2.13308137E-17 *ENERGY(eV):   9.7778451    
@ STATE NO:    3 *TRANSITION MOMENT: -3.48586415E-14 *ENERGY(eV):   10.395349    
@ STATE NO:    4 *TRANSITION MOMENT: -0.50061697     *ENERGY(eV):   12.465205    

@ Transition operator type:    YDIPLEN 
@ STATE NO:    1 *TRANSITION MOMENT:  1.42288361E-17 *ENERGY(eV):   7.7544505    
@ STATE NO:    2 *TRANSITION MOMENT:  1.37640833E-16 *ENERGY(eV):   9.7778451    
@ STATE NO:    3 *TRANSITION MOMENT: -0.61159299     *ENERGY(eV):   10.395349    
@ STATE NO:    4 *TRANSITION MOMENT: -6.67105987E-15 *ENERGY(eV):   12.465205    

@ Transition operator type:    ZDIPLEN 
@ STATE NO:    1 *TRANSITION MOMENT: -0.36245983     *ENERGY(eV):   7.7544505    
@ STATE NO:    2 *TRANSITION MOMENT: -1.76338221E-14 *ENERGY(eV):   9.7778451    
@ STATE NO:    3 *TRANSITION MOMENT:  7.00834786E-18 *ENERGY(eV):   10.395349    
@ STATE NO:    4 *TRANSITION MOMENT: -2.54203795E-17 *ENERGY(eV):   12.465205    


  ******************************************************************************
  *** @ Excit. operator sym 1 & ref. state sym 1 => excited state symmetry 1 ***
  ******************************************************************************



 @ Excited state no:    1 in symmetry  1
 ---------------------------------------

@ Excitation energy :  0.28497082    au
@                      7.7544505     eV
@                      62543.866     cm-1
                       748.19078     kJ / mol

@ Total energy :      -75.740711     au

@ SOPPA  p-h  weight in excitation operator:   95.26 %
@ SOPPA 2p-2h weight in excitation operator:    4.74 %

@ Operator type:    XDIPLEN 
@ Oscillator strength (LENGTH)   :  1.01825648E-32  (Transition moment :  2.31512275E-16 )

@ Operator type:    YDIPLEN 
@ Oscillator strength (LENGTH)   :  3.84634194E-35  (Transition moment :  1.42288361E-17 )

@ Operator type:    ZDIPLEN 
@ Oscillator strength (LENGTH)   :  2.49590988E-02  (Transition moment : -0.36245983     )


 @ Excited state no:    2 in symmetry  1
 ---------------------------------------

@ Excitation energy :  0.35932921    au
@                      9.7778451     eV
@                      78863.645     cm-1
                       943.41869     kJ / mol

@ Total energy :      -75.666352     au

@ SOPPA  p-h  weight in excitation operator:   95.51 %
@ SOPPA 2p-2h weight in excitation operator:    4.49 %

@ Operator type:    XDIPLEN 
@ Oscillator strength (LENGTH)   :  1.08997392E-34  (Transition moment :  2.13308137E-17 )

@ Operator type:    YDIPLEN 
@ Oscillator strength (LENGTH)   :  4.53832766E-33  (Transition moment :  1.37640833E-16 )

@ Operator type:    ZDIPLEN 
@ Oscillator strength (LENGTH)   :  7.44893475E-29  (Transition moment : -1.76338221E-14 )


 @ Excited state no:    3 in symmetry  1
 ---------------------------------------

@ Excitation energy :  0.38202207    au
@                      10.395349     eV
@                      83844.153     cm-1
                       1002.9988     kJ / mol

@ Total energy :      -75.643659     au

@ SOPPA  p-h  weight in excitation operator:   95.22 %
@ SOPPA 2p-2h weight in excitation operator:    4.78 %

@ Operator type:    XDIPLEN 
@ Oscillator strength (LENGTH)   :  3.09469688E-28  (Transition moment : -3.48586415E-14 )

@ Operator type:    YDIPLEN 
@ Oscillator strength (LENGTH)   :  9.52625482E-02  (Transition moment : -0.61159299     )

@ Operator type:    ZDIPLEN 
@ Oscillator strength (LENGTH)   :  1.25091701E-35  (Transition moment :  7.00834786E-18 )


 @ Excited state no:    4 in symmetry  1
 ---------------------------------------

@ Excitation energy :  0.45808786    au
@                      12.465205     eV
@                      100538.66     cm-1
                       1202.7095     kJ / mol

@ Total energy :      -75.567594     au

@ SOPPA  p-h  weight in excitation operator:   95.54 %
@ SOPPA 2p-2h weight in excitation operator:    4.46 %

@ Operator type:    XDIPLEN 
@ Oscillator strength (LENGTH)   :  7.65365111E-02  (Transition moment : -0.50061697     )

@ Operator type:    YDIPLEN 
@ Oscillator strength (LENGTH)   :  1.35908682E-29  (Transition moment : -6.67105987E-15 )

@ Operator type:    ZDIPLEN 
@ Oscillator strength (LENGTH)   :  1.97342936E-34  (Transition moment : -2.54203795E-17 )


 Time used in polarization propagator calculation is      0.22 CPU seconds for symmetry 1

 >>>> Total CPU  time used in RESPONSE:   0.24 seconds
 >>>> Total wall time used in RESPONSE:   0.24 seconds


                   .-------------------------------------------.
                   | End of Dynamic Property Section (RESPONS) |
                   `-------------------------------------------'

 >>>> Total CPU  time used in DALTON:   0.30 seconds
 >>>> Total wall time used in DALTON:   0.30 seconds

 
     Date and time (Linux)  : Sun Sep  8 20:39:13 2013
     Host name              : lpqlx131.ups-tlse.fr                    
