

     ************************************************************************
     *************** Dalton - An Electronic Structure Program ***************
     ************************************************************************

    This is output from DALTON (Release Dalton2013 patch 0)
   ----------------------------------------------------------------------------
    NOTE:
     
    Dalton is an experimental code for the evaluation of molecular
    properties using (MC)SCF, DFT, CI, and CC wave functions.
    The authors accept no responsibility for the performance of
    the code or for the correctness of the results.
     
    The code (in whole or part) is provided under a licence and
    is not to be reproduced for further distribution without
    the written permission of the authors or their representatives.
     
    See the home page "http://daltonprogram.org" for further information.
     
    If results obtained with this code are published,
    the appropriate citations would be both of:
     
       K. Aidas, C. Angeli, K. L. Bak, V. Bakken, R. Bast,
       L. Boman, O. Christiansen, R. Cimiraglia, S. Coriani,
       P. Dahle, E. K. Dalskov, U. Ekstroem, T. Enevoldsen,
       J. J. Eriksen, P. Ettenhuber, B. Fernandez, L. Ferrighi,
       H. Fliegl, L. Frediani, K. Hald, A. Halkier, C. Haettig,
       H. Heiberg, T. Helgaker, A. C. Hennum, H. Hettema,
       E. Hjertenaes, S. Hoest, I.-M. Hoeyvik, M. F. Iozzi,
       B. Jansik, H. J. Aa. Jensen, D. Jonsson, P. Joergensen,
       J. Kauczor, S. Kirpekar, T. Kjaergaard, W. Klopper,
       S. Knecht, R. Kobayashi, H. Koch, J. Kongsted, A. Krapp,
       K. Kristensen, A. Ligabue, O. B. Lutnaes, J. I. Melo,
       K. V. Mikkelsen, R. H. Myhre, C. Neiss, C. B. Nielsen,
       P. Norman, J. Olsen, J. M. H. Olsen, A. Osted,
       M. J. Packer, F. Pawlowski, T. B. Pedersen, P. F. Provasi,
       S. Reine, Z. Rinkevicius, T. A. Ruden, K. Ruud, V. Rybkin,
       P. Salek, C. C. M. Samson, A. Sanchez de Meras, T. Saue,
       S. P. A. Sauer, B. Schimmelpfennig, K. Sneskov,
       A. H. Steindal, K. O. Sylvester-Hvid, P. R. Taylor,
       A. M. Teale, E. I. Tellgren, D. P. Tew, A. J. Thorvaldsen,
       L. Thoegersen, O. Vahtras, M. A. Watson, D. J. D. Wilson,
       M. Ziolkowski and H. Agren.
       The Dalton quantum chemistry program system.
       WIREs Comput. Mol. Sci. 2013. doi: 10.1002/wcms.1172
    
    and
    
       Dalton, a Molecular Electronic Structure Program,
       Release DALTON2013.0 (2013), see http://daltonprogram.org
   ----------------------------------------------------------------------------

    Authors in alphabetical order (major contribution(s) in parenthesis):

  Kestutis Aidas,           Vilnius University,           Lithuania   (QM/MM)
  Celestino Angeli,         University of Ferrara,        Italy       (NEVPT2)
  Keld L. Bak,              UNI-C,                        Denmark     (AOSOPPA, non-adiabatic coupling, magnetic properties)
  Vebjoern Bakken,          University of Oslo,           Norway      (DALTON; geometry optimizer, symmetry detection)
  Radovan Bast,             KTH Stockholm                 Sweden      (DALTON installation and execution frameworks)
  Linus Boman,              NTNU,                         Norway      (Cholesky decomposition and subsystems)
  Ove Christiansen,         Aarhus University,            Denmark     (CC module)
  Renzo Cimiraglia,         University of Ferrara,        Italy       (NEVPT2)
  Sonia Coriani,            University of Trieste,        Italy       (CC module, MCD in RESPONS)
  Paal Dahle,               University of Oslo,           Norway      (Parallelization)
  Erik K. Dalskov,          UNI-C,                        Denmark     (SOPPA)
  Thomas Enevoldsen,        Univ. of Southern Denmark,    Denmark     (SOPPA)
  Janus J. Eriksen,         Aarhus University,            Denmark     (PE-MP2/SOPPA, TDA)
  Berta Fernandez,          U. of Santiago de Compostela, Spain       (doublet spin, ESR in RESPONS)
  Lara Ferrighi,            Aarhus University,            Denmark     (PCM Cubic response)
  Heike Fliegl,             University of Oslo,           Norway      (CCSD(R12))
  Luca Frediani,            UiT The Arctic U. of Norway,  Norway      (PCM)
  Bin Gao,                  UiT The Arctic U. of Norway,  Norway      (Gen1Int library)
  Christof Haettig,         Ruhr-University Bochum,       Germany     (CC module)
  Kasper Hald,              Aarhus University,            Denmark     (CC module)
  Asger Halkier,            Aarhus University,            Denmark     (CC module)
  Hanne Heiberg,            University of Oslo,           Norway      (geometry analysis, selected one-electron integrals)
  Trygve Helgaker,          University of Oslo,           Norway      (DALTON; ABACUS, ERI, DFT modules, London, and much more)
  Alf Christian Hennum,     University of Oslo,           Norway      (Parity violation)
  Hinne Hettema,            University of Auckland,       New Zealand (quadratic response in RESPONS; SIRIUS supersymmetry)
  Eirik Hjertenaes,         NTNU,                         Norway      (Cholesky decomposition)
  Maria Francesca Iozzi,    University of Oslo,           Norway      (RPA)
  Brano Jansik              Technical Univ. of Ostrava    Czech Rep.  (DFT cubic response)
  Hans Joergen Aa. Jensen,  Univ. of Southern Denmark,    Denmark     (DALTON; SIRIUS, RESPONS, ABACUS modules, London, and much more)
  Dan Jonsson,              UiT The Arctic U. of Norway,  Norway      (cubic response in RESPONS module)
  Poul Joergensen,          Aarhus University,            Denmark     (RESPONS, ABACUS, and CC modules)
  Joanna Kauczor,           Linkoeping University,        Sweden      (Complex polarization propagator (CPP) module)
  Sheela Kirpekar,          Univ. of Southern Denmark,    Denmark     (Mass-velocity & Darwin integrals)
  Wim Klopper,              KIT Karlsruhe,                Germany     (R12 code in CC, SIRIUS, and ABACUS modules)
  Stefan Knecht,            ETH Zurich,                   Switzerland (Parallel CI and MCSCF)
  Rika Kobayashi,           Australian National Univ.,    Australia   (DIIS in CC, London in MCSCF)
  Henrik Koch,              NTNU,                         Norway      (CC module, Cholesky decomposition)
  Jacob Kongsted,           Univ. of Southern Denmark,    Denmark     (Polarizable embedding, QM/MM)
  Andrea Ligabue,           University of Modena,         Italy       (CTOCD, AOSOPPA)
  Ola B. Lutnaes,           University of Oslo,           Norway      (DFT Hessian)
  Juan I. Melo,             University of Buenos Aires,   Argentina   (LRESC, Relativistic Effects on NMR Shieldings)
  Kurt V. Mikkelsen,        University of Copenhagen,     Denmark     (MC-SCRF and QM/MM)
  Rolf H. Myhre,            NTNU,                         Norway      (Cholesky, subsystems and ECC2)
  Christian Neiss,          Univ. Erlangen-Nuernberg,     Germany     (CCSD(R12))
  Christian B. Nielsen,     University of Copenhagen,     Denmark     (QM/MM)
  Patrick Norman,           Linkoeping University,        Sweden      (Cubic response and complex response in RESPONS)
  Jeppe Olsen,              Aarhus University,            Denmark     (SIRIUS CI/density modules)
  Jogvan Magnus H. Olsen,   Univ. of Southern Denmark,    Denmark     (Polarizable embedding, PE library, QM/MM)
  Anders Osted,             Copenhagen University,        Denmark     (QM/MM)
  Martin J. Packer,         University of Sheffield,      UK          (SOPPA)
  Filip Pawlowski,          Kazimierz Wielki University   Poland      (CC3)
  Thomas B. Pedersen,       University of Oslo,           Norway      (Cholesky decomposition)
  Patricio F. Provasi,      University of Northeastern,   Argentina   (Analysis of coupling constants in localized orbitals)
  Zilvinas Rinkevicius,     KTH Stockholm,                Sweden      (open-shell DFT, ESR)
  Elias Rudberg,            KTH Stockholm,                Sweden      (DFT grid and basis info)
  Torgeir A. Ruden,         University of Oslo,           Norway      (Numerical derivatives in ABACUS)
  Kenneth Ruud,             UiT The Arctic U. of Norway,  Norway      (DALTON; ABACUS magnetic properties and  much more)
  Pawel Salek,              KTH Stockholm,                Sweden      (DALTON; DFT code)
  Claire C. M. Samson       University of Karlsruhe       Germany     (Boys localization, r12 integrals in ERI)
  Alfredo Sanchez de Meras, University of Valencia,       Spain       (CC module, Cholesky decomposition)
  Trond Saue,               Paul Sabatier University,     France      (direct Fock matrix construction)
  Stephan P. A. Sauer,      University of Copenhagen,     Denmark     (SOPPA(CCSD), SOPPA prop., AOSOPPA, vibrational g-factors)
  Bernd Schimmelpfennig,    Forschungszentrum Karlsruhe,  Germany     (AMFI module)
  Kristian Sneskov,         Aarhus University,            Denmark     (QM/MM, PE-CC)
  Arnfinn H. Steindal,      UiT The Arctic U. of Norway,  Norway      (parallel QM/MM)
  K. O. Sylvester-Hvid,     University of Copenhagen,     Denmark     (MC-SCRF)
  Peter R. Taylor,          VLSCI/Univ. of Melbourne,     Australia   (Symmetry handling ABACUS, integral transformation)
  Andrew M. Teale,          University of Nottingham,     England     (DFT-AC, DFT-D)
  David P. Tew,             University of Bristol,        England     (CCSD(R12))
  Olav Vahtras,             KTH Stockholm,                Sweden      (triplet response, spin-orbit, ESR, TDDFT, open-shell DFT)
  David J. Wilson,          La Trobe University,          Australia   (DFT Hessian and DFT magnetizabilities)
  Hans Agren,               KTH Stockholm,                Sweden      (SIRIUS module, RESPONS, MC-SCRF solvation model)
 --------------------------------------------------------------------------------

     Date and time (Linux)  : Sun Sep  8 20:54:36 2013
     Host name              : lpqlx131.ups-tlse.fr                    

 * Work memory size             :    64000000 =  488.28 megabytes.

 * Directories for basis set searches:
   1) /home/bast/DALTON-2013.0-Source/build/test_dft_polar
   2) /home/bast/DALTON-2013.0-Source/build/basis


Compilation information
-----------------------

 Who compiled             | bast
 Host                     | lpqlx131.ups-tlse.fr
 System                   | Linux-3.8.5-201.fc18.x86_64
 CMake generator          | Unix Makefiles
 Processor                | x86_64
 64-bit integers          | OFF
 MPI                      | OFF
 Fortran compiler         | /usr/bin/gfortran
 Fortran compiler version | GNU Fortran (GCC) 4.7.2 20121109 (Red Hat 4.7.2-8)
 C compiler               | /usr/bin/gcc
 C compiler version       | gcc (GCC) 4.7.2 20121109 (Red Hat 4.7.2-8)
 C++ compiler             | /usr/bin/g++
 C++ compiler version     | g++ (GCC) 4.7.2 20121109 (Red Hat 4.7.2-8)
 Static linking           | OFF
 Last Git revision        | f34203295a86316e27f9e7b44f9b6769c4a046c0
 Configuration time       | 2013-09-08 20:31:27.952056


   Content of the .dal input file
 ----------------------------------

**DALTON                                          
.RUN PROPERTIES                                   
**WAVE FUNCTIONS                                  
.DFT                                              
 LDA                                              
*DFT INPUT                                        
.GRID TYPE                                        
BECKE                                             
.RADINT                                           
1e-9                                              
**PROPERTIES                                      
.POLARIZABILITY                                   
**END OF                                          
                                                  


   Content of the .mol file
 ----------------------------

#                                                                              
INTGRL                                                                         
ethylene with one hydrogen substituted by a fluorene                           
STO-2G basis set + some random diffuse functions...                            
    3  0 1Z           0.10E-14                                                 
        6.    2    2    1    1                                                 
CE1     -0.5394313891792    -0.9943795749931     0.0000000000000               
CE2     -2.1187632311375     0.9413664272696     0.0000000000000               
H   5    3                                                                     
       27.3850330000        0.4301285000        0.0000000000    0              
        4.8745221000        0.6789135300        0.0000000000    0              
        1.1367482000        0.0000000000        0.0494717700    0              
        0.2883094000        0.0000000000        0.9637824100    0              
        0.09                0                   0               1              
H   3    2                                                                     
        1.1367482000        0.5115407100        0                              
        0.2883094000        0.6128199000        0                              
        0.09                0                   1                              
        9.    1    2    1    1                                                 
FE1      2.0392035507634     0.0000000000000     0.0000000000000               
H   5    3                                                                     
       63.7352020000        0.4301280000        0.0000000000    0              
       11.3448340000        0.6789140000        0.0000000000    0              
        2.4985480000        0.0000000000        0.0494720000    0              
        0.6336980000        0.0000000000        0.9637820000    0              
        0.20                0.0                  0              1              
H   3    2                                                                     
        2.4985480000        0.5115410000        0                              
        0.6336980000        0.6128200000        0                              
        0.20                0                   1                              
        1.    3    1    1                                                      
HE2     -1.4627595366565     2.8619627078646     0.0000000000000               
HE3     -1.1954350836602    -2.9149758555882     0.0000000000000               
HE4     -4.1319479268851     0.6842316357375     0.0000000000000               
H   3    2                                                                     
        1.3097564000        0.4301285000   0                                   
        0.2331360000        0.6789135300   0                                   
        0.06                 0             1                                   
                                                                               


       *******************************************************************
       *********** Output from DALTON general input processing ***********
       *******************************************************************

 --------------------------------------------------------------------------------
   Overall default print level:    0
   Print level for DALTON.STAT:    1

    HERMIT 1- and 2-electron integral sections will be executed
    "Old" integral transformation used (limited to max 255 basis functions)
    Wave function sections will be executed (SIRIUS module)
    Static molecular property section will be executed (ABACUS module)
 --------------------------------------------------------------------------------


   ****************************************************************************
   *************** Output of molecule and basis set information ***************
   ****************************************************************************


    The two title cards from your ".mol" input:
    ------------------------------------------------------------------------
 1: ethylene with one hydrogen substituted by a fluorene                    
 2: STO-2G basis set + some random diffuse functions...                     
    ------------------------------------------------------------------------

  Atomic type no.    1
  --------------------
  Nuclear charge:   6.00000
  Number of symmetry independent centers:    2
  Number of basis sets to read;    2

  Atomic type no.    2
  --------------------
  Nuclear charge:   9.00000
  Number of symmetry independent centers:    1
  Number of basis sets to read;    2

  Atomic type no.    3
  --------------------
  Nuclear charge:   1.00000
  Number of symmetry independent centers:    3
  Number of basis sets to read;    2


                         SYMGRP: Point group information
                         -------------------------------

Point group: Cs 

   * The point group was generated by:

      Reflection in the xy-plane

   * Group multiplication table

        |  E   Oxy
   -----+----------
     E  |  E   Oxy
    Oxy | Oxy   E 

   * Character table

        |  E   Oxy
   -----+----------
    A'  |   1    1
    A"  |   1   -1

   * Direct product table

        | A'   A" 
   -----+----------
    A'  | A'   A" 
    A"  | A"   A' 


                                 Isotopic Masses
                                 ---------------

                           CE1        12.000000
                           CE2        12.000000
                           FE1        18.998403
                           HE2         1.007825
                           HE3         1.007825
                           HE4         1.007825

                       Total mass:    46.021878 amu
                       Natural abundance:  97.768 %

 Center-of-mass coordinates (a.u.):   -0.000000    0.000000    0.000000


  Atoms and basis sets
  --------------------

  Number of atom types :    3
  Total number of atoms:    6

  label    atoms   charge   prim   cont     basis
  ----------------------------------------------------------------------
  CE          2    6.0000    14     9      [5s3p|3s2p]                                        
  FE          1    9.0000    14     9      [5s3p|3s2p]                                        
  HE          3    1.0000     3     2      [3s|2s]                                            
  ----------------------------------------------------------------------
  total:      6   24.0000    51    33
  ----------------------------------------------------------------------

  Threshold for neglecting AO integrals:  1.00D-15


  Cartesian Coordinates (a.u.)
  ----------------------------

  Total number of coordinates:   18
  CE1     :     1  x  -0.5394313892    2  y  -0.9943795750    3  z   0.0000000000
  CE2     :     4  x  -2.1187632311    5  y   0.9413664273    6  z   0.0000000000
  FE1     :     7  x   2.0392035508    8  y   0.0000000000    9  z   0.0000000000
  HE2     :    10  x  -1.4627595367   11  y   2.8619627079   12  z   0.0000000000
  HE3     :    13  x  -1.1954350837   14  y  -2.9149758556   15  z   0.0000000000
  HE4     :    16  x  -4.1319479269   17  y   0.6842316357   18  z   0.0000000000


  Symmetry Coordinates
  --------------------

  Number of coordinates in each symmetry:    12    6

  Symmetry  A'  ( 1)

    1   CE1   x    1
    2   CE1   y    2
    3   CE2   x    4
    4   CE2   y    5
    5   FE1   x    7
    6   FE1   y    8
    7   HE2   x   10
    8   HE2   y   11
    9   HE3   x   13
   10   HE3   y   14
   11   HE4   x   16
   12   HE4   y   17

  Symmetry  A"  ( 2)

   13   CE1   z    3
   14   CE2   z    6
   15   FE1   z    9
   16   HE2   z   12
   17   HE3   z   15
   18   HE4   z   18


   Interatomic separations (in Angstrom):
   --------------------------------------

            CE1         CE2         FE1         HE2         HE3         HE4   
            ------      ------      ------      ------      ------      ------
 CE1   :    0.000000
 CE2   :    1.322033    0.000000
 FE1   :    1.462498    2.255987    0.000000
 HE2   :    2.098367    1.073986    2.393296    0.000000
 HE3   :    1.073986    2.098367    2.304199    3.060296    0.000000
 HE4   :    2.098367    1.073986    3.285644    1.822943    2.458107    0.000000


  Max    interatomic separation is    3.2856 Angstrom (    6.2090 Bohr)
  between atoms    6 and    3, "HE4   " and "FE1   ".

  Min HX interatomic separation is    1.0740 Angstrom (    2.0295 Bohr)

  Min YX interatomic separation is    1.3220 Angstrom (    2.4983 Bohr)


  Bond distances (Angstrom):
  --------------------------

                  atom 1     atom 2       distance
                  ------     ------       --------
  bond distance:  CE2        CE1          1.322033
  bond distance:  FE1        CE1          1.462498
  bond distance:  HE2        CE2          1.073986
  bond distance:  HE3        CE1          1.073986
  bond distance:  HE4        CE2          1.073986


  Bond angles (degrees):
  ----------------------

                  atom 1     atom 2     atom 3         angle
                  ------     ------     ------         -----
  bond angle:     CE2        CE1        FE1          108.122
  bond angle:     CE2        CE1        HE3          121.932
  bond angle:     FE1        CE1        HE3          129.946
  bond angle:     CE1        CE2        HE2          121.932
  bond angle:     CE1        CE2        HE4          121.932
  bond angle:     HE2        CE2        HE4          116.137




 Principal moments of inertia (u*A**2) and principal axes
 --------------------------------------------------------

   IA      10.116766          0.985207   -0.171371    0.000000
   IB      45.036776          0.171371    0.985207    0.000000
   IC      55.153542          0.000000    0.000000    1.000000


 Rotational constants
 --------------------

 The molecule is planar.

               A                   B                   C

          49954.6016          11221.4738           9163.1287 MHz
            1.666306            0.374308            0.305649 cm-1


@  Nuclear repulsion energy :   66.208577989726 Hartree


  Symmetry Orbitals
  -----------------

  Number of orbitals in each symmetry:          27    6


  Symmetry  A' ( 1)

    1     CE1      1s         1
    2     CE1      1s         2
    3     CE1      1s         3
    4     CE1      2px        4
    5     CE1      2py        5
    6     CE1      2px        7
    7     CE1      2py        8
    8     CE2      1s        10
    9     CE2      1s        11
   10     CE2      1s        12
   11     CE2      2px       13
   12     CE2      2py       14
   13     CE2      2px       16
   14     CE2      2py       17
   15     FE1      1s        19
   16     FE1      1s        20
   17     FE1      1s        21
   18     FE1      2px       22
   19     FE1      2py       23
   20     FE1      2px       25
   21     FE1      2py       26
   22     HE2      1s        28
   23     HE2      1s        29
   24     HE3      1s        30
   25     HE3      1s        31
   26     HE4      1s        32
   27     HE4      1s        33


  Symmetry  A" ( 2)

   28     CE1      2pz        6
   29     CE1      2pz        9
   30     CE2      2pz       15
   31     CE2      2pz       18
   32     FE1      2pz       24
   33     FE1      2pz       27

  Symmetries of electric field:  A' (1)  A' (1)  A" (2)

  Symmetries of magnetic field:  A" (2)  A" (2)  A' (1)


                     .---------------------------------------.
                     | Starting in Integral Section (HERMIT) |
                     `---------------------------------------'



    *************************************************************************
    ****************** Output from HERMIT input processing ******************
    *************************************************************************



     ************************************************************************
     ************************** Output from HERINT **************************
     ************************************************************************


 Threshold for neglecting two-electron integrals:  1.00D-15
 Number of two-electron integrals written:       91430 ( 58.0% )
 Megabytes written:                              1.051

 >>>> Total CPU  time used in HERMIT:   0.05 seconds
 >>>> Total wall time used in HERMIT:   0.06 seconds


                        .----------------------------------.
                        | End of Integral Section (HERMIT) |
                        `----------------------------------'



                   .--------------------------------------------.
                   | Starting in Wave Function Section (SIRIUS) |
                   `--------------------------------------------'



 Settings for DFT calculation:
 -----------------------------

     Default thresholds:                                       1.00D-09    1.00D-10    2.00D-12
     Default threshold for number of electrons:                1.00D-03
     DFT radial quadrature accuracy and ang. expansion order:              1.00D-09  35

 *** Output from Huckel module :

     Using EWMO model:          T
     Using EHT  model:          F
     Number of Huckel orbitals each symmetry:   15    3

 EWMO - Energy Weighted Maximum Overlap - is a Huckel type method,
        which normally is better than Extended Huckel Theory.
 Reference: Linderberg and Ohrn, Propagators in Quantum Chemistry (Wiley, 1973)

 Huckel EWMO eigenvalues for symmetry :  1
          -26.383828     -11.355499     -11.346078      -1.794036      -1.394371
           -1.013482      -0.830360      -0.716557      -0.604248      -0.514384
           -0.261758      -0.123547      -0.122495      -0.095935      -0.087221

 Huckel EWMO eigenvalues for symmetry :  2
           -0.778038      -0.518189      -0.247573

 **********************************************************************
 *SIRIUS* a direct, restricted step, second order MCSCF program       *
 **********************************************************************

 
     Date and time (Linux)  : Sun Sep  8 20:54:36 2013
     Host name              : lpqlx131.ups-tlse.fr                    

 Title lines from ".mol" input file:
     ethylene with one hydrogen substituted by a fluorene                    
     STO-2G basis set + some random diffuse functions...                     

 Print level on unit LUPRI =   2 is   0
 Print level on unit LUW4  =   2 is   5

@    Restricted, closed shell Kohn-Sham DFT calculation.

 Initial molecular orbitals are obtained according to
 ".MOSTART EWMO  " input option

     Wave function specification
     ============================
@    For the wave function of type :      >>> KS-DFT <<<
@    Number of closed shell electrons          24
@    Number of electrons in active shells       0
@    Total charge of the molecule               0

@    Spin multiplicity and 2 M_S                1         0
     Total number of symmetries                 2
@    Reference state symmetry                   1
 
     This is a DFT calculation of type: LDA

     Orbital specifications
     ======================
     Abelian symmetry species          All |    1    2
                                       --- |  ---  ---
     Total number of orbitals           33 |   27    6
     Number of basis functions          33 |   27    6

      ** Automatic occupation of RKS orbitals **

      -- Initial occupation of symmetries is determined from extended Huckel guess.           
      -- Initial occupation of symmetries is :
@    Occupied SCF orbitals              12 |   10    2

     Maximum number of Fock   iterations      0
     Maximum number of DIIS   iterations     60
     Maximum number of QC-SCF iterations     60
     Threshold for SCF convergence     1.00D-05
 
     This is a DFT calculation of type: LDA


 >>>>> DIIS optimization of Hartree-Fock <<<<<

 C1-DIIS algorithm; max error vectors =   10

 Automatic occupation of symmetries with  24 electrons.

 Iter     Total energy    Error norm  Delta(E)    SCF occupation
 -----------------------------------------------------------------------------
      K-S energy, electrons, error :    -20.179649468322  23.9999085012   -9.15D-05
@  1  -168.743259879       2.85D+00  -1.69D+02    10   2
      Virial theorem: -V/T =      2.039035
@      MULPOP CE1     0.50; CE2    -0.10; FE1    -0.49; HE2     0.01; HE3     0.02; HE4     0.05; 
 -----------------------------------------------------------------------------
      K-S energy, electrons, error :    -19.938357737275  23.9999632709   -3.67D-05
@  2  -166.101666682       6.40D+00   2.64D+00    10   2
      Virial theorem: -V/T =      2.039960
@      MULPOP CE1    -1.84; CE2    -1.14; FE1     2.46; HE2     0.23; HE3     0.14; HE4     0.15; 
 -----------------------------------------------------------------------------
      K-S energy, electrons, error :    -20.537640694837  23.9999140643   -8.59D-05
@  3  -169.075270695       1.16D+00  -2.97D+00    10   2
      Virial theorem: -V/T =      2.034378
@      MULPOP CE1    -0.27; CE2     0.21; FE1    -0.28; HE2     0.11; HE3     0.12; HE4     0.11; 
 -----------------------------------------------------------------------------
      K-S energy, electrons, error :    -20.093785231245  23.9999351118   -6.49D-05
@  4  -169.110010699       8.78D-01  -3.47D-02    10   2
      Virial theorem: -V/T =      2.053043
@      MULPOP CE1     0.42; CE2    -0.44; FE1    -0.07; HE2     0.05; HE3    -0.01; HE4     0.05; 
 -----------------------------------------------------------------------------
      K-S energy, electrons, error :    -20.221142928589  23.9999351769   -6.48D-05
@  5  -169.162412324       3.78D-01  -5.24D-02    10   2
      Virial theorem: -V/T =      2.047597
@      MULPOP CE1    -0.27; CE2     0.10; FE1    -0.04; HE2     0.08; HE3     0.06; HE4     0.07; 
 -----------------------------------------------------------------------------
      K-S energy, electrons, error :    -20.256264712579  23.9999322809   -6.77D-05
@  6  -169.173478106       4.42D-02  -1.11D-02    10   2
      Virial theorem: -V/T =      2.046318
@      MULPOP CE1    -0.09; CE2    -0.12; FE1    -0.05; HE2     0.10; HE3     0.06; HE4     0.09; 
 -----------------------------------------------------------------------------
      K-S energy, electrons, error :    -20.245145529673  23.9999325417   -6.75D-05
@  7  -169.173635150       7.04D-03  -1.57D-04    10   2
      Virial theorem: -V/T =      2.046755
@      MULPOP CE1    -0.09; CE2    -0.10; FE1    -0.05; HE2     0.09; HE3     0.06; HE4     0.09; 
 -----------------------------------------------------------------------------
      K-S energy, electrons, error :    -20.246391702244  23.9999324080   -6.76D-05
@  8  -169.173639284       8.80D-04  -4.13D-06    10   2
      Virial theorem: -V/T =      2.046706
@      MULPOP CE1    -0.09; CE2    -0.10; FE1    -0.05; HE2     0.09; HE3     0.06; HE4     0.09; 
 -----------------------------------------------------------------------------
      K-S energy, electrons, error :    -20.246561885862  23.9999324049   -6.76D-05
@  9  -169.173639336       1.13D-04  -5.22D-08    10   2
      Virial theorem: -V/T =      2.046699
@      MULPOP CE1    -0.09; CE2    -0.10; FE1    -0.05; HE2     0.09; HE3     0.06; HE4     0.09; 
 -----------------------------------------------------------------------------
      K-S energy, electrons, error :    -20.246578005440  23.9999324034   -6.76D-05
@ 10  -169.173639337       1.71D-05  -9.16D-10    10   2
      Virial theorem: -V/T =      2.046698
@      MULPOP CE1    -0.09; CE2    -0.10; FE1    -0.05; HE2     0.09; HE3     0.06; HE4     0.09; 
 -----------------------------------------------------------------------------
      K-S energy, electrons, error :    -20.246579774935  23.9999324032   -6.76D-05
@ 11  -169.173639337       1.19D-06  -2.48D-11    10   2

@ *** DIIS converged in  11 iterations !
@     Converged SCF energy, gradient:   -169.173639336767    1.19D-06
    - total time used in SIRFCK :              0.00 seconds


 *** SCF orbital energy analysis ***

 Only the five lowest virtual orbital energies printed in each symmetry.

 Number of electrons :   24
 Orbital occupations :   10    2

 Sym       Kohn-Sham orbital energies

  1    -23.43821072    -9.45049252    -9.36522876    -1.12095133    -0.71623742
        -0.54510219    -0.48827186    -0.43108387    -0.37055309    -0.31635712
         0.00631225     0.01032997     0.03237522     0.06125423     0.16048818

  2     -0.38333210    -0.25155260    -0.04236933     0.18494917     0.27337811
         0.56696926

    E(LUMO) :    -0.04236933 au (symmetry 2)
  - E(HOMO) :    -0.25155260 au (symmetry 2)
  ------------------------------------------
    gap     :     0.20918327 au

 >>> Writing SIRIFC interface file <<<

 >>>> CPU and wall time for SCF :       3.775       4.152


                       .-----------------------------------.
                       | >>> Final results from SIRIUS <<< |
                       `-----------------------------------'


@    Spin multiplicity:           1
@    Spatial symmetry:            1
@    Total charge of molecule:    0

@    Final DFT energy:           -169.173639336767                 
@    Nuclear repulsion:            66.208577989726
@    Electronic energy:          -235.382217326493

@    Final gradient norm:           0.000001191301

 
     Date and time (Linux)  : Sun Sep  8 20:54:40 2013
     Host name              : lpqlx131.ups-tlse.fr                    

 (Only coefficients >0.0100 are printed.)

 Molecular orbitals for symmetry species  1
 ------------------------------------------

    Orbital         6        7        8        9       10       11       12
   1 CE1 :1s    -0.1552   0.0081   0.0279   0.0224  -0.0105  -0.1311  -0.0609
   2 CE1 :1s     0.4407  -0.0428  -0.0380  -0.0618   0.0183   0.4894   0.2162
   3 CE1 :1s    -0.2233   0.0275   0.0510  -0.0278  -0.0330   1.0766  -0.1374
   4 CE1 :2px    0.0699  -0.2752   0.3213   0.0400  -0.0826   0.3090   0.4176
   5 CE1 :2py   -0.2360  -0.3335  -0.2705   0.2358   0.1735  -0.1365   0.1537
   6 CE1 :2px    0.0515   0.0082   0.0019  -0.0270   0.0840   0.6261   0.8135
   7 CE1 :2py   -0.0536   0.0602  -0.0133  -0.0160  -0.0502  -0.0831   0.3350
   8 CE2 :1s     0.1539  -0.0197  -0.0299  -0.0078  -0.0451  -0.0318   0.0550
   9 CE2 :1s    -0.4062   0.0652   0.1195   0.0111   0.1372   0.1178  -0.1948
  10 CE2 :1s     0.2272  -0.0736  -0.0325   0.0186   0.1072   0.6075  -0.4262
  11 CE2 :2px    0.0674  -0.2609  -0.2971  -0.3171   0.2364  -0.1330   0.1223
  12 CE2 :2py   -0.1551  -0.1047   0.3369  -0.3876  -0.0704   0.0481  -0.0016
  13 CE2 :2px    0.0338  -0.0261  -0.0316  -0.0026  -0.0285  -0.3892   0.0148
  14 CE2 :2py   -0.0527  -0.0081   0.0225  -0.0198  -0.0452  -0.0337  -0.2990
  15 FE1 :1s     0.0453  -0.0623   0.0251   0.0007   0.0013   0.0493   0.0746
  16 FE1 :1s    -0.1598   0.2185  -0.0848   0.0027  -0.0049  -0.1957  -0.3013
  17 FE1 :1s    -0.0256   0.0685  -0.0432   0.0050  -0.0212  -0.3870  -0.5209
  18 FE1 :2px   -0.1782   0.4836  -0.2038  -0.2188   0.4002   0.2584   0.3015
  19 FE1 :2py   -0.1877   0.0485  -0.3810  -0.1797  -0.6685   0.2082   0.1504
  20 FE1 :2px   -0.0302   0.0748  -0.0352  -0.0422   0.1171   0.1684   0.1995
  21 FE1 :2py   -0.0355  -0.0103  -0.0803  -0.0561  -0.1989   0.1510   0.0911
  22 HE2 :1s    -0.2075  -0.0739   0.1819  -0.3667   0.0558  -0.1040  -0.1324
  23 HE2 :1s    -0.0286   0.0074   0.0143  -0.0650   0.0235  -0.1343   0.2230
  24 HE3 :1s     0.2611   0.2360   0.0661  -0.2543  -0.1683  -0.1565  -0.1559
  25 HE3 :1s     0.0377   0.0620  -0.0054  -0.0531  -0.0492  -1.1153   0.6415
  26 HE4 :1s    -0.1727   0.1748   0.2105   0.3048  -0.1622   0.0796   0.1279
  27 HE4 :1s    -0.0282   0.0152   0.0191   0.0616  -0.0635  -0.6860   0.9251

 Molecular orbitals for symmetry species  2
 ------------------------------------------

    Orbital         1        2        3        4
   1 CE1 :2pz    0.3479   0.4330  -0.6228  -0.5627
   2 CE1 :2pz    0.0883   0.0857  -0.6820   0.8746
   3 CE2 :2pz    0.1693   0.5057   0.5263  -0.5265
   4 CE2 :2pz    0.0196   0.1751   0.7185   0.4341
   5 FE1 :2pz    0.6853  -0.4707   0.2060  -0.0703
   6 FE1 :2pz    0.1845  -0.1752   0.1435  -0.1202



 >>>> Total CPU  time used in SIRIUS :      3.78 seconds
 >>>> Total wall time used in SIRIUS :      4.16 seconds

 
     Date and time (Linux)  : Sun Sep  8 20:54:40 2013
     Host name              : lpqlx131.ups-tlse.fr                    


                     .---------------------------------------.
                     | End of Wave Function Section (SIRIUS) |
                     `---------------------------------------'



        *****************************************************************
        ******** Output from **PROPE input processing for ABACUS ********
        *****************************************************************



 The following molecular properties will be calculated in this run:
 ------------------------------------------------------------------

 Default print level:        0

      Static polarizabilities
      Natural orbital connection is used
      for perturbation dependent basis sets.

 Center of mass dipole origin  :   -0.000000    0.000000    0.000000

 Center of mass gauge origin   :   -0.000000    0.000000    0.000000


                 .------------------------------------------------.
                 | Starting in Static Property Section (ABACUS) - |
                 `------------------------------------------------'


 
     Date and time (Linux)  : Sun Sep  8 20:54:40 2013
     Host name              : lpqlx131.ups-tlse.fr                    


   ***************************************************************************
   ************************ FINAL RESULTS from ABACUS ************************
   ***************************************************************************


 
     Date and time (Linux)  : Sun Sep  8 20:54:49 2013
     Host name              : lpqlx131.ups-tlse.fr                    


                             Molecular geometry (au)
                             -----------------------

 CE1       -0.5394313892           -0.9943795750            0.0000000000
 CE2       -2.1187632311            0.9413664273            0.0000000000
 FE1        2.0392035508            0.0000000000            0.0000000000
 HE2       -1.4627595367            2.8619627079            0.0000000000
 HE3       -1.1954350837           -2.9149758556            0.0000000000
 HE4       -4.1319479269            0.6842316357            0.0000000000





                        Molecular wave function and energy
                        ----------------------------------

     Spin multiplicity  1     State number       1     Total charge       0

     Total energy       -169.1736393368 au (Hartrees)
                         -4603.44889819 eV
                           -444165.3216 kJ/mol


                             Relativistic corrections
                             ------------------------

     Darwin correction:                          0.2085367459 au
     Mass-velocity correction:                  -0.2720797800 au

     Total relativistic correction:             -0.0635430341 au (0.0376%)
     Non-relativistic + relativistic energy:  -169.2371823709 au




                                  Dipole moment
                                  -------------

                 au               Debye          C m (/(10**-30)
              0.841429           2.138698           7.133928


                             Dipole moment components
                             ------------------------

                 au               Debye          C m (/(10**-30)

      x     -0.79492675        -2.02050212        -6.73966962
      y     -0.27585038        -0.70114169        -2.33875692


   Units:   1 a.u. =   2.54175 Debye 
            1 a.u. =   8.47835 (10**-30) C m (SI)




                           Static polarizabilities (au)
                           ----------------------------

                         Ex          Ey          Ez

            Ex      27.513188   -4.714746    0.000000
            Ey      -4.714746   25.166141    0.000000
            Ez       0.000000    0.000000   13.552602



                      Static polarizabilities (angstroms**3)
                      --------------------------------------

                         Ex          Ey          Ez

            Ex       4.077034   -0.698653    0.000000
            Ey      -0.698653    3.729237    0.000000
            Ez       0.000000    0.000000    2.008288



                +--------------------------------------------------+
                ! Principal values and axes of polarizability (au) !
                +--------------------------------------------------+



         sym         value             x          y          z
         -----------------------------------------------------

          1        31.1983          0.7879    -0.6158     0.0000
          1        21.4811          0.6158     0.7879     0.0000
          2        13.5526          0.0000     0.0000     1.0000


            Mean value:   22.0773        Anisotropy:   15.3077





   Interatomic separations (in Angstrom):
   --------------------------------------

            CE1         CE2         FE1         HE2         HE3         HE4   
            ------      ------      ------      ------      ------      ------
 CE1   :    0.000000
 CE2   :    1.322033    0.000000
 FE1   :    1.462498    2.255987    0.000000
 HE2   :    2.098367    1.073986    2.393296    0.000000
 HE3   :    1.073986    2.098367    2.304199    3.060296    0.000000
 HE4   :    2.098367    1.073986    3.285644    1.822943    2.458107    0.000000


  Max    interatomic separation is    3.2856 Angstrom (    6.2090 Bohr)
  between atoms    6 and    3, "HE4   " and "FE1   ".

  Min HX interatomic separation is    1.0740 Angstrom (    2.0295 Bohr)

  Min YX interatomic separation is    1.3220 Angstrom (    2.4983 Bohr)


  Bond distances (Angstrom):
  --------------------------

                  atom 1     atom 2       distance
                  ------     ------       --------
  bond distance:  CE2        CE1          1.322033
  bond distance:  FE1        CE1          1.462498
  bond distance:  HE2        CE2          1.073986
  bond distance:  HE3        CE1          1.073986
  bond distance:  HE4        CE2          1.073986


  Bond angles (degrees):
  ----------------------

                  atom 1     atom 2     atom 3         angle
                  ------     ------     ------         -----
  bond angle:     CE2        CE1        FE1          108.122
  bond angle:     CE2        CE1        HE3          121.932
  bond angle:     FE1        CE1        HE3          129.946
  bond angle:     CE1        CE2        HE2          121.932
  bond angle:     CE1        CE2        HE4          121.932
  bond angle:     HE2        CE2        HE4          116.137




 CPU time statistics for ABACUS
 ------------------------------

 RESPON     00:00:09     100 %

 TOTAL      00:00:09     100 %


 >>>> Total CPU  time used in ABACUS:   9.11 seconds
 >>>> Total wall time used in ABACUS:   9.69 seconds


                   .-------------------------------------------.
                   | End of Static Property Section (ABACUS) - |
                   `-------------------------------------------'

 >>>> Total CPU  time used in DALTON:  12.95 seconds
 >>>> Total wall time used in DALTON:  13.91 seconds

 
     Date and time (Linux)  : Sun Sep  8 20:54:49 2013
     Host name              : lpqlx131.ups-tlse.fr                    
