

     ************************************************************************
     *************** Dalton - An Electronic Structure Program ***************
     ************************************************************************

    This is output from DALTON 2013.2
   ----------------------------------------------------------------------------
    NOTE:
     
    Dalton is an experimental code for the evaluation of molecular
    properties using (MC)SCF, DFT, CI, and CC wave functions.
    The authors accept no responsibility for the performance of
    the code or for the correctness of the results.
     
    The code (in whole or part) is provided under a licence and
    is not to be reproduced for further distribution without
    the written permission of the authors or their representatives.
     
    See the home page "http://daltonprogram.org" for further information.
     
    If results obtained with this code are published,
    the appropriate citations would be both of:
     
       K. Aidas, C. Angeli, K. L. Bak, V. Bakken, R. Bast,
       L. Boman, O. Christiansen, R. Cimiraglia, S. Coriani,
       P. Dahle, E. K. Dalskov, U. Ekstroem, T. Enevoldsen,
       J. J. Eriksen, P. Ettenhuber, B. Fernandez, L. Ferrighi,
       H. Fliegl, L. Frediani, K. Hald, A. Halkier, C. Haettig,
       H. Heiberg, T. Helgaker, A. C. Hennum, H. Hettema,
       E. Hjertenaes, S. Hoest, I.-M. Hoeyvik, M. F. Iozzi,
       B. Jansik, H. J. Aa. Jensen, D. Jonsson, P. Joergensen,
       J. Kauczor, S. Kirpekar, T. Kjaergaard, W. Klopper,
       S. Knecht, R. Kobayashi, H. Koch, J. Kongsted, A. Krapp,
       K. Kristensen, A. Ligabue, O. B. Lutnaes, J. I. Melo,
       K. V. Mikkelsen, R. H. Myhre, C. Neiss, C. B. Nielsen,
       P. Norman, J. Olsen, J. M. H. Olsen, A. Osted,
       M. J. Packer, F. Pawlowski, T. B. Pedersen, P. F. Provasi,
       S. Reine, Z. Rinkevicius, T. A. Ruden, K. Ruud, V. Rybkin,
       P. Salek, C. C. M. Samson, A. Sanchez de Meras, T. Saue,
       S. P. A. Sauer, B. Schimmelpfennig, K. Sneskov,
       A. H. Steindal, K. O. Sylvester-Hvid, P. R. Taylor,
       A. M. Teale, E. I. Tellgren, D. P. Tew, A. J. Thorvaldsen,
       L. Thoegersen, O. Vahtras, M. A. Watson, D. J. D. Wilson,
       M. Ziolkowski and H. Aagren,
       "The Dalton quantum chemistry program system",
       WIREs Comput. Mol. Sci. 2013. (doi: 10.1002/wcms.1172)
    
    and
    
       Dalton, a Molecular Electronic Structure Program,
       Release DALTON2013.2 (2013), see http://daltonprogram.org
   ----------------------------------------------------------------------------

    Authors in alphabetical order (major contribution(s) in parenthesis):

  Kestutis Aidas,           Vilnius University,           Lithuania   (QM/MM)
  Celestino Angeli,         University of Ferrara,        Italy       (NEVPT2)
  Keld L. Bak,              UNI-C,                        Denmark     (AOSOPPA, non-adiabatic coupling, magnetic properties)
  Vebjoern Bakken,          University of Oslo,           Norway      (DALTON; geometry optimizer, symmetry detection)
  Radovan Bast,             KTH Stockholm,                Sweden      (DALTON installation and execution frameworks)
  Linus Boman,              NTNU,                         Norway      (Cholesky decomposition and subsystems)
  Ove Christiansen,         Aarhus University,            Denmark     (CC module)
  Renzo Cimiraglia,         University of Ferrara,        Italy       (NEVPT2)
  Sonia Coriani,            University of Trieste,        Italy       (CC module, MCD in RESPONS)
  Paal Dahle,               University of Oslo,           Norway      (Parallelization)
  Erik K. Dalskov,          UNI-C,                        Denmark     (SOPPA)
  Thomas Enevoldsen,        Univ. of Southern Denmark,    Denmark     (SOPPA)
  Janus J. Eriksen,         Aarhus University,            Denmark     (PE-MP2/SOPPA, TDA)
  Berta Fernandez,          U. of Santiago de Compostela, Spain       (doublet spin, ESR in RESPONS)
  Lara Ferrighi,            Aarhus University,            Denmark     (PCM Cubic response)
  Heike Fliegl,             University of Oslo,           Norway      (CCSD(R12))
  Luca Frediani,            UiT The Arctic U. of Norway,  Norway      (PCM)
  Bin Gao,                  UiT The Arctic U. of Norway,  Norway      (Gen1Int library)
  Christof Haettig,         Ruhr-University Bochum,       Germany     (CC module)
  Kasper Hald,              Aarhus University,            Denmark     (CC module)
  Asger Halkier,            Aarhus University,            Denmark     (CC module)
  Hanne Heiberg,            University of Oslo,           Norway      (geometry analysis, selected one-electron integrals)
  Trygve Helgaker,          University of Oslo,           Norway      (DALTON; ABACUS, ERI, DFT modules, London, and much more)
  Alf Christian Hennum,     University of Oslo,           Norway      (Parity violation)
  Hinne Hettema,            University of Auckland,       New Zealand (quadratic response in RESPONS; SIRIUS supersymmetry)
  Eirik Hjertenaes,         NTNU,                         Norway      (Cholesky decomposition)
  Maria Francesca Iozzi,    University of Oslo,           Norway      (RPA)
  Brano Jansik              Technical Univ. of Ostrava    Czech Rep.  (DFT cubic response)
  Hans Joergen Aa. Jensen,  Univ. of Southern Denmark,    Denmark     (DALTON; SIRIUS, RESPONS, ABACUS modules, London, and much more)
  Dan Jonsson,              UiT The Arctic U. of Norway,  Norway      (cubic response in RESPONS module)
  Poul Joergensen,          Aarhus University,            Denmark     (RESPONS, ABACUS, and CC modules)
  Joanna Kauczor,           Linkoeping University,        Sweden      (Complex polarization propagator (CPP) module)
  Sheela Kirpekar,          Univ. of Southern Denmark,    Denmark     (Mass-velocity & Darwin integrals)
  Wim Klopper,              KIT Karlsruhe,                Germany     (R12 code in CC, SIRIUS, and ABACUS modules)
  Stefan Knecht,            ETH Zurich,                   Switzerland (Parallel CI and MCSCF)
  Rika Kobayashi,           Australian National Univ.,    Australia   (DIIS in CC, London in MCSCF)
  Henrik Koch,              NTNU,                         Norway      (CC module, Cholesky decomposition)
  Jacob Kongsted,           Univ. of Southern Denmark,    Denmark     (Polarizable embedding, QM/MM)
  Andrea Ligabue,           University of Modena,         Italy       (CTOCD, AOSOPPA)
  Ola B. Lutnaes,           University of Oslo,           Norway      (DFT Hessian)
  Juan I. Melo,             University of Buenos Aires,   Argentina   (LRESC, Relativistic Effects on NMR Shieldings)
  Kurt V. Mikkelsen,        University of Copenhagen,     Denmark     (MC-SCRF and QM/MM)
  Rolf H. Myhre,            NTNU,                         Norway      (Cholesky, subsystems and ECC2)
  Christian Neiss,          Univ. Erlangen-Nuernberg,     Germany     (CCSD(R12))
  Christian B. Nielsen,     University of Copenhagen,     Denmark     (QM/MM)
  Patrick Norman,           Linkoeping University,        Sweden      (Cubic response and complex response in RESPONS)
  Jeppe Olsen,              Aarhus University,            Denmark     (SIRIUS CI/density modules)
  Jogvan Magnus H. Olsen,   Univ. of Southern Denmark,    Denmark     (Polarizable embedding, PE library, QM/MM)
  Anders Osted,             Copenhagen University,        Denmark     (QM/MM)
  Martin J. Packer,         University of Sheffield,      UK          (SOPPA)
  Filip Pawlowski,          Kazimierz Wielki University,  Poland      (CC3)
  Thomas B. Pedersen,       University of Oslo,           Norway      (Cholesky decomposition)
  Patricio F. Provasi,      University of Northeastern,   Argentina   (Analysis of coupling constants in localized orbitals)
  Zilvinas Rinkevicius,     KTH Stockholm,                Sweden      (open-shell DFT, ESR)
  Elias Rudberg,            KTH Stockholm,                Sweden      (DFT grid and basis info)
  Torgeir A. Ruden,         University of Oslo,           Norway      (Numerical derivatives in ABACUS)
  Kenneth Ruud,             UiT The Arctic U. of Norway,  Norway      (DALTON; ABACUS magnetic properties and  much more)
  Pawel Salek,              KTH Stockholm,                Sweden      (DALTON; DFT code)
  Claire C. M. Samson       University of Karlsruhe       Germany     (Boys localization, r12 integrals in ERI)
  Alfredo Sanchez de Meras, University of Valencia,       Spain       (CC module, Cholesky decomposition)
  Trond Saue,               Paul Sabatier University,     France      (direct Fock matrix construction)
  Stephan P. A. Sauer,      University of Copenhagen,     Denmark     (SOPPA(CCSD), SOPPA prop., AOSOPPA, vibrational g-factors)
  Bernd Schimmelpfennig,    Forschungszentrum Karlsruhe,  Germany     (AMFI module)
  Kristian Sneskov,         Aarhus University,            Denmark     (QM/MM, PE-CC)
  Arnfinn H. Steindal,      UiT The Arctic U. of Norway,  Norway      (parallel QM/MM)
  K. O. Sylvester-Hvid,     University of Copenhagen,     Denmark     (MC-SCRF)
  Peter R. Taylor,          VLSCI/Univ. of Melbourne,     Australia   (Symmetry handling ABACUS, integral transformation)
  Andrew M. Teale,          University of Nottingham,     England     (DFT-AC, DFT-D)
  David P. Tew,             University of Bristol,        England     (CCSD(R12))
  Olav Vahtras,             KTH Stockholm,                Sweden      (triplet response, spin-orbit, ESR, TDDFT, open-shell DFT)
  David J. Wilson,          La Trobe University,          Australia   (DFT Hessian and DFT magnetizabilities)
  Hans Agren,               KTH Stockholm,                Sweden      (SIRIUS module, RESPONS, MC-SCRF solvation model)
 --------------------------------------------------------------------------------

     Date and time (Linux)  : Wed Mar 26 09:44:00 2014
     Host name              : c29-3.local                             

 * Work memory size             :    64000000 =  488.28 megabytes.

 * Directories for basis set searches:
   1) /home/arnfinn/dalton/DALTON/test/runtest_walk_vibave
   2) /home/arnfinn/dalton/build-master/basis


Compilation information
-----------------------

 Who compiled             | arnfinn
 Host                     | c30-6.local
 System                   | Linux-2.6.32-358.6.2.el6.x86_64
 CMake generator          | Unix Makefiles
 Processor                | x86_64
 64-bit integers          | OFF
 MPI                      | ON
 Fortran compiler         | /global/apps/openmpi/1.6.2/intel/13.0/bin/mpif90
 Fortran compiler version | ifort (IFORT) 13.0.1 20121010
 C compiler               | /global/apps/openmpi/1.6.2/intel/13.0/bin/mpicc
 C compiler version       | icc (ICC) 13.0.1 20121010
 C++ compiler             | /global/apps/openmpi/1.6.2/intel/13.0/bin/mpicxx
 C++ compiler version     | unknown
 BLAS                     | /global/apps/intel/2013.1/mkl/lib/intel64/libmkl_i
                          | ntel_lp64.so;/global/apps/intel/2013.1/mkl/lib/int
                          | el64/libmkl_sequential.so;/global/apps/intel/2013.
                          | 1/mkl/lib/intel64/libmkl_core.so;/usr/lib64/libpth
                          | read.so;/usr/lib64/libm.so
 LAPACK                   | /global/apps/intel/2013.1/mkl/lib/intel64/libmkl_l
                          | apack95_lp64.a;/global/apps/intel/2013.1/mkl/lib/i
                          | ntel64/libmkl_intel_lp64.so
 Static linking           | OFF
 Last Git revision        | b0e4325bcfb85390cb72038da88207bdf2835688
 Git branch               | master
 Configuration time       | 2014-03-25 10:12:27.117227

 * Sequential calculation using 1 CPU


   Content of the .dal input file
 ----------------------------------

**DALTON INPUT                                    
.WALK                                             
*WALK                                             
.NOORTH                                           
.VIBAVE                                           
.DISPLAC                                          
 0.05                                             
.ECKART                                           
N          0.6037353032            0.0000000000   
H         -0.2012451011            0.8886984766   
H         -0.2012451011            0.8886984766   
H         -0.2012451011           -1.7773969533   
**WAVE FUNCTIONS                                  
.HF                                               
*SCF INPUT                                        
.THRESH                                           
2.0D-9                                            
**START                                           
.SHIELD                                           
.MAGNET                                           
.POLARI                                           
*LINRES                                           
.THRESH                                           
1.0D-7                                            
**EACH STEP                                       
.PRINT                                            
 0                                                
.SHIELD                                           
.MAGNET                                           
.POLARI                                           
*LINRES                                           
.THRESH                                           
1.0D-7                                            
**END OF DALTON INPUT                             


   Content of the .mol file
 ----------------------------

BASIS                                                                          
STO-3G                                                                         
Vibrational averaging of shieldings, magnetizabilities and polarizabilities    
                                                                               
Atomtypes=2 Nosymmetry                                                         
Charge=7.0 Atoms=1                                                             
N          0.6023400            0.00000000              0.00000000             
Charge=1.0 Atoms=3                                                             
H         -0.1947831            0.899791                1.558484               
H         -0.1947831            0.899791               -1.558484               
H         -0.1947831           -1.7995826090           -0.000000               


       *******************************************************************
       *********** Output from DALTON general input processing ***********
       *******************************************************************

 --------------------------------------------------------------------------------
   Overall default print level:    0
   Print level for DALTON.STAT:    1

@   Geometry optimization
      Starting at iteration:    0
      Maximum number of steps:   20
    "Old" integral transformation used (limited to max 255 basis functions)
 --------------------------------------------------------------------------------


                .-------------------------------------------------.
                | Commencing geometry optimization based on .WALK |
                `-------------------------------------------------'



     @@>>>>>>>>>> Geometry walk iteration number:    0 <<<<<<<<<<




   ****************************************************************************
   *************** Output of molecule and basis set information ***************
   ****************************************************************************


    The two title cards from your ".mol" input:
    ------------------------------------------------------------------------
 1: Vibrational averaging of shieldings, magnetizabilities and polarizabilit
 2:                                                                         
    ------------------------------------------------------------------------

  Atomic type no.    1
  --------------------
  Nuclear charge:   7.00000
  Number of symmetry independent centers:    1
  Number of basis sets to read;    2
  Basis set file used for this atomic type with Z =   7 :
     "/home/arnfinn/dalton/build-master/basis/STO-3G"

  Atomic type no.    2
  --------------------
  Nuclear charge:   1.00000
  Number of symmetry independent centers:    3
  Number of basis sets to read;    2
  Basis set file used for this atomic type with Z =   1 :
     "/home/arnfinn/dalton/build-master/basis/STO-3G"


                         SYMGRP: Point group information
                         -------------------------------

Point group: C1 


                                 Isotopic Masses
                                 ---------------

                           N          14.003074
                           H           1.007825
                           H           1.007825
                           H           1.007825

                       Total mass:    17.026549 amu
                       Natural abundance:  99.585 %

 Center-of-mass coordinates (a.u.):    0.460792   -0.000000    0.000000


  Atoms and basis sets
  --------------------

  Number of atom types :    2
  Total number of atoms:    4

  Basis set used is "STO-3G" from the basis set library.

  label    atoms   charge   prim   cont     basis
  ----------------------------------------------------------------------
  N           1    7.0000    15     5      [6s3p|2s1p]                                        
  H           3    1.0000     3     1      [3s|1s]                                            
  ----------------------------------------------------------------------
  total:      4   10.0000    24     8
  ----------------------------------------------------------------------

  Threshold for neglecting AO integrals:  1.00D-12


  Cartesian Coordinates (a.u.)
  ----------------------------

  Total number of coordinates:   12
  N       :     1  x   0.6023400000    2  y   0.0000000000    3  z   0.0000000000
  H       :     4  x  -0.1947831000    5  y   0.8997910000    6  z   1.5584840000
  H       :     7  x  -0.1947831000    8  y   0.8997910000    9  z  -1.5584840000
  H       :    10  x  -0.1947831000   11  y  -1.7995826090   12  z   0.0000000000


   Interatomic separations (in Angstrom):
   --------------------------------------

            N           H           H           H     
            ------      ------      ------      ------
 N     :    0.000000
 H     :    1.041539    0.000000
 H     :    1.041539    1.649428    0.000000
 H     :    1.041539    1.649428    1.649428    0.000000


  Max    interatomic separation is    1.6494 Angstrom (    3.1170 Bohr)
  between atoms    4 and    2, "H     " and "H     ".

  Min HX interatomic separation is    1.0415 Angstrom (    1.9682 Bohr)


  Bond distances (Angstrom):
  --------------------------

                  atom 1     atom 2       distance
                  ------     ------       --------
  bond distance:  H          N            1.041539
  bond distance:  H          N            1.041539
  bond distance:  H          N            1.041539


  Bond angles (degrees):
  ----------------------

                  atom 1     atom 2     atom 3         angle
                  ------     ------     ------         -----
  bond angle:     H          N          H            104.712
  bond angle:     H          N          H            104.712
  bond angle:     H          N          H            104.712




 Principal moments of inertia (u*A**2) and principal axes
 --------------------------------------------------------

   IA       1.813393          0.000000    1.000000    0.000000
   IB       1.813393          0.000000    0.000000    1.000000
   IC       2.741903          1.000000   -0.000000    0.000000


 Rotational constants
 --------------------

               A                   B                   C

         278692.4386         278692.4170         184316.8732 MHz
            9.296179            9.296178            6.148149 cm-1


@  Nuclear repulsion energy :   11.631996297964 Hartree


                     .---------------------------------------.
                     | Starting in Integral Section (HERMIT) |
                     `---------------------------------------'



     ************************************************************************
     ************************** Output from HERINT **************************
     ************************************************************************


 Threshold for neglecting two-electron integrals:  1.00D-12
 Number of two-electron integrals written:         538 ( 80.8% )
 Megabytes written:                              0.007

 >>>> Total CPU  time used in HERMIT:   0.01 seconds
 >>>> Total wall time used in HERMIT:   0.02 seconds


                        .----------------------------------.
                        | End of Integral Section (HERMIT) |
                        `----------------------------------'



                   .--------------------------------------------.
                   | Starting in Wave Function Section (SIRIUS) |
                   `--------------------------------------------'


 *** Output from Huckel module :

     Using EWMO model:          T
     Using EHT  model:          F
     Number of Huckel orbitals each symmetry:    8

 EWMO - Energy Weighted Maximum Overlap - is a Huckel type method,
        which normally is better than Extended Huckel Theory.
 Reference: Linderberg and Ohrn, Propagators in Quantum Chemistry (Wiley, 1973)

 Huckel EWMO eigenvalues for symmetry :  1
          -15.673151      -1.517138      -0.705941      -0.705941      -0.547400
           -0.191835      -0.157397      -0.157397

 **********************************************************************
 *SIRIUS* a direct, restricted step, second order MCSCF program       *
 **********************************************************************

 
     Date and time (Linux)  : Wed Mar 26 09:44:00 2014
     Host name              : c29-3.local                             

 Title lines from ".mol" input file:
     Vibrational averaging of shieldings, magnetizabilities and polarizabilit
                                                                             

 Print level on unit LUPRI =   2 is   0
 Print level on unit LUW4  =   2 is   5

@    Restricted, closed shell Hartree-Fock calculation.

 Initial molecular orbitals are obtained according to
 ".MOSTART EWMO  " input option

     Wave function specification
     ============================
@    For the wave function of type :      >>> HF <<<
@    Number of closed shell electrons          10
@    Number of electrons in active shells       0
@    Total charge of the molecule               0

@    Spin multiplicity and 2 M_S                1         0
     Total number of symmetries                 1
@    Reference state symmetry                   1

     Orbital specifications
     ======================
     Abelian symmetry species          All |    1
                                       --- |  ---
@    Occupied SCF orbitals               5 |    5
     Secondary orbitals                  3 |    3
     Total number of orbitals            8 |    8
     Number of basis functions           8 |    8

     Optimization information
     ========================
@    Number of configurations                 1
@    Number of orbital rotations             15
     ------------------------------------------
@    Total number of variables               16

     Maximum number of Fock   iterations      0
     Maximum number of DIIS   iterations     60
     Maximum number of QC-SCF iterations     60
     Threshold for SCF convergence     2.00D-09


 *********************************************
 ***** DIIS optimization of Hartree-Fock *****
 *********************************************

 C1-DIIS algorithm; max error vectors =    8

 Iter      Total energy        Error norm    Delta(E)  DIIS dim.
 -----------------------------------------------------------------------------
     (Precalculated two-electron integrals are transformed to P-supermatrix elements.
      Threshold for discarding integrals :  1.00D-12 )
@  1    -55.4094080067        7.35026D-01   -5.54D+01    1
      Virial theorem: -V/T =      2.011142
@      MULPOP N      -0.30; H       0.10; H       0.10; H       0.10; 
 -----------------------------------------------------------------------------
@  2    -55.4524062973        1.58118D-01   -4.30D-02    2
      Virial theorem: -V/T =      2.008357
@      MULPOP N      -0.43; H       0.14; H       0.14; H       0.14; 
 -----------------------------------------------------------------------------
@  3    -55.4550921505        1.77488D-02   -2.69D-03    3
      Virial theorem: -V/T =      2.007622
@      MULPOP N      -0.43; H       0.14; H       0.14; H       0.14; 
 -----------------------------------------------------------------------------
@  4    -55.4551191273        1.55605D-03   -2.70D-05    4
      Virial theorem: -V/T =      2.007345
@      MULPOP N      -0.43; H       0.14; H       0.14; H       0.14; 
 -----------------------------------------------------------------------------
@  5    -55.4551193295        1.17470D-04   -2.02D-07    5
      Virial theorem: -V/T =      2.007366
@      MULPOP N      -0.43; H       0.14; H       0.14; H       0.14; 
 -----------------------------------------------------------------------------
@  6    -55.4551193325        4.58469D-06   -2.91D-09    6
      Virial theorem: -V/T =      2.007367
@      MULPOP N      -0.43; H       0.14; H       0.14; H       0.14; 
 -----------------------------------------------------------------------------
@  7    -55.4551193325        1.08144D-07   -4.55D-12    7
      Virial theorem: -V/T =      2.007367
@      MULPOP N      -0.43; H       0.14; H       0.14; H       0.14; 
 -----------------------------------------------------------------------------
@  8    -55.4551193325        1.15659D-08    0.00D+00    8
      Virial theorem: -V/T =      2.007367
@      MULPOP N      -0.43; H       0.14; H       0.14; H       0.14; 
 -----------------------------------------------------------------------------
@  9    -55.4551193325        1.52458D-09    0.00D+00    8

@ *** DIIS converged in   9 iterations !
@     Converged SCF energy, gradient:    -55.455119332458    1.52D-09
    - total time used in SIRFCK :              0.00 seconds


 *** SCF orbital energy analysis ***

 Only the five lowest virtual orbital energies printed in each symmetry.

 Number of electrons :   10
 Orbital occupations :    5

 Sym       Hartree-Fock orbital energies

  1    -15.31217099    -1.07994131    -0.55779777    -0.55779770    -0.35577002
         0.61299392     0.69342301     0.69342316

    E(LUMO) :     0.61299392 au (symmetry 1)
  - E(HOMO) :    -0.35577002 au (symmetry 1)
  ------------------------------------------
    gap     :     0.96876394 au

 >>> Writing SIRIFC interface file

 >>>> CPU and wall time for SCF :       0.013       0.030


                       .-----------------------------------.
                       | >>> Final results from SIRIUS <<< |
                       `-----------------------------------'


@    Spin multiplicity:           1
@    Spatial symmetry:            1
@    Total charge of molecule:    0

@    Final HF energy:             -55.455119332458                 
@    Nuclear repulsion:            11.631996297964
@    Electronic energy:           -67.087115630421

@    Final gradient norm:           0.000000001525

 
     Date and time (Linux)  : Wed Mar 26 09:44:00 2014
     Host name              : c29-3.local                             

 (Only coefficients >0.0100 are printed.)

 Molecular orbitals for symmetry species  1
 ------------------------------------------

    Orbital         1        2        3        4        5        6        7
   1 N   :1s    -0.9935   0.2192   0.0000  -0.0000  -0.0946  -0.1793   0.0000
   2 N   :1s    -0.0310  -0.7429  -0.0000   0.0000   0.4754   1.1948  -0.0000
   3 N   :2px    0.0050   0.1369  -0.0000   0.0000   0.8731  -0.6025   0.0000
   4 N   :2py   -0.0000  -0.0000   0.0000  -0.5920   0.0000  -0.0000  -1.0298
   5 N   :2pz   -0.0000   0.0000   0.5920   0.0000   0.0000  -0.0000  -0.0000
   6 H   :1s     0.0064  -0.1594   0.4345  -0.2509  -0.1391  -0.6959   0.4831
   7 H   :1s     0.0064  -0.1594  -0.4345  -0.2509  -0.1391  -0.6959   0.4831
   8 H   :1s     0.0064  -0.1594  -0.0000   0.5017  -0.1391  -0.6959  -0.9662



 >>>> Total CPU  time used in SIRIUS :      0.02 seconds
 >>>> Total wall time used in SIRIUS :      0.05 seconds

 
     Date and time (Linux)  : Wed Mar 26 09:44:00 2014
     Host name              : c29-3.local                             


                     .---------------------------------------.
                     | End of Wave Function Section (SIRIUS) |
                     `---------------------------------------'



 Changes of defaults for WALK:
 -----------------------------


 Walk type: Numerical differentiation                 
 Vibrational averaging of  molecular properties at an effective geometry
 Molecular properties transformed to the following Eckart frame
 N          0.6037353032            0.0000000000            0.0000000000
 H         -0.2012451011            0.8886984766            1.5392709141
 H         -0.2012451011            0.8886984766           -1.5392709141
 H         -0.2012451011           -1.7773969533            0.0000000000




Maximum number of geometry steps reset in numerical differentiation to    25

 Predicted orbitals are not orthogonalized.




        *****************************************************************
        ******** Output from **START input processing for ABACUS ********
        *****************************************************************



 The following molecular properties will be calculated in this run:
 ------------------------------------------------------------------

 Default print level:        0

      The molecular gradient
      The molecular Hessian
      Geometry optimization
      Static polarizabilities
      Nuclear magnetic shieldings
      Magnetic susceptibilities
      Molecular rotational g-factor
      Natural orbital connection is used
      for perturbation dependent basis sets.


 Changes of defaults for LINRES:
 -------------------------------

 Singlet linear response module for properties
 as VCD, MAGSUS, SPIN-SPIN, SHIELD, SPINRO, MOLGFA
 Print level in LINRES        :    0
 Threshold in LINRES          : 1.00D-07
 Maximum iterations in LINRES :   60

 Center of mass dipole origin  :    0.460792   -0.000000    0.000000

 Center of mass gauge origin   :    0.460792   -0.000000    0.000000


 Changes of defaults for WALK:
 -----------------------------


 Walk type: Numerical differentiation                 
 Vibrational averaging of  molecular properties at an effective geometry
 Molecular properties transformed to the following Eckart frame
 N          0.6037353032            0.0000000000            0.0000000000
 H         -0.2012451011            0.8886984766            1.5392709141
 H         -0.2012451011            0.8886984766           -1.5392709141
 H         -0.2012451011           -1.7773969533            0.0000000000




Maximum number of geometry steps reset in numerical differentiation to    25

 Predicted orbitals are not orthogonalized.




                 .------------------------------------------------.
                 | Starting in Static Property Section (ABACUS) - |
                 `------------------------------------------------'


 
     Date and time (Linux)  : Wed Mar 26 09:44:00 2014
     Host name              : c29-3.local                             

 (ORTBVC) new orbital b-vector no.  7
 is removed because of linear dependence;
 norm of vector after Gram-Schmidt's orthogonalization 3.02318D-15

 (ORTBVC) new orbital b-vector no.  8
 is removed because of linear dependence;
 norm of vector after Gram-Schmidt's orthogonalization 1.29411D-15

 (ORTBVC) new orbital b-vector no.  9
 is removed because of linear dependence;
 norm of vector after Gram-Schmidt's orthogonalization 1.35499D-15

 (ORTBVC) NBOSIM reduced from  9 to  6

 Integral transformation: Total CPU and WALL times (sec)       0.003       0.009

    Convergence for MAGFLD.1. Last residual and threshold:   0.00000   0.00000

    Convergence for MAGFLD.2. Last residual and threshold:   0.00000   0.00000

    Convergence for MAGFLD.3. Last residual and threshold:   0.00000   0.00000

 Largest deviation from tra-rot symmetry is in gradient element  1:  7.48E-10


   ***************************************************************************
   ************************ FINAL RESULTS from ABACUS ************************
   ***************************************************************************


 
     Date and time (Linux)  : Wed Mar 26 09:44:00 2014
     Host name              : c29-3.local                             


                             Molecular geometry (au)
                             -----------------------

 N          0.6023400000            0.0000000000            0.0000000000
 H         -0.1947831000            0.8997910000            1.5584840000
 H         -0.1947831000            0.8997910000           -1.5584840000
 H         -0.1947831000           -1.7995826090            0.0000000000





                        Molecular wave function and energy
                        ----------------------------------

     Spin multiplicity  1     State number       1     Total charge       0

     Total energy        -55.4551193325 au (Hartrees)
                         -1509.01055856 eV
                           -145597.3934 kJ/mol


                             Relativistic corrections
                             ------------------------

     Darwin correction:                          0.0743112650 au
     Mass-velocity correction:                  -0.0948899294 au

     Total relativistic correction:             -0.0205786644 au (0.0371%)
     Non-relativistic + relativistic energy:   -55.4756979969 au




                             Molecular gradient (au)
                             -----------------------

 N          0.0066654956            0.0000001903            0.0000000000
 H         -0.0022218039            0.0048823768            0.0084565466
 H         -0.0022218039            0.0048823769           -0.0084565466
 H         -0.0022218878           -0.0097649440           -0.0000000001





                              Molecular Hessian (au)
                              ----------------------

           N    x      N    y      N    z      H    x      H    y      H    z

 N    x    0.322801
 N    y   -0.000000    0.818605
 N    z   -0.000000    0.000000    0.818606

 H    x   -0.107600    0.119632    0.207209    0.110139
 H    y    0.066556   -0.186310   -0.149923   -0.087623    0.188306
 H    z    0.115278   -0.149923   -0.359427   -0.151768    0.168253    0.382587

 H    x   -0.107600    0.119632   -0.207209   -0.001269   -0.010942    0.030644
 H    y    0.066556   -0.186310    0.149923   -0.010942    0.014876   -0.028693
 H    z   -0.115278    0.149923   -0.359427   -0.030644    0.028693   -0.027454

 H    x   -0.107600   -0.239264    0.000000   -0.001269    0.032009    0.005846
 H    y   -0.133112   -0.445984    0.000000   -0.021067   -0.016871    0.010364
 H    z    0.000000    0.000000   -0.099752   -0.024797   -0.047023    0.004293


           H    x      H    y      H    z      H    x      H    y      H    z

 H    x    0.110139
 H    y   -0.087623    0.188306
 H    z    0.151768   -0.168253    0.382587

 H    x   -0.001269    0.032009   -0.005846    0.110139
 H    y   -0.021067   -0.016871   -0.010364    0.175246    0.479727
 H    z    0.024797    0.047023    0.004293   -0.000000   -0.000000    0.091165





                                  Dipole moment
                                  -------------

                 au               Debye          C m (/(10**-30)
              0.727956           1.850280           6.171871


                             Dipole moment components
                             ------------------------

                 au               Debye          C m (/(10**-30)

      x     -0.72795634        -1.85028035        -6.17187090
      y     -0.00000003        -0.00000008        -0.00000026
      z     -0.00000000        -0.00000000        -0.00000000


   Units:   1 a.u. =   2.54175 Debye 
            1 a.u. =   8.47835 (10**-30) C m (SI)




                           Static polarizabilities (au)
                           ----------------------------

                         Ex          Ey          Ez

            Ex       1.394985    0.000000    0.000000
            Ey       0.000000    5.719486   -0.000000
            Ez       0.000000   -0.000000    5.719485



                      Static polarizabilities (angstroms**3)
                      --------------------------------------

                         Ex          Ey          Ez

            Ex       0.206715    0.000000    0.000000
            Ey       0.000000    0.847540   -0.000000
            Ez       0.000000   -0.000000    0.847540



                +--------------------------------------------------+
                ! Principal values and axes of polarizability (au) !
                +--------------------------------------------------+



                value              x          y          z
             ---------------------------------------------

                5.7195          0.0000     1.0000    -0.0000
                5.7195          0.0000     0.0000     1.0000
                1.3950          1.0000    -0.0000    -0.0000


            Mean value:    4.2780        Anisotropy:    4.3245





   ****************************************************************************
   ************************ ABACUS - MAGNETIZABILITIES ************************
   ****************************************************************************


  Units:  JT**(-2)/(10**(-30))   (SI) 
          ppm cm**(3) mol**(-1)  (cgs)

 London orbitals (GIAOs) used.


  Magnetizabilities                    au          SI         cgs
  ---------------------------------------------------------------

  Isotropic magnetizability:      -3.2414   -255.7793    -15.4034
  Diamagnetic contribution:       -4.2616   -336.2815    -20.2514
  Paramagnetic contribution:       1.0202     80.5022      4.8480
  Parallel component:             -3.2237   -254.3866    -15.3195
  Perpendicular component:        -3.2502   -256.4757    -15.4453
  Anisotropy:                      0.0265      2.0891      0.1258

  Magnetizability is cylindrical.


  Principal values (au, SI, and cgs) and axes:
  --------------------------------------------

  khi_aa      -3.2237   -254.3866    -15.3195      1.0000    0.0000    0.0000
  khi_bb      -3.2502   -256.4757    -15.4453     -0.0000    0.0000    1.0000
  khi_cc      -3.2502   -256.4757    -15.4453     -0.0000    1.0000   -0.0000


                        Total magnetizability tensor (au)
                        ---------------------------------

                       Bx                  By                  Bz

  Bx        -3.223741675385      0.000000054620     -0.000000000000
  By         0.000000054620     -3.250215556125      0.000000000000
  Bz        -0.000000000000      0.000000000000     -3.250215503542



                     Diamagnetic magnetizability tensor (au)
                     ---------------------------------------

                       Bx                  By                  Bz

  Bx        -4.646703724762      0.000000083523     -0.000000000000
  By         0.000000083523     -4.068993450591      0.000000000000
  Bz        -0.000000000000      0.000000000000     -4.068993582226



                     Paramagnetic magnetizability tensor (au)
                     ----------------------------------------

                       Bx                  By                  Bz

  Bx         1.422962049377     -0.000000028903     -0.000000000000
  By        -0.000000028903      0.818777894466      0.000000000000
  Bz        -0.000000000000      0.000000000000      0.818778078685



 ****************************************************************************************
 ************************ ABACUS - MOLECULAR ROTATIONAL g-TENSOR ************************
 ****************************************************************************************


 London orbitals used.


 Principal moments of inertia (a.u.) and principal axes
 ------------------------------------------------------

   IA    6.475745          0.000000    1.000000    0.000000
   IB    6.475746          0.000000    0.000000    1.000000
   IC    9.791514          1.000000   -0.000000    0.000000


  Molecular rotational g-factor
  -----------------------------

 Isotropic g-tensor       :       0.45033304
 Nuclear contribution     :       0.98513149
 Electronic contribution  :      -0.10779888
 Parallel component:              0.41392167
 Perpendicular component:         0.46853872
 Anisotropy:                     -0.05461705

 Molecular rotational g-tensor is cylindrical.


  Molecular rotational g-tensor in principal axis system (a.u.):
  --------------------------------------------------------------

   A            0.46853876     -0.00000000     -0.00000001
   B           -0.00000000      0.46853869      0.00000000
   C           -0.00000002      0.00000000      0.41392167


  Nuclear contribution in principal axis system (a.u.):
  -----------------------------------------------------

   A            0.97796938      0.00000000      0.00000001
   B            0.00000000      0.97796938      0.00000000
   C            0.00000001      0.00000000      0.99945573


  Electronic contribution in principal axis system (a.u.):
  --------------------------------------------------------

   A           -0.09654749     -0.00000000     -0.00000001
   B           -0.00000000     -0.09654752     -0.00000000
   C           -0.00000002     -0.00000000     -0.13030162


  Diamagnetic contribution in principal axis system (a.u.):
  ---------------------------------------------------------

   A           -0.41288313     -0.00000000     -0.00000001
   B           -0.00000000     -0.41288317      0.00000000
   C           -0.00000001      0.00000000     -0.45523243


  ******************************************************************************
  ************************ ABACUS - CHEMICAL SHIELDINGS ************************
  ******************************************************************************



                 Shielding tensors in symmetry coordinates (ppm)
                 -----------------------------------------------

                       Bx             By             Bz

        N    x   290.43882558    -0.00000056     0.00000000
        N    y    -0.00000163   304.43965134     0.00000003
        N    z     0.00000000    -0.00000003   304.43960792

        H    x    27.65775054    -1.78299573    -3.08823968
        H    y    -2.48485982    31.72638184     4.92517929
        H    z    -4.30390444     4.92517946    37.41348878

        H    x    27.65775054    -1.78299573     3.08823968
        H    y    -2.48485982    31.72638184    -4.92517929
        H    z     4.30390444    -4.92517946    37.41348878

        H    x    27.65774624     3.56599021     0.00000000
        H    y     4.96971821    40.25703783     0.00000000
        H    z     0.00000000     0.00000000    28.88282629





  Chemical shielding for N     :
  ==============================


  Shielding constant:    299.7727 ppm
  Anisotropy:            -14.0008 ppm
  Asymmetry:               0.0000    

  S parameter:            14.0008 ppm
  A parameter:             0.0000 ppm


  Total shielding tensor (ppm):
  -----------------------------

                    Bx             By             Bz

  N      x   290.43882558    -0.00000056     0.00000000
  N      y    -0.00000163   304.43965134     0.00000003
  N      z     0.00000000    -0.00000003   304.43960792


  Diamagnetic and paramagnetic contributions (ppm):
  -------------------------------------------------

                 Bx         By         Bz            Bx         By         Bz

  N      x   421.1729     0.0000     0.0000     -130.7341    -0.0000     0.0000
  N      y     0.0000   412.1913     0.0000       -0.0000  -107.7516     0.0000
  N      z     0.0000    -0.0000   412.1913        0.0000    -0.0000  -107.7517

  Diamagnetic contribution:    415.185175         Paramagnetic:    -115.412480


  Antisymmetric and traceless symmetric parts (ppm):
  --------------------------------------------------

                 Bx         By         Bz            Bx         By         Bz

  N      x     0.0000     0.0000     0.0000       -9.3339    -0.0000     0.0000
  N      y    -0.0000     0.0000     0.0000       -0.0000     4.6670    -0.0000
  N      z    -0.0000    -0.0000     0.0000        0.0000    -0.0000     4.6669


  Principal values and axes:
  --------------------------

  N         304.439651  =  299.77  +   4.67:    -0.000000  1.000000 -0.000000
  N         304.439608  =  299.77  +   4.67:    -0.000000  0.000000  1.000000
  N         290.438826  =  299.77  -   9.33:     1.000000  0.000000 -0.000000


  Chemical shielding for H     :
  ==============================


  Shielding constant:     32.2659 ppm
  Anisotropy:             13.9511 ppm
  Asymmetry:               0.2725    

  S parameter:            14.1227 ppm
  A parameter:             0.7019 ppm


  Total shielding tensor (ppm):
  -----------------------------

                    Bx             By             Bz

  H      x    27.65775054    -1.78299573    -3.08823968
  H      y    -2.48485982    31.72638184     4.92517929
  H      z    -4.30390444     4.92517946    37.41348878


  Diamagnetic and paramagnetic contributions (ppm):
  -------------------------------------------------

                 Bx         By         Bz            Bx         By         Bz

  H      x    25.5889    -2.8384    -4.9163        2.0689     1.0554     1.8281
  H      y    -4.3618    29.9996     8.1724        1.8769     1.7268    -3.2472
  H      z    -7.5548     8.1724    39.4363        3.2509    -3.2472    -2.0228

  Diamagnetic contribution:     31.674922         Paramagnetic:       0.590952


  Antisymmetric and traceless symmetric parts (ppm):
  --------------------------------------------------

                 Bx         By         Bz            Bx         By         Bz

  H      x     0.0000     0.3509     0.6078       -4.6081    -2.1339    -3.6961
  H      y    -0.3509     0.0000    -0.0000       -2.1339    -0.5395     4.9252
  H      z    -0.6078     0.0000     0.0000       -3.6961     4.9252     5.1476


  Principal values and axes:
  --------------------------

  H          26.348183  =   32.27  -   5.92:     0.956007  0.146673  0.254045
  H          28.882828  =   32.27  -   3.38:     0.000000  0.866025 -0.500000
  H          41.566610  =   32.27  +   9.30:    -0.293345  0.478003  0.827926


  Chemical shielding for H     :
  ==============================


  Shielding constant:     32.2659 ppm
  Anisotropy:             13.9511 ppm
  Asymmetry:               0.2725    

  S parameter:            14.1227 ppm
  A parameter:             0.7019 ppm


  Total shielding tensor (ppm):
  -----------------------------

                    Bx             By             Bz

  H      x    27.65775054    -1.78299573     3.08823968
  H      y    -2.48485982    31.72638184    -4.92517929
  H      z     4.30390444    -4.92517946    37.41348878


  Diamagnetic and paramagnetic contributions (ppm):
  -------------------------------------------------

                 Bx         By         Bz            Bx         By         Bz

  H      x    25.5889    -2.8384     4.9163        2.0689     1.0554    -1.8281
  H      y    -4.3618    29.9996    -8.1724        1.8769     1.7268     3.2472
  H      z     7.5548    -8.1724    39.4363       -3.2509     3.2472    -2.0228

  Diamagnetic contribution:     31.674922         Paramagnetic:       0.590952


  Antisymmetric and traceless symmetric parts (ppm):
  --------------------------------------------------

                 Bx         By         Bz            Bx         By         Bz

  H      x     0.0000     0.3509    -0.6078       -4.6081    -2.1339     3.6961
  H      y    -0.3509     0.0000     0.0000       -2.1339    -0.5395    -4.9252
  H      z     0.6078    -0.0000     0.0000        3.6961    -4.9252     5.1476


  Principal values and axes:
  --------------------------

  H          26.348183  =   32.27  -   5.92:     0.956007  0.146673 -0.254045
  H          28.882828  =   32.27  -   3.38:     0.000000  0.866025  0.500000
  H          41.566610  =   32.27  +   9.30:     0.293345 -0.478003  0.827926


  Chemical shielding for H     :
  ==============================


  Shielding constant:     32.2659 ppm
  Anisotropy:             13.9511 ppm
  Asymmetry:               0.2725    

  S parameter:            14.1227 ppm
  A parameter:             0.7019 ppm


  Total shielding tensor (ppm):
  -----------------------------

                    Bx             By             Bz

  H      x    27.65774624     3.56599021     0.00000000
  H      y     4.96971821    40.25703783     0.00000000
  H      z     0.00000000     0.00000000    28.88282629


  Diamagnetic and paramagnetic contributions (ppm):
  -------------------------------------------------

                 Bx         By         Bz            Bx         By         Bz

  H      x    25.5888     5.6768     0.0000        2.0689    -2.1109    -0.0000
  H      y     8.7235    44.1546    -0.0000       -3.7538    -3.8976     0.0000
  H      z     0.0000     0.0000    25.2813       -0.0000     0.0000     3.6016

  Diamagnetic contribution:     31.674917         Paramagnetic:       0.590953


  Antisymmetric and traceless symmetric parts (ppm):
  --------------------------------------------------

                 Bx         By         Bz            Bx         By         Bz

  H      x     0.0000    -0.7019     0.0000       -4.6081     4.2679     0.0000
  H      y     0.7019     0.0000    -0.0000        4.2679     7.9912     0.0000
  H      z    -0.0000     0.0000     0.0000        0.0000     0.0000    -3.3830


  Principal values and axes:
  --------------------------

  H          26.348179  =   32.27  -   5.92:     0.956007 -0.293345  0.000000
  H          28.882826  =   32.27  -   3.38:    -0.000000 -0.000000  1.000000
  H          41.566605  =   32.27  +   9.30:     0.293345  0.956007  0.000000


                         +--------------------------------+
                         ! Summary of chemical shieldings !
                         +--------------------------------+

@1  Definitions from J. Mason, Solid state Nuc. Magn. Res. 2 (1993), 285

@1 London orbitals (GIAOs) has been used.

@1 atom   shielding       dia      para     skew      span     (aniso     asym)
@1 ----------------------------------------------------------------------------
@1 N       299.7727  415.1852 -115.4125   -1.0000   14.0008    7.0004    3.0000
@1 H        32.2659   31.6749    0.5910    0.6669   15.2184   13.9511    0.2725
@1 H        32.2659   31.6749    0.5910    0.6669   15.2184   13.9511    0.2725
@1 H        32.2659   31.6749    0.5910    0.6669   15.2184   13.9511    0.2725



                         +--------------------------------+
                         ! Summary of chemical shieldings !
                         +--------------------------------+

@2  Definitions from Smith, Palke, and Grieg, Concepts in Mag. Res. 4 (1992), 107

@2 London orbitals (GIAOs) has been used.

@2 atom   shielding       dia      para     aniso      asym        S        A
@2 ----------------------------------------------------------------------------
@2 N       299.7727  415.1852 -115.4125  -14.0008    0.0000   14.0008    0.0000
@2 H        32.2659   31.6749    0.5910   13.9511    0.2725   14.1227    0.7019
@2 H        32.2659   31.6749    0.5910   13.9511    0.2725   14.1227    0.7019
@2 H        32.2659   31.6749    0.5910   13.9511    0.2725   14.1227    0.7019



   Interatomic separations (in Angstrom):
   --------------------------------------

            N           H           H           H     
            ------      ------      ------      ------
 N     :    0.000000
 H     :    1.041539    0.000000
 H     :    1.041539    1.649428    0.000000
 H     :    1.041539    1.649428    1.649428    0.000000


  Max    interatomic separation is    1.6494 Angstrom (    3.1170 Bohr)
  between atoms    4 and    2, "H     " and "H     ".

  Min HX interatomic separation is    1.0415 Angstrom (    1.9682 Bohr)


  Bond distances (Angstrom):
  --------------------------

                  atom 1     atom 2       distance
                  ------     ------       --------
  bond distance:  H          N            1.041539
  bond distance:  H          N            1.041539
  bond distance:  H          N            1.041539


  Bond angles (degrees):
  ----------------------

                  atom 1     atom 2     atom 3         angle
                  ------     ------     ------         -----
  bond angle:     H          N          H            104.712
  bond angle:     H          N          H            104.712
  bond angle:     H          N          H            104.712




          +-------------------------------------------------------------+
          ! Generating normal coordinates for numerical differentiation !
          +-------------------------------------------------------------+



                                 Isotopic Masses
                                 ---------------

                           N          14.003074
                           H           1.007825
                           H           1.007825
                           H           1.007825

                       Total mass:    17.026549 amu
                       Natural abundance:  99.585 %

 Center-of-mass coordinates (a.u.):    0.460792   -0.000000    0.000000
  Norm of projected gradient     0.018582


                                 Isotopic Masses
                                 ---------------

                           N          14.003074
                           H           1.007825
                           H           1.007825
                           H           1.007825

                       Total mass:    17.026549 amu
                       Natural abundance:  99.585 %

 Center-of-mass coordinates (a.u.):    0.460792   -0.000000    0.000000
 (rotation in the xy-plane only; zeroing a redundant parameter)


       ********************************************************************
       ****************** ABACUS - VIBRATIONAL AVERAGING ******************
       ********************************************************************

 Energy at effective geometry:   -55.4551193325


  Analytical gradient at effective geometry
  -----------------------------------------


               Column   1     Column   2     Column   3     Column   4     Column   5
       1       0.00666550     0.00000019     0.00000000    -0.00222180     0.00488238

               Column   6     Column   7     Column   8     Column   9     Column  10
       1       0.00845655    -0.00222180     0.00488238    -0.00845655    -0.00222189

               Column  11     Column  12
       1      -0.00976494    -0.00000000
    ==== End of matrix output ====


  Analytical Hessian at effective geometry
  ----------------------------------------


               Column   1     Column   2     Column   3     Column   4     Column   5
       1       0.32280055    -0.00000022    -0.00000000    -0.10760023     0.06655595
       2      -0.00000022     0.81750872     0.00000000     0.12070495    -0.18594483
       3      -0.00000000     0.00000000     0.81750931     0.20906713    -0.14992317
       4      -0.10760023     0.12070495     0.20906713     0.10715493    -0.08798086
       5       0.06655595    -0.18594483    -0.14992317    -0.08798086     0.18682746
       6       0.11527830    -0.14992320    -0.35906131    -0.15238736     0.16903570
       7      -0.10760023     0.12070495    -0.20906713     0.00022265    -0.01129915
       8       0.06655595    -0.18594483     0.14992317    -0.01129915     0.01611060
       9      -0.11527830     0.14992320    -0.35906131    -0.03126294     0.02947651
      10      -0.10760009    -0.24140967     0.00000000     0.00022265     0.03272406
      11      -0.13311168    -0.44561906     0.00000000    -0.02142493    -0.01699323
      12       0.00000000     0.00000000    -0.09938668    -0.02541682    -0.04858904

               Column   6     Column   7     Column   8     Column   9     Column  10
       1       0.11527830    -0.10760023     0.06655595    -0.11527830    -0.10760009
       2      -0.14992320     0.12070495    -0.18594483     0.14992320    -0.24140967
       3      -0.35906131    -0.20906713     0.14992317    -0.35906131     0.00000000
       4      -0.15238736     0.00022265    -0.01129915    -0.03126294     0.00022265
       5       0.16903570    -0.01129915     0.01611060     0.02947651     0.03272406
       6       0.38201314     0.03126294    -0.02947651    -0.02802783     0.00584612
       7       0.03126294     0.10715493    -0.08798086     0.15238736     0.00022265
       8      -0.02947651    -0.08798086     0.18682746    -0.16903570     0.03272406
       9      -0.02802783     0.15238736    -0.16903570     0.38201314    -0.00584612
      10       0.00584612     0.00022265     0.03272406    -0.00584612     0.10715479
      11       0.01036400    -0.02142493    -0.01699323    -0.01036400     0.17596154
      12       0.00507601     0.02541682     0.04858904     0.00507601    -0.00000000

               Column  11     Column  12
       1      -0.13311168     0.00000000
       2      -0.44561906     0.00000000
       3       0.00000000    -0.09938668
       4      -0.02142493    -0.02541682
       5      -0.01699323    -0.04858904
       6       0.01036400     0.00507601
       7      -0.02142493     0.02541682
       8      -0.01699323     0.04858904
       9      -0.01036400     0.00507601
      10       0.17596154    -0.00000000
      11       0.47960553    -0.00000000
      12      -0.00000000     0.08923467
    ==== End of matrix output ====


  Dipole moment at effective geometry
  -----------------------------------


               Column   1     Column   2     Column   3
       1      -0.72795634     0.00000002    -0.00000000
    ==== End of matrix output ====


  Magnetizabilities at effective geometry
  ---------------------------------------

                       Bx                  By                  Bz

  Bx        -3.223741675385      0.000000052948     -0.000000000000
  By         0.000000052948     -3.250215556125      0.000000000000
  Bz        -0.000000000000      0.000000000000     -3.250215503542



  Rotational g tensor at effective geometry
  -----------------------------------------

                       Bx                  By                  Bz

  Bx         0.413921669860     -0.000000002855      0.000000000000
  By        -0.000000009477      0.468538761313     -0.000000000000
  Bz         0.000000000000     -0.000000000000      0.468538687799



  Chemical shielding tensors at effective geometry
  ------------------------------------------------

                  Bx             By             Bz

  N      x   290.43882558     0.00000032     0.00000000
  N      y    -0.00000074   304.43965134     0.00000003
  N      z     0.00000000    -0.00000003   304.43960792
                  Bx             By             Bz

  H      x    27.65775027    -1.78299547    -3.08823937
  H      y    -2.48485956    31.72638211     4.92517949
  H      z    -4.30390413     4.92517973    37.41348878
                  Bx             By             Bz

  H      x    27.65775027    -1.78299547     3.08823937
  H      y    -2.48485956    31.72638211    -4.92517949
  H      z     4.30390413    -4.92517973    37.41348878
                  Bx             By             Bz

  H      x    27.65774678     3.56599101     0.00000000
  H      y     4.96971900    40.25703729     0.00000000
  H      z     0.00000000     0.00000000    28.88282629


  Static polarizability at effective geometry
  -------------------------------------------

                       Ex                  Ey                  Ez

  Ex         1.394984784111      0.000000736570      0.000000000000
  Ey         0.000000736570      5.719486104219     -0.000000000000
  Ez         0.000000000000     -0.000000000000      5.719484860104



 CPU time statistics for ABACUS
 ------------------------------




 >>>> Total CPU  time used in ABACUS:   0.32 seconds
 >>>> Total wall time used in ABACUS:   0.41 seconds


                   .-------------------------------------------.
                   | End of Static Property Section (ABACUS) - |
                   `-------------------------------------------'


@  Geometry walk step no.   0:  Molecular energy =    -55.455119   Molecular gradient =  0.018582


     @@>>>>>>>>>> Geometry walk iteration number:    1 <<<<<<<<<<




 **************************************************************************************
 ****************** Output of molecule and basis set info suppressed ******************
 **************************************************************************************



                     .---------------------------------------.
                     | Starting in Integral Section (HERMIT) |
                     `---------------------------------------'


 Threshold for neglecting two-electron integrals:  1.00D-12
 Number of two-electron integrals written:         579 ( 86.9% )
 Megabytes written:                              0.007

 >>>> Total CPU  time used in HERMIT:   0.01 seconds
 >>>> Total wall time used in HERMIT:   0.01 seconds


                        .----------------------------------.
                        | End of Integral Section (HERMIT) |
                        `----------------------------------'



                   .--------------------------------------------.
                   | Starting in Wave Function Section (SIRIUS) |
                   `--------------------------------------------'


 **********************************************************************
 *SIRIUS* a direct, restricted step, second order MCSCF program       *
 **********************************************************************

 (Wave function specification suppressed here, see output above for initial geometry.)


 *********************************************
 ***** DIIS optimization of Hartree-Fock *****
 *********************************************

 C1-DIIS algorithm; max error vectors =    8

 Iter      Total energy        Error norm    Delta(E)  DIIS dim.
 -----------------------------------------------------------------------------
     (Precalculated two-electron integrals are transformed to P-supermatrix elements.
      Threshold for discarding integrals :  1.00D-12 )
@  1    -55.4543382755        1.95315D-02    7.81D-04    1
      Virial theorem: -V/T =      2.007335
@      MULPOP N      -0.43; H       0.14; H       0.15; H       0.14; 
 -----------------------------------------------------------------------------
@  2    -55.4543550060        2.97632D-03   -1.67D-05    2
      Virial theorem: -V/T =      2.007330
@      MULPOP N      -0.43; H       0.14; H       0.15; H       0.14; 
 -----------------------------------------------------------------------------
@  3    -55.4543562448        7.16192D-04   -1.24D-06    3
      Virial theorem: -V/T =      2.007332
@      MULPOP N      -0.43; H       0.14; H       0.15; H       0.14; 
 -----------------------------------------------------------------------------
@  4    -55.4543563302        9.87772D-05   -8.54D-08    4
      Virial theorem: -V/T =      2.007331
@      MULPOP N      -0.43; H       0.14; H       0.15; H       0.14; 
 -----------------------------------------------------------------------------
@  5    -55.4543563319        1.36890D-05   -1.70D-09    5
      Virial theorem: -V/T =      2.007332
@      MULPOP N      -0.43; H       0.14; H       0.15; H       0.14; 
 -----------------------------------------------------------------------------
@  6    -55.4543563320        3.48958D-06   -3.17D-11    6
      Virial theorem: -V/T =      2.007332
@      MULPOP N      -0.43; H       0.14; H       0.15; H       0.14; 
 -----------------------------------------------------------------------------
@  7    -55.4543563320        2.92191D-07   -2.12D-12    7
      Virial theorem: -V/T =      2.007332
@      MULPOP N      -0.43; H       0.14; H       0.15; H       0.14; 
 -----------------------------------------------------------------------------
@  8    -55.4543563320        5.33477D-08   -7.11D-14    8
      Virial theorem: -V/T =      2.007332
@      MULPOP N      -0.43; H       0.14; H       0.15; H       0.14; 
 -----------------------------------------------------------------------------
@  9    -55.4543563320        9.40934D-09    2.84D-14    8
      Virial theorem: -V/T =      2.007332
@      MULPOP N      -0.43; H       0.14; H       0.15; H       0.14; 
 -----------------------------------------------------------------------------
@ 10    -55.4543563320        1.36790D-09    0.00D+00    8

@ *** DIIS converged in  10 iterations !
@     Converged SCF energy, gradient:    -55.454356331983    1.37D-09
    - total time used in SIRFCK :              0.00 seconds


 *** SCF orbital energy analysis ***

 Only the five lowest virtual orbital energies printed in each symmetry.

 Number of electrons :   10
 Orbital occupations :    5

 Sym       Hartree-Fock orbital energies

  1    -15.31222474    -1.08022102    -0.56252021    -0.55305094    -0.35581205
         0.60986001     0.68303923     0.70751871

    E(LUMO) :     0.60986001 au (symmetry 1)
  - E(HOMO) :    -0.35581205 au (symmetry 1)
  ------------------------------------------
    gap     :     0.96567206 au

 >>> Writing SIRIFC interface file


 Check ratio for geometry walk with converged SCF :



 >>> step control for geometry walk (ABACUS interface)


 (SIRSTP) Close to convergence, ratio set to one.
 Energy difference; actual and predicted:    7.63000D-04    0.00000D+00


 *** GEOMETRY WALK STEP ACCEPTED.


 >>>> CPU and wall time for SCF :       0.014       0.031


                       .-----------------------------------.
                       | >>> Final results from SIRIUS <<< |
                       `-----------------------------------'


@    Spin multiplicity:           1
@    Spatial symmetry:            1
@    Total charge of molecule:    0

@    Final HF energy:             -55.454356331983                 
@    Nuclear repulsion:            11.634475417846
@    Electronic energy:           -67.088831749829

@    Final gradient norm:           0.000000001368

 
     Date and time (Linux)  : Wed Mar 26 09:44:00 2014
     Host name              : c29-3.local                             



 >>>> Total CPU  time used in SIRIUS :      0.02 seconds
 >>>> Total wall time used in SIRIUS :      0.04 seconds

 
     Date and time (Linux)  : Wed Mar 26 09:44:00 2014
     Host name              : c29-3.local                             


                     .---------------------------------------.
                     | End of Wave Function Section (SIRIUS) |
                     `---------------------------------------'



        *****************************************************************
        ******** Output from **EACH  input processing for ABACUS ********
        *****************************************************************



 The following molecular properties will be calculated in this run:
 ------------------------------------------------------------------

 Default print level:        0

      The molecular gradient
      Geometry optimization
      Static polarizabilities
      Nuclear magnetic shieldings
      Magnetic susceptibilities
      Molecular rotational g-factor
      Natural orbital connection is used
      for perturbation dependent basis sets.

 Center of mass dipole origin  :    0.460792   -0.000000    0.000000

 Center of mass gauge origin   :    0.460792   -0.000000    0.000000


                 .------------------------------------------------.
                 | Starting in Static Property Section (ABACUS) - |
                 `------------------------------------------------'


 
     Date and time (Linux)  : Wed Mar 26 09:44:00 2014
     Host name              : c29-3.local                             

 Integral transformation: Total CPU and WALL times (sec)       0.003       0.010

    Convergence for MAGFLD.1. Last residual and threshold:   0.00002   0.00010

    Convergence for MAGFLD.2. Last residual and threshold:   0.00002   0.00010

    Convergence for MAGFLD.3. Last residual and threshold:   0.00002   0.00010

 Largest deviation from tra-rot symmetry is in gradient element  1:  5.09E-10


   ***************************************************************************
   ************************ FINAL RESULTS from ABACUS ************************
   ***************************************************************************


 
     Date and time (Linux)  : Wed Mar 26 09:44:00 2014
     Host name              : c29-3.local                             


                             Molecular geometry (au)
                             -----------------------

 N          0.6023400000           -0.0000003588           -0.0038163860
 H         -0.2083445829            0.9153896798            1.5851663014
 H         -0.1812230894            0.8841939506           -1.5318046317
 H         -0.1947816278           -1.7995792538           -0.0003354638





                        Molecular wave function and energy
                        ----------------------------------

     Spin multiplicity  1     State number       1     Total charge       0

     Total energy        -55.4543563320 au (Hartrees)
                         -1508.98979627 eV
                           -145595.3901 kJ/mol


                             Relativistic corrections
                             ------------------------

     Darwin correction:                          0.0743113765 au
     Mass-velocity correction:                  -0.0948902652 au

     Total relativistic correction:             -0.0205788887 au (0.0371%)
     Non-relativistic + relativistic energy:   -55.4749352207 au




                             Molecular gradient (au)
                             -----------------------

 N          0.0058447773            0.0010201052           -0.0326197348
 H         -0.0101684603            0.0139843636            0.0240670761
 H          0.0065734157           -0.0052245296            0.0087676226
 H         -0.0022497328           -0.0097799392           -0.0002149639





                                  Dipole moment
                                  -------------

                 au               Debye          C m (/(10**-30)
              0.728052           1.850524           6.172683


                             Dipole moment components
                             ------------------------

                 au               Debye          C m (/(10**-30)

      x     -0.72804270        -1.85049985        -6.17260308
      y     -0.00009007        -0.00022894        -0.00076365
      z     -0.00370092        -0.00940681        -0.03137774


   Units:   1 a.u. =   2.54175 Debye 
            1 a.u. =   8.47835 (10**-30) C m (SI)




                           Static polarizabilities (au)
                           ----------------------------

                         Ex          Ey          Ez

            Ex       1.395827   -0.001434   -0.102287
            Ey      -0.001434    5.721200    0.165562
            Ez      -0.102287    0.165562    5.723410



                      Static polarizabilities (angstroms**3)
                      --------------------------------------

                         Ex          Ey          Ez

            Ex       0.206840   -0.000212   -0.015157
            Ey      -0.000212    0.847794    0.024534
            Ez      -0.015157    0.024534    0.848122



                +--------------------------------------------------+
                ! Principal values and axes of polarizability (au) !
                +--------------------------------------------------+



                value              x          y          z
             ---------------------------------------------

                5.8891         -0.0164     0.7022     0.7118
                5.5579          0.0170     0.7120    -0.7019
                1.3934          0.9997    -0.0006     0.0236


            Mean value:    4.2801        Anisotropy:    4.3396





   ****************************************************************************
   ************************ ABACUS - MAGNETIZABILITIES ************************
   ****************************************************************************


  Units:  JT**(-2)/(10**(-30))   (SI) 
          ppm cm**(3) mol**(-1)  (cgs)

 London orbitals (GIAOs) used.


  Magnetizabilities                    au          SI         cgs
  ---------------------------------------------------------------

  Isotropic magnetizability:      -3.2409   -255.7445    -15.4013
  Diamagnetic contribution:       -4.2618   -336.3031    -20.2527
  Paramagnetic contribution:       1.0209     80.5586      4.8514
  1st anisotropy:                 -0.0145     -1.1411     -0.0687
  2nd anisotropy:                  0.0269      2.1204      0.1277



  Principal values (au, SI, and cgs) and axes:
  --------------------------------------------

  khi_aa      -3.2492   -256.3974    -15.4406     -0.0498    0.9257   -0.3749
  khi_bb      -3.2230   -254.3310    -15.3162      0.9931    0.0061   -0.1167
  khi_cc      -3.2506   -256.5053    -15.4471      0.1058    0.3781    0.9197


                        Total magnetizability tensor (au)
                        ---------------------------------

                       Bx                  By                  Bz

  Bx        -3.223409512960      0.000105191718     -0.003169301430
  By         0.000105191718     -3.249417596252     -0.000494371664
  Bz        -0.003169301430     -0.000494371664     -3.250022831051



                     Diamagnetic magnetizability tensor (au)
                     ---------------------------------------

                       Bx                  By                  Bz

  Bx        -4.647057483935     -0.000127320260     -0.017083962264
  By        -0.000127320260     -4.069373961453      0.020800564837
  Bz        -0.017083962264      0.020800564837     -4.069080503227



                     Paramagnetic magnetizability tensor (au)
                     ----------------------------------------

                       Bx                  By                  Bz

  Bx         1.423647970975      0.000232511978      0.013914660834
  By         0.000232511978      0.819956365201     -0.021294936501
  Bz         0.013914660834     -0.021294936501      0.819057672176



 ****************************************************************************************
 ************************ ABACUS - MOLECULAR ROTATIONAL g-TENSOR ************************
 ****************************************************************************************


 London orbitals used.


 Principal moments of inertia (a.u.) and principal axes
 ------------------------------------------------------

   IA    6.378096         -0.017872    0.701033    0.712904
   IB    6.574077          0.018449    0.713128   -0.700791
   IC    9.795831          0.999670   -0.000628    0.025678


  Molecular rotational g-tensor
  -----------------------------

  Isotropic g-tensor       :       0.45011242
  Nuclear contribution     :       0.98512528
  Diamagnetic contribution :      -0.42701286
  Electronic contribution  :      -0.10800000
  1st anisotropy:                  0.03511217
  2nd anisotropy:                  0.01946394



  Molecular rotational g-tensor in principal axis system (a.u.):
  --------------------------------------------------------------

   A            0.47352054     -0.00017813     -0.00007279
   B           -0.00018361      0.46308838      0.00004665
   C           -0.00011179      0.00006952      0.41372834


  Nuclear contribution in principal axis system (a.u.):
  -----------------------------------------------------

   A            0.97765458     -0.00002932     -0.00052635
   B           -0.00003022      0.97830489      0.00052986
   C           -0.00080840      0.00078953      0.99941637


  Electronic contribution in principal axis system (a.u.):
  --------------------------------------------------------

   A           -0.09432560     -0.00015916     -0.00007444
   B           -0.00016405     -0.09921085      0.00004498
   C           -0.00011432      0.00006702     -0.13046354


  Diamagnetic contribution in principal axis system (a.u.):
  ---------------------------------------------------------

   A           -0.40980844      0.00001034      0.00052800
   B            0.00001066     -0.41600566     -0.00052818
   C            0.00081094     -0.00078703     -0.45522449


  ******************************************************************************
  ************************ ABACUS - CHEMICAL SHIELDINGS ************************
  ******************************************************************************



                 Shielding tensors in symmetry coordinates (ppm)
                 -----------------------------------------------

                       Bx             By             Bz

        N    x   290.39406921    -0.01448000    -0.83629485
        N    y    -0.00490539   304.23041113     3.63294012
        N    z    -1.21243320     3.63259284   304.40011153

        H    x    27.33581636    -1.72888362    -3.01144998
        H    y    -2.42469506    31.47410532     4.80111611
        H    z    -4.20479824     4.77857444    36.84442121

        H    x    27.99519126    -1.83254470     3.16299604
        H    y    -2.54498526    31.98364326    -5.04532928
        H    z     4.39914505    -5.05957145    37.99641289

        H    x    27.65745484     3.56329842    -0.01415671
        H    y     4.96705869    40.24453487     0.12798726
        H    z    -0.00692022     0.16522872    28.88063224





  Chemical shielding for N     :
  ==============================


  Shielding constant:    299.6749 ppm
  Anisotropy:            -14.0404 ppm
  Asymmetry:               0.7746    

  S parameter:            15.3805 ppm
  A parameter:             0.1881 ppm


  Total shielding tensor (ppm):
  -----------------------------

                    Bx             By             Bz

  N      x   290.39406921    -0.01448000    -0.83629485
  N      y    -0.00490539   304.23041113     3.63294012
  N      z    -1.21243320     3.63259284   304.40011153


  Diamagnetic and paramagnetic contributions (ppm):
  -------------------------------------------------

                 Bx         By         Bz            Bx         By         Bz

  N      x   421.1667    -0.0059     0.0501     -130.7726    -0.0086    -0.8864
  N      y    -0.0017   412.1754     0.2279       -0.0032  -107.9450     3.4050
  N      z     0.0509     0.2278   412.1865       -1.2633     3.4048  -107.7864

  Diamagnetic contribution:    415.176219         Paramagnetic:    -115.501355


  Antisymmetric and traceless symmetric parts (ppm):
  --------------------------------------------------

[...]
 CZ        0.46853869           -0.00362535            0.46491334


                    Nuclear magnetic shielding constants (ppm)
                    ------------------------------------------


Atom : N     
    Effective geometry       <P^(0)_2>_eff      Vibrationally corrected
 -----------------------------------------------------------------------

 Bxmx      290.43882558            0.66159388          291.10041946
 Bymx        0.00000032            0.00150389            0.00150421
 Bzmx        0.00000000            0.00000565            0.00000565
 Bxmy       -0.00000074            0.00235277            0.00235202
 Bymy      304.43965134           -2.05896227          302.38068907
 Bzmy        0.00000003           -0.00003273           -0.00003270
 Bxmz        0.00000000           -0.00000620           -0.00000620
 Bymz       -0.00000003            0.00004344            0.00004341
 Bzmz      304.43960792           -2.05718049          302.38242743

Atom : H     
    Effective geometry       <P^(0)_2>_eff      Vibrationally corrected
 -----------------------------------------------------------------------

 Bxmx       27.65775027           -0.05642214           27.60132812
 Bymx       -1.78299547            0.04241984           -1.74057563
 Bzmx       -3.08823937            0.07256011           -3.01567926
 Bxmy       -2.48485956            0.02721487           -2.45764469
 Bymy       31.72638211           -0.10127980           31.62510231
 Bzmy        4.92517949           -0.05731735            4.86786214
 Bxmz       -4.30390413            0.04728987           -4.25661425
 Bymz        4.92517973           -0.05823377            4.86694596
 Bzmz       37.41348878           -0.16919951           37.24428926

Atom : H     
    Effective geometry       <P^(0)_2>_eff      Vibrationally corrected
 -----------------------------------------------------------------------

 Bxmx       27.65775027           -0.05642245           27.60132782
 Bymx       -1.78299547            0.04242056           -1.74057491
 Bzmx        3.08823937           -0.07255982            3.01567955
 Bxmy       -2.48485956            0.02721531           -2.45764425
 Bymy       31.72638211           -0.10128227           31.62509985
 Bzmy       -4.92517949            0.05731844           -4.86786105
 Bxmz        4.30390413           -0.04729023            4.25661390
 Bymz       -4.92517973            0.05823570           -4.86694403
 Bzmz       37.41348878           -0.16919736           37.24429142

Atom : H     
    Effective geometry       <P^(0)_2>_eff      Vibrationally corrected
 -----------------------------------------------------------------------

 Bxmx       27.65774678           -0.05636937           27.60137741
 Bymx        3.56599101           -0.08482498            3.48116603
 Bzmx        0.00000000           -0.00000048           -0.00000048
 Bxmy        4.96971900           -0.05441080            4.91530821
 Bymy       40.25703729           -0.20192898           40.05510832
 Bzmy        0.00000000           -0.00000106           -0.00000106
 Bxmz        0.00000000            0.00000020            0.00000020
 Bymz        0.00000000           -0.00000173           -0.00000173
 Bzmz       28.88282629           -0.06722673           28.81559957


                           Static polarizabilities (au)
                           ----------------------------


    Effective geometry       <P^(0)_2>_eff      Vibrationally corrected
 -----------------------------------------------------------------------

 XX        1.39498478            0.08415278            1.47913757
 XY        0.00000074            0.00000042            0.00000116
 XZ        0.00000000           -0.00000000           -0.00000000
 YY        5.71948610            0.12045231            5.83993841
 YZ       -0.00000000           -0.00000000           -0.00000000
 ZZ        5.71948486            0.12045924            5.83994410

 Numerical differentiation complete.


 CPU time statistics for ABACUS
 ------------------------------

 REST       00:00:01     392 %



 >>>> Total CPU  time used in ABACUS:   0.33 seconds
 >>>> Total wall time used in ABACUS:   0.49 seconds


                   .-------------------------------------------.
                   | End of Static Property Section (ABACUS) - |
                   `-------------------------------------------'


@  Geometry walk step no.  12:  Molecular energy =    -55.455112   Molecular gradient =  0.021446


                      .-------------------------------------.
                      | Nummerical differentiation finished |
                      `-------------------------------------'



   ****************************************************************************
   *************** Output of molecule and basis set information ***************
   ****************************************************************************


    The two title cards from your ".mol" input:
    ------------------------------------------------------------------------
 1: Vibrational averaging of shieldings, magnetizabilities and polarizabilit
 2:                                                                         
    ------------------------------------------------------------------------

  Atomic type no.    1
  --------------------
  Nuclear charge:   7.00000
  Number of symmetry independent centers:    1
  Number of basis sets to read;    1
  Basis set file used for this atomic type with Z =   7 :
     "/home/arnfinn/dalton/build-master/basis/STO-3G"

  Atomic type no.    2
  --------------------
  Nuclear charge:   1.00000
  Number of symmetry independent centers:    3
  Number of basis sets to read;    1
  Basis set file used for this atomic type with Z =   1 :
     "/home/arnfinn/dalton/build-master/basis/STO-3G"


                         SYMGRP: Point group information
                         -------------------------------

Point group: C1 


                                 Isotopic Masses
                                 ---------------

                           N          14.003074
                           H           1.007825
                           H           1.007825
                           H           1.007825

                       Total mass:    17.026549 amu
                       Natural abundance:  99.585 %

 Center-of-mass coordinates (a.u.):    0.460792   -0.000000   -0.000000


  Atoms and basis sets
  --------------------

  Number of atom types :    2
  Total number of atoms:    4

  Basis set used is "STO-3G" from the basis set library.

  label    atoms   charge   prim   cont     basis
  ----------------------------------------------------------------------
  N           1    7.0000    15     5      [6s3p|2s1p]                                        
  H           3    1.0000     3     1      [3s|1s]                                            
  ----------------------------------------------------------------------
  total:      4   10.0000    24     8
  ----------------------------------------------------------------------

  Threshold for neglecting AO integrals:  1.00D-12


  Cartesian Coordinates (a.u.)
  ----------------------------

  Total number of coordinates:   12
  N       :     1  x   0.6023400000    2  y   0.0000000000    3  z  -0.0000000000
  H       :     4  x  -0.1947831000    5  y   0.8997910000    6  z   1.5584840000
  H       :     7  x  -0.1947831000    8  y   0.8997910000    9  z  -1.5584840000
  H       :    10  x  -0.1947831000   11  y  -1.7995826090   12  z   0.0000000000


   Interatomic separations (in Angstrom):
   --------------------------------------

            N           H           H           H     
            ------      ------      ------      ------
 N     :    0.000000
 H     :    1.041539    0.000000
 H     :    1.041539    1.649428    0.000000
 H     :    1.041539    1.649428    1.649428    0.000000


  Max    interatomic separation is    1.6494 Angstrom (    3.1170 Bohr)
  between atoms    4 and    3, "H     " and "H     ".

  Min HX interatomic separation is    1.0415 Angstrom (    1.9682 Bohr)


  Bond distances (Angstrom):
  --------------------------

                  atom 1     atom 2       distance
                  ------     ------       --------
  bond distance:  H          N            1.041539
  bond distance:  H          N            1.041539
  bond distance:  H          N            1.041539


  Bond angles (degrees):
  ----------------------

                  atom 1     atom 2     atom 3         angle
                  ------     ------     ------         -----
  bond angle:     H          N          H            104.712
  bond angle:     H          N          H            104.712
  bond angle:     H          N          H            104.712




 Principal moments of inertia (u*A**2) and principal axes
 --------------------------------------------------------

   IA       1.813393          0.000000    1.000000    0.000000
   IB       1.813393          0.000000    0.000000    1.000000
   IC       2.741903          1.000000   -0.000000    0.000000


 Rotational constants
 --------------------

               A                   B                   C

         278692.4386         278692.4170         184316.8732 MHz
            9.296179            9.296178            6.148149 cm-1


@  Nuclear repulsion energy :   11.631996297964 Hartree


                     .---------------------------------------.
                     | Starting in Integral Section (HERMIT) |
                     `---------------------------------------'



     ************************************************************************
     ************************** Output from HERINT **************************
     ************************************************************************


 Threshold for neglecting two-electron integrals:  1.00D-12
 Number of two-electron integrals written:         538 ( 80.8% )
 Megabytes written:                              0.007

 >>>> Total CPU  time used in HERMIT:   0.01 seconds
 >>>> Total wall time used in HERMIT:   0.02 seconds


                        .----------------------------------.
                        | End of Integral Section (HERMIT) |
                        `----------------------------------'



                   .--------------------------------------------.
                   | Starting in Wave Function Section (SIRIUS) |
                   `--------------------------------------------'


 **********************************************************************
 *SIRIUS* a direct, restricted step, second order MCSCF program       *
 **********************************************************************

 (Wave function specification suppressed here, see output above for initial geometry.)


 *********************************************
 ***** DIIS optimization of Hartree-Fock *****
 *********************************************

 C1-DIIS algorithm; max error vectors =    8

 Iter      Total energy        Error norm    Delta(E)  DIIS dim.
 -----------------------------------------------------------------------------
     (Precalculated two-electron integrals are transformed to P-supermatrix elements.
      Threshold for discarding integrals :  1.00D-12 )
@  1    -55.4550405348        1.94427D-02    7.12D-05    1
      Virial theorem: -V/T =      2.007281
@      MULPOP N      -0.43; H       0.14; H       0.14; H       0.14; 
 -----------------------------------------------------------------------------
@  2    -55.4551056490        8.16414D-03   -6.51D-05    2
      Virial theorem: -V/T =      2.007277
@      MULPOP N      -0.43; H       0.14; H       0.14; H       0.14; 
 -----------------------------------------------------------------------------
@  3    -55.4551188649        1.54550D-03   -1.32D-05    3
      Virial theorem: -V/T =      2.007370
@      MULPOP N      -0.43; H       0.14; H       0.14; H       0.14; 
 -----------------------------------------------------------------------------
@  4    -55.4551193305        1.22661D-04   -4.66D-07    4
      Virial theorem: -V/T =      2.007368
@      MULPOP N      -0.43; H       0.14; H       0.14; H       0.14; 
 -----------------------------------------------------------------------------
@  5    -55.4551193325        2.68363D-06   -1.93D-09    5
      Virial theorem: -V/T =      2.007367
@      MULPOP N      -0.43; H       0.14; H       0.14; H       0.14; 
 -----------------------------------------------------------------------------
@  6    -55.4551193325        1.23313D-07   -6.68D-13    6
      Virial theorem: -V/T =      2.007367
@      MULPOP N      -0.43; H       0.14; H       0.14; H       0.14; 
 -----------------------------------------------------------------------------
@  7    -55.4551193325        4.98450D-08    4.26D-14    7
      Virial theorem: -V/T =      2.007367
@      MULPOP N      -0.43; H       0.14; H       0.14; H       0.14; 
 -----------------------------------------------------------------------------
@  8    -55.4551193325        4.08699D-09    1.42D-14    8
      Virial theorem: -V/T =      2.007367
@      MULPOP N      -0.43; H       0.14; H       0.14; H       0.14; 
 -----------------------------------------------------------------------------
@  9    -55.4551193325        7.70819D-10   -4.26D-14    8

@ *** DIIS converged in   9 iterations !
@     Converged SCF energy, gradient:    -55.455119332458    7.71D-10
    - total time used in SIRFCK :              0.00 seconds


 *** SCF orbital energy analysis ***

 Only the five lowest virtual orbital energies printed in each symmetry.

 Number of electrons :   10
 Orbital occupations :    5

 Sym       Hartree-Fock orbital energies

  1    -15.31217099    -1.07994131    -0.55779777    -0.55779770    -0.35577002
         0.61299392     0.69342301     0.69342316

    E(LUMO) :     0.61299392 au (symmetry 1)
  - E(HOMO) :    -0.35577002 au (symmetry 1)
  ------------------------------------------
    gap     :     0.96876394 au

 >>> Writing SIRIFC interface file


 Check ratio for geometry walk with converged SCF :



 >>> step control for geometry walk (ABACUS interface)


 (SIRSTP) Close to convergence, ratio set to one.
 Energy difference; actual and predicted:   -7.62020D-06    0.00000D+00


 *** GEOMETRY WALK STEP ACCEPTED.


 >>>> CPU and wall time for SCF :       0.012       0.028


                       .-----------------------------------.
                       | >>> Final results from SIRIUS <<< |
                       `-----------------------------------'


@    Spin multiplicity:           1
@    Spatial symmetry:            1
@    Total charge of molecule:    0

@    Final HF energy:             -55.455119332458                 
@    Nuclear repulsion:            11.631996297964
@    Electronic energy:           -67.087115630421

@    Final gradient norm:           0.000000000771

 
     Date and time (Linux)  : Wed Mar 26 09:44:06 2014
     Host name              : c29-3.local                             



 >>>> Total CPU  time used in SIRIUS :      0.02 seconds
 >>>> Total wall time used in SIRIUS :      0.04 seconds

 
     Date and time (Linux)  : Wed Mar 26 09:44:06 2014
     Host name              : c29-3.local                             


                     .---------------------------------------.
                     | End of Wave Function Section (SIRIUS) |
                     `---------------------------------------'


 Center of mass dipole origin  :    0.460792   -0.000000   -0.000000

 Center of mass gauge origin   :    0.460792   -0.000000   -0.000000


                 .------------------------------------------------.
                 | Starting in Static Property Section (ABACUS) - |
                 `------------------------------------------------'


 
     Date and time (Linux)  : Wed Mar 26 09:44:06 2014
     Host name              : c29-3.local                             


   ***************************************************************************
   ************************ FINAL RESULTS from ABACUS ************************
   ***************************************************************************


 
     Date and time (Linux)  : Wed Mar 26 09:44:06 2014
     Host name              : c29-3.local                             


                             Molecular geometry (au)
                             -----------------------

 N          0.6023400000            0.0000000000           -0.0000000000
 H         -0.1947831000            0.8997910000            1.5584840000
 H         -0.1947831000            0.8997910000           -1.5584840000
 H         -0.1947831000           -1.7995826090            0.0000000000





                        Molecular wave function and energy
                        ----------------------------------

     Spin multiplicity  1     State number       1     Total charge       0

     Total energy        -55.4551193325 au (Hartrees)
                         -1509.01055856 eV
                           -145597.3934 kJ/mol


                             Relativistic corrections
                             ------------------------

     Darwin correction:                          0.0743112650 au
     Mass-velocity correction:                  -0.0948899294 au

     Total relativistic correction:             -0.0205786644 au (0.0371%)
     Non-relativistic + relativistic energy:   -55.4756979969 au




                                  Dipole moment
                                  -------------

                 au               Debye          C m (/(10**-30)
              0.727956           1.850280           6.171871


                             Dipole moment components
                             ------------------------

                 au               Debye          C m (/(10**-30)

      x     -0.72795634        -1.85028035        -6.17187090
      y     -0.00000003        -0.00000008        -0.00000025
      z     -0.00000000        -0.00000000        -0.00000000


   Units:   1 a.u. =   2.54175 Debye 
            1 a.u. =   8.47835 (10**-30) C m (SI)




   Interatomic separations (in Angstrom):
   --------------------------------------

            N           H           H           H     
            ------      ------      ------      ------
 N     :    0.000000
 H     :    1.041539    0.000000
 H     :    1.041539    1.649428    0.000000
 H     :    1.041539    1.649428    1.649428    0.000000


  Max    interatomic separation is    1.6494 Angstrom (    3.1170 Bohr)
  between atoms    4 and    3, "H     " and "H     ".

  Min HX interatomic separation is    1.0415 Angstrom (    1.9682 Bohr)


  Bond distances (Angstrom):
  --------------------------

                  atom 1     atom 2       distance
                  ------     ------       --------
  bond distance:  H          N            1.041539
  bond distance:  H          N            1.041539
  bond distance:  H          N            1.041539


  Bond angles (degrees):
  ----------------------

                  atom 1     atom 2     atom 3         angle
                  ------     ------     ------         -----
  bond angle:     H          N          H            104.712
  bond angle:     H          N          H            104.712
  bond angle:     H          N          H            104.712




 CPU time statistics for ABACUS
 ------------------------------




 >>>> Total CPU  time used in ABACUS:   0.00 seconds
 >>>> Total wall time used in ABACUS:   0.00 seconds


                   .-------------------------------------------.
                   | End of Static Property Section (ABACUS) - |
                   `-------------------------------------------'

 >>>> Total CPU  time used in DALTON:   4.77 seconds
 >>>> Total wall time used in DALTON:   6.75 seconds

 
     Date and time (Linux)  : Wed Mar 26 09:44:06 2014
     Host name              : c29-3.local                             
