

     ************************************************************************
     *************** Dalton - An Electronic Structure Program ***************
     ************************************************************************

    This is output from DALTON (Release Dalton2013 patch 0)
   ----------------------------------------------------------------------------
    NOTE:
     
    Dalton is an experimental code for the evaluation of molecular
    properties using (MC)SCF, DFT, CI, and CC wave functions.
    The authors accept no responsibility for the performance of
    the code or for the correctness of the results.
     
    The code (in whole or part) is provided under a licence and
    is not to be reproduced for further distribution without
    the written permission of the authors or their representatives.
     
    See the home page "http://daltonprogram.org" for further information.
     
    If results obtained with this code are published,
    the appropriate citations would be both of:
     
       K. Aidas, C. Angeli, K. L. Bak, V. Bakken, R. Bast,
       L. Boman, O. Christiansen, R. Cimiraglia, S. Coriani,
       P. Dahle, E. K. Dalskov, U. Ekstroem, T. Enevoldsen,
       J. J. Eriksen, P. Ettenhuber, B. Fernandez, L. Ferrighi,
       H. Fliegl, L. Frediani, K. Hald, A. Halkier, C. Haettig,
       H. Heiberg, T. Helgaker, A. C. Hennum, H. Hettema,
       E. Hjertenaes, S. Hoest, I.-M. Hoeyvik, M. F. Iozzi,
       B. Jansik, H. J. Aa. Jensen, D. Jonsson, P. Joergensen,
       J. Kauczor, S. Kirpekar, T. Kjaergaard, W. Klopper,
       S. Knecht, R. Kobayashi, H. Koch, J. Kongsted, A. Krapp,
       K. Kristensen, A. Ligabue, O. B. Lutnaes, J. I. Melo,
       K. V. Mikkelsen, R. H. Myhre, C. Neiss, C. B. Nielsen,
       P. Norman, J. Olsen, J. M. H. Olsen, A. Osted,
       M. J. Packer, F. Pawlowski, T. B. Pedersen, P. F. Provasi,
       S. Reine, Z. Rinkevicius, T. A. Ruden, K. Ruud, V. Rybkin,
       P. Salek, C. C. M. Samson, A. Sanchez de Meras, T. Saue,
       S. P. A. Sauer, B. Schimmelpfennig, K. Sneskov,
       A. H. Steindal, K. O. Sylvester-Hvid, P. R. Taylor,
       A. M. Teale, E. I. Tellgren, D. P. Tew, A. J. Thorvaldsen,
       L. Thoegersen, O. Vahtras, M. A. Watson, D. J. D. Wilson,
       M. Ziolkowski and H. Agren.
       The Dalton quantum chemistry program system.
       WIREs Comput. Mol. Sci. 2013. doi: 10.1002/wcms.1172
    
    and
    
       Dalton, a Molecular Electronic Structure Program,
       Release DALTON2013.0 (2013), see http://daltonprogram.org
   ----------------------------------------------------------------------------

    Authors in alphabetical order (major contribution(s) in parenthesis):

  Kestutis Aidas,           Vilnius University,           Lithuania   (QM/MM)
  Celestino Angeli,         University of Ferrara,        Italy       (NEVPT2)
  Keld L. Bak,              UNI-C,                        Denmark     (AOSOPPA, non-adiabatic coupling, magnetic properties)
  Vebjoern Bakken,          University of Oslo,           Norway      (DALTON; geometry optimizer, symmetry detection)
  Radovan Bast,             KTH Stockholm                 Sweden      (DALTON installation and execution frameworks)
  Linus Boman,              NTNU,                         Norway      (Cholesky decomposition and subsystems)
  Ove Christiansen,         Aarhus University,            Denmark     (CC module)
  Renzo Cimiraglia,         University of Ferrara,        Italy       (NEVPT2)
  Sonia Coriani,            University of Trieste,        Italy       (CC module, MCD in RESPONS)
  Paal Dahle,               University of Oslo,           Norway      (Parallelization)
  Erik K. Dalskov,          UNI-C,                        Denmark     (SOPPA)
  Thomas Enevoldsen,        Univ. of Southern Denmark,    Denmark     (SOPPA)
  Janus J. Eriksen,         Aarhus University,            Denmark     (PE-MP2/SOPPA, TDA)
  Berta Fernandez,          U. of Santiago de Compostela, Spain       (doublet spin, ESR in RESPONS)
  Lara Ferrighi,            Aarhus University,            Denmark     (PCM Cubic response)
  Heike Fliegl,             University of Oslo,           Norway      (CCSD(R12))
  Luca Frediani,            UiT The Arctic U. of Norway,  Norway      (PCM)
  Bin Gao,                  UiT The Arctic U. of Norway,  Norway      (Gen1Int library)
  Christof Haettig,         Ruhr-University Bochum,       Germany     (CC module)
  Kasper Hald,              Aarhus University,            Denmark     (CC module)
  Asger Halkier,            Aarhus University,            Denmark     (CC module)
  Hanne Heiberg,            University of Oslo,           Norway      (geometry analysis, selected one-electron integrals)
  Trygve Helgaker,          University of Oslo,           Norway      (DALTON; ABACUS, ERI, DFT modules, London, and much more)
  Alf Christian Hennum,     University of Oslo,           Norway      (Parity violation)
  Hinne Hettema,            University of Auckland,       New Zealand (quadratic response in RESPONS; SIRIUS supersymmetry)
  Eirik Hjertenaes,         NTNU,                         Norway      (Cholesky decomposition)
  Maria Francesca Iozzi,    University of Oslo,           Norway      (RPA)
  Brano Jansik              Technical Univ. of Ostrava    Czech Rep.  (DFT cubic response)
  Hans Joergen Aa. Jensen,  Univ. of Southern Denmark,    Denmark     (DALTON; SIRIUS, RESPONS, ABACUS modules, London, and much more)
  Dan Jonsson,              UiT The Arctic U. of Norway,  Norway      (cubic response in RESPONS module)
  Poul Joergensen,          Aarhus University,            Denmark     (RESPONS, ABACUS, and CC modules)
  Joanna Kauczor,           Linkoeping University,        Sweden      (Complex polarization propagator (CPP) module)
  Sheela Kirpekar,          Univ. of Southern Denmark,    Denmark     (Mass-velocity & Darwin integrals)
  Wim Klopper,              KIT Karlsruhe,                Germany     (R12 code in CC, SIRIUS, and ABACUS modules)
  Stefan Knecht,            ETH Zurich,                   Switzerland (Parallel CI and MCSCF)
  Rika Kobayashi,           Australian National Univ.,    Australia   (DIIS in CC, London in MCSCF)
  Henrik Koch,              NTNU,                         Norway      (CC module, Cholesky decomposition)
  Jacob Kongsted,           Univ. of Southern Denmark,    Denmark     (Polarizable embedding, QM/MM)
  Andrea Ligabue,           University of Modena,         Italy       (CTOCD, AOSOPPA)
  Ola B. Lutnaes,           University of Oslo,           Norway      (DFT Hessian)
  Juan I. Melo,             University of Buenos Aires,   Argentina   (LRESC, Relativistic Effects on NMR Shieldings)
  Kurt V. Mikkelsen,        University of Copenhagen,     Denmark     (MC-SCRF and QM/MM)
  Rolf H. Myhre,            NTNU,                         Norway      (Cholesky, subsystems and ECC2)
  Christian Neiss,          Univ. Erlangen-Nuernberg,     Germany     (CCSD(R12))
  Christian B. Nielsen,     University of Copenhagen,     Denmark     (QM/MM)
  Patrick Norman,           Linkoeping University,        Sweden      (Cubic response and complex response in RESPONS)
  Jeppe Olsen,              Aarhus University,            Denmark     (SIRIUS CI/density modules)
  Jogvan Magnus H. Olsen,   Univ. of Southern Denmark,    Denmark     (Polarizable embedding, PE library, QM/MM)
  Anders Osted,             Copenhagen University,        Denmark     (QM/MM)
  Martin J. Packer,         University of Sheffield,      UK          (SOPPA)
  Filip Pawlowski,          Kazimierz Wielki University   Poland      (CC3)
  Thomas B. Pedersen,       University of Oslo,           Norway      (Cholesky decomposition)
  Patricio F. Provasi,      University of Northeastern,   Argentina   (Analysis of coupling constants in localized orbitals)
  Zilvinas Rinkevicius,     KTH Stockholm,                Sweden      (open-shell DFT, ESR)
  Elias Rudberg,            KTH Stockholm,                Sweden      (DFT grid and basis info)
  Torgeir A. Ruden,         University of Oslo,           Norway      (Numerical derivatives in ABACUS)
  Kenneth Ruud,             UiT The Arctic U. of Norway,  Norway      (DALTON; ABACUS magnetic properties and  much more)
  Pawel Salek,              KTH Stockholm,                Sweden      (DALTON; DFT code)
  Claire C. M. Samson       University of Karlsruhe       Germany     (Boys localization, r12 integrals in ERI)
  Alfredo Sanchez de Meras, University of Valencia,       Spain       (CC module, Cholesky decomposition)
  Trond Saue,               Paul Sabatier University,     France      (direct Fock matrix construction)
  Stephan P. A. Sauer,      University of Copenhagen,     Denmark     (SOPPA(CCSD), SOPPA prop., AOSOPPA, vibrational g-factors)
  Bernd Schimmelpfennig,    Forschungszentrum Karlsruhe,  Germany     (AMFI module)
  Kristian Sneskov,         Aarhus University,            Denmark     (QM/MM, PE-CC)
  Arnfinn H. Steindal,      UiT The Arctic U. of Norway,  Norway      (parallel QM/MM)
  K. O. Sylvester-Hvid,     University of Copenhagen,     Denmark     (MC-SCRF)
  Peter R. Taylor,          VLSCI/Univ. of Melbourne,     Australia   (Symmetry handling ABACUS, integral transformation)
  Andrew M. Teale,          University of Nottingham,     England     (DFT-AC, DFT-D)
  David P. Tew,             University of Bristol,        England     (CCSD(R12))
  Olav Vahtras,             KTH Stockholm,                Sweden      (triplet response, spin-orbit, ESR, TDDFT, open-shell DFT)
  David J. Wilson,          La Trobe University,          Australia   (DFT Hessian and DFT magnetizabilities)
  Hans Agren,               KTH Stockholm,                Sweden      (SIRIUS module, RESPONS, MC-SCRF solvation model)
 --------------------------------------------------------------------------------

     Date and time (Linux)  : Sun Sep  8 20:43:02 2013
     Host name              : lpqlx131.ups-tlse.fr                    

 * Work memory size             :    64000000 =  488.28 megabytes.

 * Directories for basis set searches:
   1) /home/bast/DALTON-2013.0-Source/build/test_cc3_twophot3
   2) /home/bast/DALTON-2013.0-Source/build/basis


Compilation information
-----------------------

 Who compiled             | bast
 Host                     | lpqlx131.ups-tlse.fr
 System                   | Linux-3.8.5-201.fc18.x86_64
 CMake generator          | Unix Makefiles
 Processor                | x86_64
 64-bit integers          | OFF
 MPI                      | OFF
 Fortran compiler         | /usr/bin/gfortran
 Fortran compiler version | GNU Fortran (GCC) 4.7.2 20121109 (Red Hat 4.7.2-8)
 C compiler               | /usr/bin/gcc
 C compiler version       | gcc (GCC) 4.7.2 20121109 (Red Hat 4.7.2-8)
 C++ compiler             | /usr/bin/g++
 C++ compiler version     | g++ (GCC) 4.7.2 20121109 (Red Hat 4.7.2-8)
 Static linking           | OFF
 Last Git revision        | f34203295a86316e27f9e7b44f9b6769c4a046c0
 Configuration time       | 2013-09-08 20:31:27.952056


   Content of the .dal input file
 ----------------------------------

**DALTON                                          
.RUN WAVE FUNCTIONS                               
**INTEGRAL                                        
.DIPLEN                                           
**SIRIUS                                          
.CC                                               
*ORBITALS                                         
.NOSUPSYM                                         
*SCF INPUT                                        
.THRESH                                           
 1.0d-12                                          
*CC INPUT                                         
.RESTART                                          
.CCSD                                             
.CC3                                              
.THRENR                                           
 1.0d-10                                          
.THRLEQ                                           
 1.0d-10                                          
*CCEXCI                                           
.NCCEXCI                                          
 2 0 0 0 1 1 0 0                                  
.THREXC                                           
 1.0d-8                                           
.R3DIIS                                           
*CCOPA                                            
.DIPLEN                                           
*CCTPA                                            
.PRINT                                            
  10                                              
.SELEXC                                           
 5 1 0.0                                          
 1 1 0.0                                          
 6 1 0.0                                          
 1 2 0.0                                          
.HALFFR                                           
.DIPLEN                                           
**END OF DALTON                                   


   Content of the .mol file
 ----------------------------

BASIS                                                                          
cc-pVDZ                                                                        
                                                                               
                                                                               
    1    3  Y  X  Z   1.00D-15                                                 
        2.0   1                                                                
He    0.0000000000000000  0.0000000000000000 0.75000000000000000               


       *******************************************************************
       *********** Output from DALTON general input processing ***********
       *******************************************************************

 --------------------------------------------------------------------------------
   Overall default print level:    0
   Print level for DALTON.STAT:    1

    HERMIT 1- and 2-electron integral sections will be executed
    "Old" integral transformation used (limited to max 255 basis functions)
    Wave function sections will be executed (SIRIUS module)
 --------------------------------------------------------------------------------


   ****************************************************************************
   *************** Output of molecule and basis set information ***************
   ****************************************************************************


    The two title cards from your ".mol" input:
    ------------------------------------------------------------------------
 1:                                                                         
 2:                                                                         
    ------------------------------------------------------------------------

  Atomic type no.    1
  --------------------
  Nuclear charge:   2.00000
  Number of symmetry independent centers:    1
  Number of basis sets to read;    2
  Basis set file used for this atomic type with Z =   2 :
     "/home/bast/DALTON-2013.0-Source/build/basis/cc-pVDZ"


                         SYMGRP: Point group information
                         -------------------------------

Point group: D2h

   * The point group was generated by:

      Reflection in the xz-plane
      Reflection in the yz-plane
      Reflection in the xy-plane

   * Group multiplication table

        |  E   C2z  C2y  C2x   i   Oxy  Oxz  Oyz
   -----+----------------------------------------
     E  |  E   C2z  C2y  C2x   i   Oxy  Oxz  Oyz
    C2z | C2z   E   C2x  C2y  Oxy   i   Oyz  Oxz
    C2y | C2y  C2x   E   C2z  Oxz  Oyz   i   Oxy
    C2x | C2x  C2y  C2z   E   Oyz  Oxz  Oxy   i 
     i  |  i   Oxy  Oxz  Oyz   E   C2z  C2y  C2x
    Oxy | Oxy   i   Oyz  Oxz  C2z   E   C2x  C2y
    Oxz | Oxz  Oyz   i   Oxy  C2y  C2x   E   C2z
    Oyz | Oyz  Oxz  Oxy   i   C2x  C2y  C2z   E 

   * Character table

        |  E   C2z  C2y  C2x   i   Oxy  Oxz  Oyz
   -----+----------------------------------------
    Ag  |   1    1    1    1    1    1    1    1
    B2u |   1   -1    1   -1   -1    1   -1    1
    B3u |   1   -1   -1    1   -1    1    1   -1
    B1g |   1    1   -1   -1    1    1   -1   -1
    B1u |   1    1   -1   -1   -1   -1    1    1
    B3g |   1   -1   -1    1    1   -1   -1    1
    B2g |   1   -1    1   -1    1   -1    1   -1
    Au  |   1    1    1    1   -1   -1   -1   -1

   * Direct product table

        | Ag   B2u  B3u  B1g  B1u  B3g  B2g  Au 
   -----+----------------------------------------
    Ag  | Ag   B2u  B3u  B1g  B1u  B3g  B2g  Au 
    B2u | B2u  Ag   B1g  B3u  B3g  B1u  Au   B2g
    B3u | B3u  B1g  Ag   B2u  B2g  Au   B1u  B3g
    B1g | B1g  B3u  B2u  Ag   Au   B2g  B3g  B1u
    B1u | B1u  B3g  B2g  Au   Ag   B2u  B3u  B1g
    B3g | B3g  B1u  Au   B2g  B2u  Ag   B1g  B3u
    B2g | B2g  Au   B1u  B3g  B3u  B1g  Ag   B2u
    Au  | Au   B2g  B3g  B1u  B1g  B3u  B2u  Ag 


                                 Isotopic Masses
                                 ---------------

                           He  _1      4.002603
                           He  _2      4.002603

                       Total mass:     8.005206 amu
                       Natural abundance: 100.000 %

 Center-of-mass coordinates (a.u.):    0.000000    0.000000    0.000000


  Atoms and basis sets
  --------------------

  Number of atom types :    1
  Total number of atoms:    2

  Basis set used is "cc-pVDZ" from the basis set library.

  label    atoms   charge   prim   cont     basis
  ----------------------------------------------------------------------
  He          2    2.0000     7     5      [4s1p|2s1p]                                        
  ----------------------------------------------------------------------
  total:      2    4.0000    14    10
  ----------------------------------------------------------------------

  Threshold for neglecting AO integrals:  1.00D-15


  Cartesian Coordinates (a.u.)
  ----------------------------

  Total number of coordinates:    6
  He  / 1 :     1  x   0.0000000000    2  y   0.0000000000    3  z   0.7500000000
  He  / 2 :     4  x   0.0000000000    5  y   0.0000000000    6  z  -0.7500000000


  Symmetry Coordinates
  --------------------

  Number of coordinates in each symmetry:     1    1    1    0    1    1    1    0

  Symmetry  Ag  ( 1)

    1   He    z    [  3  -    6 ]/2

  Symmetry  B2u ( 2)

    2   He    y    [  2  +    5 ]/2

  Symmetry  B3u ( 3)

    3   He    x    [  1  +    4 ]/2

  Symmetry  B1u ( 5)

    4   He    z    [  3  +    6 ]/2

  Symmetry  B3g ( 6)

    5   He    y    [  2  -    5 ]/2

  Symmetry  B2g ( 7)

    6   He    x    [  1  -    4 ]/2


   Interatomic separations (in Angstrom):
   --------------------------------------

            He  _1      He  _2
            ------      ------
 He  _1:    0.000000
 He  _2:    0.793766    0.000000


  Max    interatomic separation is    0.7938 Angstrom (    1.5000 Bohr)
  between atoms    2 and    1, "He  _2" and "He  _1".

  Min YX interatomic separation is    0.7938 Angstrom (    1.5000 Bohr)

WARNING: Number of short HX and YX bond lengths:    0    1
WARNING: If not intentional, maybe your coordinates were in Angstrom,
WARNING: but "Angstrom" was not specified in .mol file


  Bond distances (Angstrom):
  --------------------------

                  atom 1     atom 2       distance
                  ------     ------       --------
  bond distance:  He  _2     He  _1       0.793766




 Principal moments of inertia (u*A**2) and principal axes
 --------------------------------------------------------

   IA       0.000000          0.000000    0.000000    1.000000
   IB       1.260948          0.000000    1.000000    0.000000
   IC       1.260948          1.000000    0.000000    0.000000


 Rotational constants
 --------------------

 The molecule is linear.

               B =       400792.78 MHz     (   13.369008 cm-1)


@  Nuclear repulsion energy :    2.666666666667 Hartree


  Symmetry Orbitals
  -----------------

  Number of orbitals in each symmetry:           3    1    1    0    3    1    1    0


  Symmetry  Ag ( 1)

    1     He       1s         1 +    2
    2     He       1s         3 +    4
    3     He       2pz        9 -   10


  Symmetry  B2u( 2)

    4     He       2py        7 +    8


  Symmetry  B3u( 3)

    5     He       2px        5 +    6


  No orbitals in symmetry  B1g( 4)


  Symmetry  B1u( 5)

    6     He       1s         1 -    2
    7     He       1s         3 -    4
    8     He       2pz        9 +   10


  Symmetry  B3g( 6)

    9     He       2py        7 -    8


  Symmetry  B2g( 7)

   10     He       2px        5 -    6


  No orbitals in symmetry  Au ( 8)

  Symmetries of electric field:  B3u(3)  B2u(2)  B1u(5)

  Symmetries of magnetic field:  B3g(6)  B2g(7)  B1g(4)


                     .---------------------------------------.
                     | Starting in Integral Section (HERMIT) |
                     `---------------------------------------'



    *************************************************************************
    ****************** Output from HERMIT input processing ******************
    *************************************************************************


 Default print level:        1

 * Nuclear model: Point charge

 Calculation of one- and two-electron Hamiltonian integrals.

 The following one-electron property integrals are calculated as requested:
          - overlap integrals
          - dipole length integrals

 Center of mass  (bohr):      0.000000000000      0.000000000000      0.000000000000
 Operator center (bohr):      0.000000000000      0.000000000000      0.000000000000
 Gauge origin    (bohr):      0.000000000000      0.000000000000      0.000000000000
 Dipole origin   (bohr):      0.000000000000      0.000000000000      0.000000000000


     ************************************************************************
     ************************** Output from HERINT **************************
     ************************************************************************


 Threshold for neglecting two-electron integrals:  1.00D-15
 Number of two-electron integrals written:         292 ( 19.0% )
 Megabytes written:                              0.007

 >>>> Total CPU  time used in HERMIT:   0.00 seconds
 >>>> Total wall time used in HERMIT:   0.00 seconds


                        .----------------------------------.
                        | End of Integral Section (HERMIT) |
                        `----------------------------------'



                   .--------------------------------------------.
                   | Starting in Wave Function Section (SIRIUS) |
                   `--------------------------------------------'

 NCCEXCI for singlet:           2           0           0           0           1           1           0           0
  WARNING: BOTH .SELST and .HALFFR are specified
  .HALFFR is used to obtain frequences

 *** Output from Huckel module :

     Using EWMO model:          F
     Using EHT  model:          T
     Number of Huckel orbitals each symmetry:    1    0    0    0    1    0    0    0

 Huckel EHT eigenvalues for symmetry :  1
           -1.247107

 Huckel EHT eigenvalues for symmetry :  5
           -0.588893

 **********************************************************************
 *SIRIUS* a direct, restricted step, second order MCSCF program       *
 **********************************************************************

 
     Date and time (Linux)  : Sun Sep  8 20:43:02 2013
     Host name              : lpqlx131.ups-tlse.fr                    

 Title lines from ".mol" input file:
                                                                             
                                                                             

 Print level on unit LUPRI =   2 is   0
 Print level on unit LUW4  =   2 is   5

@    (Integral direct) CC calculation.

@    This is a combination run starting with
@              a restricted, closed shell Hartree-Fock calculation


 Initial molecular orbitals are obtained according to
 ".MOSTART EHT   " input option

     Wave function specification
     ============================

     For the specification of the Coupled Cluster: see later.

@    For the wave function of type :      >>> CC <<<
@    Number of closed shell electrons           4
@    Number of electrons in active shells       0
@    Total charge of the molecule               0

@    Spin multiplicity and 2 M_S                1         0
     Total number of symmetries                 8
@    Reference state symmetry                   1

     Orbital specifications
     ======================
     Abelian symmetry species          All |    1    2    3    4    5    6    7    8
                                       --- |  ---  ---  ---  ---  ---  ---  ---  ---
     Total number of orbitals           10 |    3    1    1    0    3    1    1    0
     Number of basis functions          10 |    3    1    1    0    3    1    1    0

      ** Automatic occupation of RHF orbitals **

      -- Initial occupation of symmetries is determined from extended Huckel guess.           
      -- Initial occupation of symmetries is :
@    Occupied SCF orbitals               2 |    1    0    0    0    1    0    0    0

     Maximum number of Fock   iterations      0
     Maximum number of DIIS   iterations     60
     Maximum number of QC-SCF iterations     60
     Threshold for SCF convergence     1.00D-12


 Changes of defaults for CC:
 ---------------------------


 -Iterative triple excitations included 
 -Excitation energies calculated
 -One-photon absorption strengths will be calculated
 -Two-photon absorption strengths will be calculated
  


 >>>>> DIIS optimization of Hartree-Fock <<<<<

 C1-DIIS algorithm; max error vectors =    4

 Automatic occupation of symmetries with   4 electrons.

 Iter     Total energy    Error norm  Delta(E)    SCF occupation
 -----------------------------------------------------------------------------
     (Precalculated two-electron integrals are transformed to P-supermatrix elements.
      Threshold for discarding integrals :  1.00D-15 )
@  1  -5.23071759263       1.39D+00  -5.23D+00     1   0   0   0   1   0   0   0
      Virial theorem: -V/T =      1.745630
@      MULPOP He  _1  0.00; He  _2  0.00; 
 -----------------------------------------------------------------------------
@  2  -5.35546620851       2.97D-01  -1.25D-01     1   0   0   0   1   0   0   0
      Virial theorem: -V/T =      1.818239
@      MULPOP He  _1  0.00; He  _2  0.00; 
 -----------------------------------------------------------------------------
@  3  -5.36143175588       7.34D-03  -5.97D-03     1   0   0   0   1   0   0   0
      Virial theorem: -V/T =      1.827808
@      MULPOP He  _1  0.00; He  _2  0.00; 
 -----------------------------------------------------------------------------
@  4  -5.36143427892       2.92D-04  -2.52D-06     1   0   0   0   1   0   0   0
      Virial theorem: -V/T =      1.827802
@      MULPOP He  _1  0.00; He  _2  0.00; 
 -----------------------------------------------------------------------------
@  5  -5.36143428319       3.71D-05  -4.27D-09     1   0   0   0   1   0   0   0
      Virial theorem: -V/T =      1.827841
@      MULPOP He  _1 -0.00; He  _2 -0.00; 
 -----------------------------------------------------------------------------
@  6  -5.36143428325       1.24D-06  -5.71D-11     1   0   0   0   1   0   0   0
      Virial theorem: -V/T =      1.827839
@      MULPOP He  _1  0.00; He  _2  0.00; 
 -----------------------------------------------------------------------------
@  7  -5.36143428325       1.04D-07  -6.04D-14     1   0   0   0   1   0   0   0
      Virial theorem: -V/T =      1.827839
@      MULPOP He  _1  0.00; He  _2  0.00; 
 -----------------------------------------------------------------------------
@  8  -5.36143428325       1.78D-08   0.00D+00     1   0   0   0   1   0   0   0
      Virial theorem: -V/T =      1.827839
@      MULPOP He  _1 -0.00; He  _2 -0.00; 
 -----------------------------------------------------------------------------
@  9  -5.36143428325       5.29D-10   1.78D-15     1   0   0   0   1   0   0   0
      Virial theorem: -V/T =      1.827839
@      MULPOP He  _1 -0.00; He  _2 -0.00; 
 -----------------------------------------------------------------------------
@ 10  -5.36143428325       3.15D-12  -1.78D-15     1   0   0   0   1   0   0   0
      Virial theorem: -V/T =      1.827839
@      MULPOP He  _1 -0.00; He  _2 -0.00; 
 -----------------------------------------------------------------------------
@ 11  -5.36143428325       2.35D-14   7.11D-15     1   0   0   0   1   0   0   0

@ *** DIIS converged in  11 iterations !
@     Converged SCF energy, gradient:     -5.361434283252    2.35D-14
    - total time used in SIRFCK :              0.00 seconds


 *** SCF orbital energy analysis ***

 Only the five lowest virtual orbital energies printed in each symmetry.

 Number of electrons :    4
 Orbital occupations :    1    0    0    0    1    0    0    0

 Sym       Hartree-Fock orbital energies

  1     -1.30750208     1.27333282     2.65570599

  2      2.08350613

  3      2.08350613

  5     -0.54773579     1.39482028     4.36417285

  6      3.02325729

  7      3.02325729

    E(LUMO) :     1.27333282 au (symmetry 1)
  - E(HOMO) :    -0.54773579 au (symmetry 5)
  ------------------------------------------
    gap     :     1.82106861 au

 >>> Writing SIRIFC interface file <<<

 >>>> CPU and wall time for SCF :       0.004       0.003


                       .-----------------------------------.
                       | >>> Final results from SIRIUS <<< |
                       `-----------------------------------'


@    Spin multiplicity:           1
@    Spatial symmetry:            1
@    Total charge of molecule:    0

@    Final HF energy:              -5.361434283252                 
@    Nuclear repulsion:             2.666666666667
@    Electronic energy:            -8.028100949919

@    Final gradient norm:           0.000000000000

 
     Date and time (Linux)  : Sun Sep  8 20:43:02 2013
     Host name              : lpqlx131.ups-tlse.fr                    

 (Only coefficients >0.0100 are printed.)

 Molecular orbitals for symmetry species  1
 ------------------------------------------

    Orbital         1        2        3
   1 He  :1s     0.7168   1.2049   0.7359
   2 He  :1s    -0.1439  -1.3103  -0.5910
   3 He  :2pz   -0.0223  -0.1563   0.5934

 Molecular orbitals for symmetry species  2
 ------------------------------------------

    Orbital         1
   1 He  :2py    0.6354

 Molecular orbitals for symmetry species  3
 ------------------------------------------

    Orbital         1
   1 He  :2px    0.6354

 Molecular orbitals for symmetry species  5
 ------------------------------------------

    Orbital         1        2        3
   1 He  :1s     0.7757  -1.3040   0.6937
   2 He  :1s     0.3085   2.2099   0.3559
   3 He  :2pz    0.0156  -0.1812  -1.2962

 Molecular orbitals for symmetry species  6
 ------------------------------------------

    Orbital         1
   1 He  :2py    0.8102

 Molecular orbitals for symmetry species  7
 ------------------------------------------

    Orbital         1
   1 He  :2px    0.8102



 >>>> Total CPU  time used in SIRIUS :      0.01 seconds
 >>>> Total wall time used in SIRIUS :      0.01 seconds

 
     Date and time (Linux)  : Sun Sep  8 20:43:02 2013
     Host name              : lpqlx131.ups-tlse.fr                    


                     .---------------------------------------.
                     | End of Wave Function Section (SIRIUS) |
                     `---------------------------------------'



                    .------------------------------------------.
                    | Starting in Coupled Cluster Section (CC) |
                    `------------------------------------------'

  

 *******************************************************************************
 *******************************************************************************
 *                                                                             *
 *                                                                             *
 *                    START OF COUPLED CLUSTER CALCULATION                     *
 *                                                                             *
 *                                                                             *
 *******************************************************************************
 *******************************************************************************



 CCR12 ANSATZ =   0

 CCR12 APPROX =   0

   

 *******************************************************************
 *                                                                 *
 *<<<<<<<<<<                                             >>>>>>>>>>*
 *<<<<<<<<<< OUTPUT FROM COUPLED CLUSTER ENERGY PROGRAM  >>>>>>>>>>*
 *<<<<<<<<<<                                             >>>>>>>>>>*
 *                                                                 *
 *******************************************************************


             The Direct Coupled Cluster Energy Program
             -----------------------------------------


          Number of t1 amplitudes                 :         4
          Number of t2 amplitudes                 :        32
          Total number of amplitudes in ccsd      :        36

 Iter.  1: Coupled cluster MP2   energy :      -5.4188979270202431
 Iter.  1: Coupled cluster CCSD  energy :      -5.4292469148763587
 Iter.  2: Coupled cluster CCSD  energy :      -5.4317657198171210
 Iter.  3: Coupled cluster CCSD  energy :      -5.4317354335091173
 Iter.  4: Coupled cluster CCSD  energy :      -5.4317385095919910
 Iter.  5: Coupled cluster CCSD  energy :      -5.4317380309891110
 Iter.  6: Coupled cluster CCSD  energy :      -5.4317381196601247
 Iter.  7: Coupled cluster CCSD  energy :      -5.4317381158681339
 Iter.  8: Coupled cluster CCSD  energy :      -5.4317381157629034
 Iter.  9: Coupled cluster CCSD  energy :      -5.4317381158222648

 CCSD  energy converged to within   0.10D-09 is           -5.431738115822
 Final 2-norm of the CC vector function:  1.77352663D-09





             +-------------------------------------------------------+
             ! Final results from the Coupled Cluster energy program !
             +-------------------------------------------------------+



            Total SCF   energy:                    -5.3614342833

            Total MP2   energy:                    -5.4188979270

            Total CCSD  energy:                    -5.4317381158




                   +--------------------------------------------+
                   ! Calculating singlet intermediates for CCLR !
                   +--------------------------------------------+



            E-intermediates calculated 
            Fock-intermediate calculated 
            Gamma-intermediate calculated 
            BF-intermediate calculated 
            C-intermediate calculated 
            D-intermediate calculated 


   

 *******************************************************************
 *                                                                 *
 *<<<<<<<<<<<<< OUTPUT FROM COUPLED CLUSTER RESPONSE  >>>>>>>>>>>>>*
 *                                                                 *
 *******************************************************************



                         +--------------------------------+
                         ! Coupled Cluster model is: CCSD !
                         +--------------------------------+

 RPA: call cceq_str
 Vector nr.  1 of type L0  and symmetry  1 was not found on file.
 RPA: exit cceq_str
  
   

 *******************************************************************
 *                                                                 *
 *<<<<<<<<<< OUTPUT FROM COUPLED CLUSTER LINEAR RESPONSE >>>>>>>>>>*
 *                                                                 *
 *<<<<<<<<<<     CALCULATION OF EXCITATION ENERGIES      >>>>>>>>>>*
 *                                                                 *
 *******************************************************************



                           +---------------------------+
                           !  CCSD Excitation Energies !
                           +---------------------------+


 --------------------------
 Symmetry class Nr.:     1
 Multiplicity      :     1
 --------------------------

 Length of Excitation vectors in this class is:        36
 Converging for  2 roots.
 Vector nr.  1 of type RE  and symmetry  1 was not found on file.
 Start vector guessed from diagonal
 ... selected element no.  3
 Vector nr.  2 of type RE  and symmetry  1 was not found on file.
 Start vector guessed from diagonal
 ... selected element no.  1


 SYMMETRY CLASS NR.    1
 MULTIPLICITY          1


 CCSD       right excitation energies:
 ====================================
 (conversion factor used: 1 au = 27.2113957 eV)

 Excitation no.       Hartree               eV 
 --------------       -------               --
         1            1.5861392722       43.1610451469
         2            2.1248742550       57.8207697509


 Total excited state energies for states of symmetry/spin    1    1
 Excitation no.       Energy (Hartree) 
 ------------------------------------- 
@@    1    1            -3.845598843603513
@@    1    2            -3.306863860813765


 Analysis of the Coupled Cluster Excitation Vector Number :  1
 -------------------------------------------------------------

          Excitation Energy :                            43.1610 eV


          CC_PRAM:Overall Contribution of the Different Components
          --------------------------------------------------------



          Single Excitation Contribution :              98.8430 %

          Double Excitation Contribution :               1.1570 %

          ||T1||/||T2||                  :               9.2428

          Norm of Total Amplitude Vector :               1.0000


 +=============================================================================+
 | symmetry|  orbital index  |   Excitation Numbers             |   Amplitude  |
 |  Index  |   a   b   i   j |      NAI      NBJ |     NAIBJ    |              |
 +=============================================================================+
 | 5   5   |   1       1     |        3          |              |    0.983660  |
 +-----------------------------------------------------------------------------+
 | 5 5 5 5 |   1   1   1   1 |        3        3 |            6 |   -0.033302  |
 | 5 5 1 1 |   1   1   1   1 |        1        1 |           17 |   -0.047808  |
 | 1 5 5 1 |   2   1   1   1 |        4        1 |           23 |    0.035194  |
 | 1 1 5 5 |   1   1   1   1 |        3        3 |           22 |    0.033393  |
 | 1 1 5 5 |   2   1   1   1 |        4        3 |           25 |    0.063799  |
 +=============================================================================+


          Norm of Printed Amplitude Vector :             0.9886

          Printed all single excitations greater than 0.198840

          Printed all double excitations greater than 0.021513


 Analysis of the Coupled Cluster Excitation Vector Number :  2
 -------------------------------------------------------------

          Excitation Energy :                            57.8208 eV


          CC_PRAM:Overall Contribution of the Different Components
          --------------------------------------------------------



          Single Excitation Contribution :              96.7543 %

          Double Excitation Contribution :               3.2457 %

          ||T1||/||T2||                  :               5.4599

          Norm of Total Amplitude Vector :               1.0000


 +=============================================================================+
 | symmetry|  orbital index  |   Excitation Numbers             |   Amplitude  |
 |  Index  |   a   b   i   j |      NAI      NBJ |     NAIBJ    |              |
 +=============================================================================+
 | 1   1   |   1       1     |        1          |              |    0.971314  |
 +-----------------------------------------------------------------------------+
 | 1 1 1 1 |   1   1   1   1 |        1        1 |            1 |    0.040936  |
 | 5 1 5 1 |   1   1   1   1 |        3        1 |            4 |   -0.076489  |
 | 1 5 5 1 |   1   1   1   1 |        3        1 |           20 |   -0.076676  |
 | 1 1 5 5 |   1   1   1   1 |        3        3 |           22 |    0.110206  |
 | 1 1 5 5 |   2   1   1   1 |        4        3 |           25 |    0.071539  |
 +=============================================================================+


          Norm of Printed Amplitude Vector :             0.9870

          Printed all single excitations greater than 0.196728

          Printed all double excitations greater than 0.036031

 --------------------------
 Symmetry class Nr.:     1
 Multiplicity      :     3
 --------------------------

 Length of Excitation vectors in this class is:        68
 No Excitation Energies calculated in this symmetry class


 *******************************************************************************

 --------------------------
 Symmetry class Nr.:     2
 Multiplicity      :     1
 --------------------------

 Length of Excitation vectors in this class is:        18
 No Excitation Energies calculated in this symmetry class


 *******************************************************************************

 --------------------------
 Symmetry class Nr.:     2
 Multiplicity      :     3
 --------------------------

 Length of Excitation vectors in this class is:        34
 No Excitation Energies calculated in this symmetry class


 *******************************************************************************

 --------------------------
 Symmetry class Nr.:     3
 Multiplicity      :     1
 --------------------------

 Length of Excitation vectors in this class is:        18
 No Excitation Energies calculated in this symmetry class


 *******************************************************************************

 --------------------------
 Symmetry class Nr.:     3
 Multiplicity      :     3
 --------------------------

 Length of Excitation vectors in this class is:        34
 No Excitation Energies calculated in this symmetry class


 *******************************************************************************

 --------------------------
 Symmetry class Nr.:     4
 Multiplicity      :     1
 --------------------------

 Length of Excitation vectors in this class is:         8
 No Excitation Energies calculated in this symmetry class


 *******************************************************************************

 --------------------------
 Symmetry class Nr.:     4
 Multiplicity      :     3
 --------------------------

 Length of Excitation vectors in this class is:        16
 No Excitation Energies calculated in this symmetry class


 *******************************************************************************

 --------------------------
 Symmetry class Nr.:     5
 Multiplicity      :     1
 --------------------------

 Length of Excitation vectors in this class is:        28
 Converging for  1 roots.
 Vector nr.  3 of type RE  and symmetry  5 was not found on file.
 Start vector guessed from diagonal
 ... selected element no.  3


 SYMMETRY CLASS NR.    5
 MULTIPLICITY          1


 CCSD       right excitation energies:
 ====================================
 (conversion factor used: 1 au = 27.2113957 eV)

 Excitation no.       Hartree               eV 
 --------------       -------               --
         1            1.3519304662       36.7878993410


 Total excited state energies for states of symmetry/spin    5    1
 Excitation no.       Energy (Hartree) 
 ------------------------------------- 
@@    5    1            -4.079807649620123


 Analysis of the Coupled Cluster Excitation Vector Number :  1
 -------------------------------------------------------------

          Excitation Energy :                            36.7879 eV


          CC_PRAM:Overall Contribution of the Different Components
          --------------------------------------------------------



          Single Excitation Contribution :              98.9313 %

          Double Excitation Contribution :               1.0687 %

          ||T1||/||T2||                  :               9.6213

          Norm of Total Amplitude Vector :               1.0000


 +=============================================================================+
 | symmetry|  orbital index  |   Excitation Numbers             |   Amplitude  |
 |  Index  |   a   b   i   j |      NAI      NBJ |     NAIBJ    |              |
 +=============================================================================+
 | 1   5   |   1       1     |        3          |              |    0.994014  |
 +-----------------------------------------------------------------------------+
 | 5 1 1 1 |   1   1   1   1 |        1        1 |            1 |   -0.043788  |
 | 1 1 5 1 |   1   1   1   1 |        3        1 |            3 |   -0.029669  |
 | 5 5 1 5 |   1   1   1   1 |        1        3 |            9 |    0.049442  |
 | 5 5 1 5 |   1   2   1   1 |        1        4 |           13 |    0.047888  |
 | 1 5 5 5 |   1   1   1   1 |        3        3 |           11 |   -0.022379  |
 | 1 5 5 5 |   1   2   1   1 |        3        4 |           15 |    0.039520  |
 +=============================================================================+


          Norm of Printed Amplitude Vector :             0.9988

          Printed all single excitations greater than 0.198928

          Printed all double excitations greater than 0.020676


 *******************************************************************************

 --------------------------
 Symmetry class Nr.:     5
 Multiplicity      :     3
 --------------------------

 Length of Excitation vectors in this class is:        52
 No Excitation Energies calculated in this symmetry class


 *******************************************************************************

 --------------------------
 Symmetry class Nr.:     6
 Multiplicity      :     1
 --------------------------

 Length of Excitation vectors in this class is:        18
 Converging for  1 roots.
 Vector nr.  4 of type RE  and symmetry  6 was not found on file.
 Start vector guessed from diagonal
 ... selected element no.  2


 SYMMETRY CLASS NR.    6
 MULTIPLICITY          1


 CCSD       right excitation energies:
 ====================================
 (conversion factor used: 1 au = 27.2113957 eV)

 Excitation no.       Hartree               eV 
 --------------       -------               --
         1            2.0453224637       55.6560553922


 Total excited state energies for states of symmetry/spin    6    1
 Excitation no.       Energy (Hartree) 
 ------------------------------------- 
@@    6    1            -3.386415652153259


 Analysis of the Coupled Cluster Excitation Vector Number :  1
 -------------------------------------------------------------

          Excitation Energy :                            55.6561 eV


          CC_PRAM:Overall Contribution of the Different Components
          --------------------------------------------------------



          Single Excitation Contribution :              99.1557 %

          Double Excitation Contribution :               0.8443 %

          ||T1||/||T2||                  :              10.8369

          Norm of Total Amplitude Vector :               1.0000


 +=============================================================================+
 | symmetry|  orbital index  |   Excitation Numbers             |   Amplitude  |
 |  Index  |   a   b   i   j |      NAI      NBJ |     NAIBJ    |              |
 +=============================================================================+
 | 2   5   |   1       1     |        2          |              |    0.995434  |
 +-----------------------------------------------------------------------------+
 | 5 2 1 1 |   1   1   1   1 |        1        1 |            1 |   -0.047034  |
 | 5 2 1 1 |   2   1   1   1 |        2        1 |            2 |    0.025441  |
 | 5 6 1 5 |   1   1   1   1 |        1        2 |            5 |    0.027412  |
 | 1 6 5 5 |   1   1   1   1 |        3        2 |            7 |    0.051334  |
 | 1 6 5 5 |   2   1   1   1 |        4        2 |            8 |   -0.032110  |
 | 2 5 5 5 |   1   1   1   1 |        2        3 |           14 |    0.024837  |
 +=============================================================================+


          Norm of Printed Amplitude Vector :             0.9994

          Printed all single excitations greater than 0.199154

          Printed all double excitations greater than 0.018377


 *******************************************************************************

 --------------------------
 Symmetry class Nr.:     6
 Multiplicity      :     3
 --------------------------

 Length of Excitation vectors in this class is:        34
 No Excitation Energies calculated in this symmetry class


 *******************************************************************************

 --------------------------
 Symmetry class Nr.:     7
 Multiplicity      :     1
 --------------------------

 Length of Excitation vectors in this class is:        18
 No Excitation Energies calculated in this symmetry class


 *******************************************************************************

 --------------------------
 Symmetry class Nr.:     7
 Multiplicity      :     3
 --------------------------

 Length of Excitation vectors in this class is:        34
 No Excitation Energies calculated in this symmetry class


 *******************************************************************************

 --------------------------
 Symmetry class Nr.:     8
 Multiplicity      :     1
 --------------------------

 Length of Excitation vectors in this class is:         8
 No Excitation Energies calculated in this symmetry class


 *******************************************************************************

 --------------------------
 Symmetry class Nr.:     8
 Multiplicity      :     3
 --------------------------

 Length of Excitation vectors in this class is:        16
 No Excitation Energies calculated in this symmetry class
   

 *******************************************************************
 *                                                                 *
 *<<<<<<<<<< OUTPUT FROM COUPLED CLUSTER LINEAR RESPONSE >>>>>>>>>>*
 *                                                                 *
 *<<<<<<<<<<     CALCULATION OF EXCITATION ENERGIES      >>>>>>>>>>*
 *                                                                 *
 *******************************************************************



                           +---------------------------+
                           !  CCSD Excitation Energies !
                           +---------------------------+


 --------------------------
 Symmetry class Nr.:     1
 Multiplicity      :     1
 --------------------------

 Length of Excitation vectors in this class is:        36
 Converging for  2 roots.
 Vector nr.  1 of type LE  and symmetry  1 was not found on file.
Try to use right eigenvector as start for a left eigenvector.
 Vector nr.  1 of symmetry  1 found on file - RESTART SUCCESS
 Start vector is a  CCSD      RE vector
 Vector nr.  2 of type LE  and symmetry  1 was not found on file.
Try to use right eigenvector as start for a left eigenvector.
 Vector nr.  2 of symmetry  1 found on file - RESTART SUCCESS
 Start vector is a  CCSD      RE vector


 SYMMETRY CLASS NR.    1
 MULTIPLICITY          1


 CCSD       left excitation energies:
 ====================================
 (conversion factor used: 1 au = 27.2113957 eV)

 Excitation no.       Hartree               eV 
 --------------       -------               --
         1            1.5861392722       43.1610451455
         2            2.1248742550       57.8207697515


 Total excited state energies for states of symmetry/spin    1    1
 Excitation no.       Energy (Hartree) 
 ------------------------------------- 
@@    1    1            -3.845598843651796
@@    1    2            -3.306863860792701


 Analysis of the Coupled Cluster Excitation Vector Number :  1
 -------------------------------------------------------------

          Excitation Energy :                            43.1610 eV


          CC_PRAM:Overall Contribution of the Different Components
          --------------------------------------------------------



          Single Excitation Contribution :              96.6484 %

          Double Excitation Contribution :               3.3516 %

          ||T1||/||T2||                  :               5.3699

          Norm of Total Amplitude Vector :               1.0000


 +=============================================================================+
 | symmetry|  orbital index  |   Excitation Numbers             |   Amplitude  |
 |  Index  |   a   b   i   j |      NAI      NBJ |     NAIBJ    |              |
 +=============================================================================+
 | 5   5   |   1       1     |        3          |              |    0.973266  |
 +-----------------------------------------------------------------------------+
 | 5 1 5 1 |   1   1   1   1 |        3        1 |            4 |    0.039647  |
 | 5 5 5 5 |   1   1   1   1 |        3        3 |            6 |   -0.064698  |
 | 5 5 1 1 |   1   1   1   1 |        1        1 |           17 |   -0.095499  |
 | 1 5 5 1 |   1   1   1   1 |        3        1 |           20 |   -0.049199  |
 | 1 5 5 1 |   2   1   1   1 |        4        1 |           23 |    0.066767  |
 | 1 1 5 5 |   1   1   1   1 |        3        3 |           22 |    0.063701  |
 | 1 1 5 5 |   2   1   1   1 |        4        3 |           25 |    0.062814  |
 +=============================================================================+


          Norm of Printed Amplitude Vector :             0.9884

          Printed all single excitations greater than 0.196620

          Printed all double excitations greater than 0.036615


 Analysis of the Coupled Cluster Excitation Vector Number :  2
 -------------------------------------------------------------

          Excitation Energy :                            57.8208 eV


          CC_PRAM:Overall Contribution of the Different Components
          --------------------------------------------------------



          Single Excitation Contribution :              92.3914 %

          Double Excitation Contribution :               7.6086 %

          ||T1||/||T2||                  :               3.4847

          Norm of Total Amplitude Vector :               1.0000


 +=============================================================================+
 | symmetry|  orbital index  |   Excitation Numbers             |   Amplitude  |
 |  Index  |   a   b   i   j |      NAI      NBJ |     NAIBJ    |              |
 +=============================================================================+
 | 1   1   |   1       1     |        1          |              |    0.948577  |
 +-----------------------------------------------------------------------------+
 | 1 1 1 1 |   1   1   1   1 |        1        1 |            1 |    0.079387  |
 | 5 1 5 1 |   1   1   1   1 |        3        1 |            4 |   -0.079544  |
 | 1 5 5 1 |   1   1   1   1 |        3        1 |           20 |   -0.074449  |
 | 1 5 5 1 |   2   1   1   1 |        4        1 |           23 |    0.060851  |
 | 1 1 5 5 |   1   1   1   1 |        3        3 |           22 |    0.211228  |
 | 1 1 5 5 |   2   1   1   1 |        4        3 |           25 |    0.072667  |
 +=============================================================================+


          Norm of Printed Amplitude Vector :             0.9857

          Printed all single excitations greater than 0.192241

          Printed all double excitations greater than 0.055167



+======================================================================+
| contributions of excitation levels to right eigenvectors as computed |
| from the (RE|RE) self overlap                                        |
+----------------------------------------------------------------------+
| sym | multi | state |    E / eV  | % singles | % doubles | % triples |
+======================================================================+
|    1|   1   |   1   |   43.16105 |  98.8430  |   1.1570  |   0.0000  |
|    1|   1   |   2   |   57.82077 |  96.7543  |   3.2457  |   0.0000  |
+======================================================================+





+======================================================================+
| contributions of excitation levels to excited states as computed     |
| from the (LE|RE) overlap                                             |
+----------------------------------------------------------------------+
| sym | multi | state |    E / eV  | % singles | % doubles | % triples |
+======================================================================+
|    1|   1   |   1   |   43.16105 |  98.1725  |   1.8275  |   0.0000  |
|    1|   1   |   2   |   57.82077 |  95.2712  |   4.7288  |   0.0000  |
+======================================================================+



 --------------------------
 Symmetry class Nr.:     1
 Multiplicity      :     3
 --------------------------

 Length of Excitation vectors in this class is:        68
 No Excitation Energies calculated in this symmetry class


 *******************************************************************************

 --------------------------
 Symmetry class Nr.:     2
 Multiplicity      :     1
 --------------------------

 Length of Excitation vectors in this class is:        18
 No Excitation Energies calculated in this symmetry class


 *******************************************************************************

 --------------------------
 Symmetry class Nr.:     2
 Multiplicity      :     3
 --------------------------

 Length of Excitation vectors in this class is:        34
 No Excitation Energies calculated in this symmetry class


 *******************************************************************************

 --------------------------
 Symmetry class Nr.:     3
 Multiplicity      :     1
 --------------------------

 Length of Excitation vectors in this class is:        18
 No Excitation Energies calculated in this symmetry class


 *******************************************************************************

 --------------------------
 Symmetry class Nr.:     3
 Multiplicity      :     3
 --------------------------

 Length of Excitation vectors in this class is:        34
 No Excitation Energies calculated in this symmetry class


 *******************************************************************************

 --------------------------
 Symmetry class Nr.:     4
 Multiplicity      :     1
 --------------------------

 Length of Excitation vectors in this class is:         8
 No Excitation Energies calculated in this symmetry class


 *******************************************************************************

 --------------------------
 Symmetry class Nr.:     4
 Multiplicity      :     3
 --------------------------

 Length of Excitation vectors in this class is:        16
 No Excitation Energies calculated in this symmetry class


 *******************************************************************************

 --------------------------
 Symmetry class Nr.:     5
 Multiplicity      :     1
 --------------------------

 Length of Excitation vectors in this class is:        28
 Converging for  1 roots.
 Vector nr.  3 of type LE  and symmetry  5 was not found on file.
Try to use right eigenvector as start for a left eigenvector.
 Vector nr.  3 of symmetry  5 found on file - RESTART SUCCESS
 Start vector is a  CCSD      RE vector


 SYMMETRY CLASS NR.    5
 MULTIPLICITY          1


 CCSD       left excitation energies:
 ====================================
 (conversion factor used: 1 au = 27.2113957 eV)

 Excitation no.       Hartree               eV 
 --------------       -------               --
         1            1.3519304662       36.7878993406


 Total excited state energies for states of symmetry/spin    5    1
 Excitation no.       Energy (Hartree) 
 ------------------------------------- 
@@    5    1            -4.079807649634099


 Analysis of the Coupled Cluster Excitation Vector Number :  1
 -------------------------------------------------------------

          Excitation Energy :                            36.7879 eV


          CC_PRAM:Overall Contribution of the Different Components
          --------------------------------------------------------



          Single Excitation Contribution :              98.5374 %

          Double Excitation Contribution :               1.4626 %

          ||T1||/||T2||                  :               8.2080

          Norm of Total Amplitude Vector :               1.0000


 +=============================================================================+
 | symmetry|  orbital index  |   Excitation Numbers             |   Amplitude  |
 |  Index  |   a   b   i   j |      NAI      NBJ |     NAIBJ    |              |
 +=============================================================================+
 | 1   5   |   1       1     |        3          |              |    0.992049  |
 +-----------------------------------------------------------------------------+
 | 5 1 1 1 |   1   1   1   1 |        1        1 |            1 |   -0.043752  |
 | 1 1 5 1 |   1   1   1   1 |        3        1 |            3 |   -0.031136  |
 | 5 5 1 5 |   1   1   1   1 |        1        3 |            9 |    0.045710  |
 | 5 5 1 5 |   1   2   1   1 |        1        4 |           13 |    0.080743  |
 | 1 5 5 5 |   1   2   1   1 |        3        4 |           15 |    0.040353  |
 +=============================================================================+


          Norm of Printed Amplitude Vector :             0.9986

          Printed all single excitations greater than 0.198532

          Printed all double excitations greater than 0.024188



+======================================================================+
| contributions of excitation levels to right eigenvectors as computed |
| from the (RE|RE) self overlap                                        |
+----------------------------------------------------------------------+
| sym | multi | state |    E / eV  | % singles | % doubles | % triples |
+======================================================================+
|    5|   1   |   1   |   36.78790 |  98.9313  |   1.0687  |   0.0000  |
+======================================================================+





+======================================================================+
| contributions of excitation levels to excited states as computed     |
| from the (LE|RE) overlap                                             |
+----------------------------------------------------------------------+
| sym | multi | state |    E / eV  | % singles | % doubles | % triples |
+======================================================================+
|    5|   1   |   1   |   36.78790 |  98.8473  |   1.1527  |   0.0000  |
+======================================================================+




 *******************************************************************************

 --------------------------
 Symmetry class Nr.:     5
 Multiplicity      :     3
 --------------------------

 Length of Excitation vectors in this class is:        52
 No Excitation Energies calculated in this symmetry class


 *******************************************************************************

 --------------------------
 Symmetry class Nr.:     6
 Multiplicity      :     1
 --------------------------

 Length of Excitation vectors in this class is:        18
 Converging for  1 roots.
 Vector nr.  4 of type LE  and symmetry  6 was not found on file.
Try to use right eigenvector as start for a left eigenvector.
 Vector nr.  4 of symmetry  6 found on file - RESTART SUCCESS
 Start vector is a  CCSD      RE vector


 SYMMETRY CLASS NR.    6
 MULTIPLICITY          1


 CCSD       left excitation energies:
 ====================================
 (conversion factor used: 1 au = 27.2113957 eV)

 Excitation no.       Hartree               eV 
 --------------       -------               --
         1            2.0453224636       55.6560553892


 Total excited state energies for states of symmetry/spin    6    1
 Excitation no.       Energy (Hartree) 
 ------------------------------------- 
@@    6    1            -3.386415652263747


 Analysis of the Coupled Cluster Excitation Vector Number :  1
 -------------------------------------------------------------

          Excitation Energy :                            55.6561 eV


          CC_PRAM:Overall Contribution of the Different Components
          --------------------------------------------------------



          Single Excitation Contribution :              98.5391 %

          Double Excitation Contribution :               1.4609 %

          ||T1||/||T2||                  :               8.2128

          Norm of Total Amplitude Vector :               1.0000


 +=============================================================================+
 | symmetry|  orbital index  |   Excitation Numbers             |   Amplitude  |
 |  Index  |   a   b   i   j |      NAI      NBJ |     NAIBJ    |              |
 +=============================================================================+
 | 2   5   |   1       1     |        2          |              |    0.992325  |
 +-----------------------------------------------------------------------------+
 | 5 2 1 1 |   1   1   1   1 |        1        1 |            1 |   -0.047001  |
 | 5 2 1 1 |   2   1   1   1 |        2        1 |            2 |    0.048066  |
 | 5 6 1 5 |   1   1   1   1 |        1        2 |            5 |    0.043367  |
 | 1 6 5 5 |   1   1   1   1 |        3        2 |            7 |    0.080021  |
 | 1 6 5 5 |   2   1   1   1 |        4        2 |            8 |   -0.032680  |
 +=============================================================================+


          Norm of Printed Amplitude Vector :             0.9993

          Printed all single excitations greater than 0.198534

          Printed all double excitations greater than 0.024174



+======================================================================+
| contributions of excitation levels to right eigenvectors as computed |
| from the (RE|RE) self overlap                                        |
+----------------------------------------------------------------------+
| sym | multi | state |    E / eV  | % singles | % doubles | % triples |
+======================================================================+
|    6|   1   |   1   |   55.65606 |  99.1557  |   0.8443  |   0.0000  |
+======================================================================+





+======================================================================+
| contributions of excitation levels to excited states as computed     |
| from the (LE|RE) overlap                                             |
+----------------------------------------------------------------------+
| sym | multi | state |    E / eV  | % singles | % doubles | % triples |
+======================================================================+
|    6|   1   |   1   |   55.65606 |  99.0121  |   0.9879  |   0.0000  |
+======================================================================+




 *******************************************************************************

 --------------------------
 Symmetry class Nr.:     6
 Multiplicity      :     3
 --------------------------

 Length of Excitation vectors in this class is:        34
 No Excitation Energies calculated in this symmetry class


 *******************************************************************************

 --------------------------
 Symmetry class Nr.:     7
 Multiplicity      :     1
 --------------------------

 Length of Excitation vectors in this class is:        18
 No Excitation Energies calculated in this symmetry class


 *******************************************************************************

 --------------------------
 Symmetry class Nr.:     7
 Multiplicity      :     3
 --------------------------

 Length of Excitation vectors in this class is:        34
 No Excitation Energies calculated in this symmetry class


 *******************************************************************************

 --------------------------
 Symmetry class Nr.:     8
 Multiplicity      :     1
 --------------------------

 Length of Excitation vectors in this class is:         8
 No Excitation Energies calculated in this symmetry class


 *******************************************************************************

 --------------------------
 Symmetry class Nr.:     8
 Multiplicity      :     3
 --------------------------

 Length of Excitation vectors in this class is:        16
 No Excitation Energies calculated in this symmetry class
     

   *******************************************************************
   *                                                                 *
   *<<<<<<<<   OUTPUT FROM PROPERTY AND SYMMETRY ANALYSIS   >>>>>>>>>*
   *                                                                 *
   *******************************************************************



                         +-------------------------------+
                         ! REQUESTED PROPERTY OPERATORS: !
                         +-------------------------------+

             Index   Oper. Label  Symmetry  Transp.  PDBS  Atom
             --------------------------------------------------
                1     HAM0            1        1      T      0
                2     YDIPLEN         2        1      F      0
                3     XDIPLEN         3        1      F      0
                4     ZDIPLEN         5        1      F      0
             --------------------------------------------------




                         +-------------------------------+
                         ! REQUESTED EXPECTATION VALUES: !
                         +-------------------------------+

                       Index   Oper. Label  Symmetry
                       -----------------------------
                       -----------------------------




                       +------------------------------------+
                       ! REQUESTED EFFECTIVE FOCK MATRICES: !
                       +------------------------------------+

                       Index   Oper. Label  Symmetry
                       -----------------------------
                       -----------------------------




                       +-----------------------------------+
                       ! REQUESTED FIRST ORDER XI VECTORS: !
                       +-----------------------------------+

             Index   Oper. Label  relaxed  Sym.     Frequency
             --------------------------------------------------
                1      YDIPLEN        F     2      0.000000D+00
                2      XDIPLEN        F     3      0.000000D+00
                3      ZDIPLEN        F     5      0.000000D+00
             --------------------------------------------------




                        +----------------------------------+
                        ! REQUESTED FIRST ORDER T VECTORS: !
                        +----------------------------------+

             Index   Oper. Label  relaxed  Sym.     Frequency
             --------------------------------------------------
                1      YDIPLEN        F     2     -1.062437D+00
                2      YDIPLEN        F     2     -1.022661D+00
                3      YDIPLEN        F     2     -7.930696D-01
                4      YDIPLEN        F     2      7.930696D-01
                5      YDIPLEN        F     2      1.022661D+00
                6      YDIPLEN        F     2      1.062437D+00
                7      XDIPLEN        F     3     -1.062437D+00
                8      XDIPLEN        F     3     -7.930696D-01
                9      XDIPLEN        F     3      7.930696D-01
               10      XDIPLEN        F     3      1.062437D+00
               11      ZDIPLEN        F     5     -1.062437D+00
               12      ZDIPLEN        F     5     -1.022661D+00
               13      ZDIPLEN        F     5     -7.930696D-01
               14      ZDIPLEN        F     5      7.930696D-01
               15      ZDIPLEN        F     5      1.022661D+00
               16      ZDIPLEN        F     5      1.062437D+00
             --------------------------------------------------




                       +------------------------------------+
                       ! REQUESTED FIRST ORDER ETA VECTORS: !
                       +------------------------------------+

             Index   Oper. Label  relaxed  Sym.     Frequency
             --------------------------------------------------
                1      YDIPLEN        F     2      0.000000D+00
                2      XDIPLEN        F     3      0.000000D+00
                3      ZDIPLEN        F     5      0.000000D+00
             --------------------------------------------------




                      +-------------------------------------+
                      ! REQUESTED FIRST ORDER ZETA VECTORS: !
                      +-------------------------------------+

             Index   Oper. Label  relaxed  Sym.     Frequency
             --------------------------------------------------
                1      YDIPLEN        F     2     -1.062437D+00
                2      YDIPLEN        F     2     -1.022661D+00
                3      YDIPLEN        F     2     -7.930696D-01
                4      XDIPLEN        F     3     -1.062437D+00
                5      XDIPLEN        F     3     -7.930696D-01
                6      ZDIPLEN        F     5     -1.062437D+00
                7      ZDIPLEN        F     5     -1.022661D+00
                8      ZDIPLEN        F     5     -7.930696D-01
             --------------------------------------------------




                        +----------------------------------+
                        ! REQUESTED FIRST ORDER M-VECTORS: !
                        +----------------------------------+

               Index   State Symmetry  Frequency
               --------------------------------------------------
                  1             1    1     1.586139D+00
                  2             2    1     2.124874D+00
                  3             3    5     1.351930D+00
                  4             4    6     2.045322D+00
               --------------------------------------------------


      

    *******************************************************************
    *          SOLVING COUPLED CLUSTER RESPONSE EQUATIONS             *
    *******************************************************************



 
 +======================================================================+
 !                     RHS & ETA VECTORS TO COMPUTE:                    !
 +======================================================================+
 | TYPE | # VEC. |  NEEDED FOR:                                         |
 +----------------------------------------------------------------------+
 |  O1  |    3   |  first-order amplitude equations                     |
 |  X1  |    3   |  first-order multipliers equations                   |
 +======================================================================+



 +======================================================================+
 !                       LINEAR EQUATIONS TO SOLVE:                     !
 +======================================================================+
 | TYPE | # VEC. |  EQUATION:                                           |
 +----------------------------------------------------------------------+
 |  R1  |   16   |  first-order amplitude response                      |
 |  L1  |    8   |  first-order multiplier response                     |
 |  M1  |    4   |  first-order ground - excited state multipliers      |
 +======================================================================+



 +======================================================================+
 !                F MATRIX TRANSFORMATIONS TO COMPUTE:                  !
 +======================================================================+
 | TYPE | # VEC. |  TRANSFORMED:                                        |
 +----------------------------------------------------------------------+
 |  F1  |   16   |  first-order amplitude response (R1) vector          |
 |  FR  |    4   |  right eigenvectors (RE)                             |
 +======================================================================+




 -------------------------------------------------------------------
 |          OUTPUT FROM AMPLITUDE RHS VECTOR SECTION               |
 -------------------------------------------------------------------



   For the requested  3 1th.-order amplitude rhs vectors "O1 ".
         -   0 D matrix transformations 
         -   0 C matrix transformations 
         -   0 B matrix transformations 
         -   0 C{O} matrix transformations 
         -   0 B{O} matrix transformations 
         -   0 A{O} matrix transformations 
         -   3Xi{O} vector calculations    
   will be performed.


 RPA: call cceq_str
 Vector nr.  1 of type R1  and symmetry  2 was not found on file.
 Vector nr.  2 of type R1  and symmetry  2 was not found on file.
 Vector nr.  3 of type R1  and symmetry  2 was not found on file.
 Vector nr.  4 of type R1  and symmetry  2 was not found on file.
 Vector nr.  5 of type R1  and symmetry  2 was not found on file.
 Vector nr.  6 of type R1  and symmetry  2 was not found on file.
 RPA: exit cceq_str
 RPA: call cceq_str
 Vector nr.  7 of type R1  and symmetry  3 was not found on file.
 Vector nr.  8 of type R1  and symmetry  3 was not found on file.
 Vector nr.  9 of type R1  and symmetry  3 was not found on file.
 Vector nr. 10 of type R1  and symmetry  3 was not found on file.
 RPA: exit cceq_str
 RPA: call cceq_str
 Vector nr. 11 of type R1  and symmetry  5 was not found on file.
 Vector nr. 12 of type R1  and symmetry  5 was not found on file.
 Vector nr. 13 of type R1  and symmetry  5 was not found on file.
 Vector nr. 14 of type R1  and symmetry  5 was not found on file.
 Vector nr. 15 of type R1  and symmetry  5 was not found on file.
 Vector nr. 16 of type R1  and symmetry  5 was not found on file.
 RPA: exit cceq_str
 RPA: call cceq_str
 Vector nr.  1 of type L1  and symmetry  2 was not found on file.
 Vector nr.  2 of type L1  and symmetry  2 was not found on file.
 Vector nr.  3 of type L1  and symmetry  2 was not found on file.
 RPA: exit cceq_str
 RPA: call cceq_str
 Vector nr.  4 of type L1  and symmetry  3 was not found on file.
 Vector nr.  5 of type L1  and symmetry  3 was not found on file.
 RPA: exit cceq_str
 RPA: call cceq_str
 Vector nr.  6 of type L1  and symmetry  5 was not found on file.
 Vector nr.  7 of type L1  and symmetry  5 was not found on file.
 Vector nr.  8 of type L1  and symmetry  5 was not found on file.
 RPA: exit cceq_str
[...]

 CCOPAPRT: RAU2CGS =    471.44358235695097     


     Transition from ground state to:
     number, multiplicity, symmetry :    1  ^1Ag 
     frequency :   1.5857954635 a.u.    43.15169 e.V.    348041.9 cm^-1

     +-----------+-----------------+-----------------+---------------------+
     | operator  |   left moment   |  right moment   | transition strength |
     +-----------+-----------------+-----------------+---------------------+
     | XDIPLEN   |      0.00000000 |      0.00000000 |       0.00000000    |
     | YDIPLEN   |      0.00000000 |      0.00000000 |       0.00000000    |
     | ZDIPLEN   |      0.00000000 |      0.00000000 |       0.00000000    |
     +-----------+-----------------+-----------------+---------------------+
       oscillator strength (length gauge)   :      0.00000000


     Transition from ground state to:
     number, multiplicity, symmetry :    2  ^1Ag 
     frequency :   2.1244995371 a.u.    57.81057 e.V.    466273.7 cm^-1

     +-----------+-----------------+-----------------+---------------------+
     | operator  |   left moment   |  right moment   | transition strength |
     +-----------+-----------------+-----------------+---------------------+
     | XDIPLEN   |      0.00000000 |      0.00000000 |       0.00000000    |
     | YDIPLEN   |      0.00000000 |      0.00000000 |       0.00000000    |
     | ZDIPLEN   |      0.00000000 |      0.00000000 |       0.00000000    |
     +-----------+-----------------+-----------------+---------------------+
       oscillator strength (length gauge)   :      0.00000000


     Transition from ground state to:
     number, multiplicity, symmetry :    3  ^1B1u
     frequency :   1.3517863846 a.u.    36.78398 e.V.    296682.8 cm^-1

     +-----------+-----------------+-----------------+---------------------+
     | operator  |   left moment   |  right moment   | transition strength |
     +-----------+-----------------+-----------------+---------------------+
     | XDIPLEN   |      0.00000000 |      0.00000000 |       0.00000000    |
     | YDIPLEN   |      0.00000000 |      0.00000000 |       0.00000000    |
     | ZDIPLEN   |     -0.48079338 |     -0.95174601 |       0.45759318    |
     +-----------+-----------------+-----------------+---------------------+
       oscillator strength (length gauge)   :      0.41237882


     Transition from ground state to:
     number, multiplicity, symmetry :    4  ^1B3g
     frequency :   2.0450856378 a.u.    55.64961 e.V.    448844.4 cm^-1

     +-----------+-----------------+-----------------+---------------------+
     | operator  |   left moment   |  right moment   | transition strength |
     +-----------+-----------------+-----------------+---------------------+
     | XDIPLEN   |      0.00000000 |      0.00000000 |       0.00000000    |
     | YDIPLEN   |      0.00000000 |      0.00000000 |       0.00000000    |
     | ZDIPLEN   |      0.00000000 |      0.00000000 |       0.00000000    |
     +-----------+-----------------+-----------------+---------------------+
       oscillator strength (length gauge)   :      0.00000000

 ******************************************************************
 *                                                                *
 *<<<<<<    OUTPUT FROM COUPLED CLUSTER LINEAR RESPONSE    >>>>>>>*
 *                                                                *
 *<<<<<<  CALCULATION OF TWO-PHOTON AABSORPTION STRENGHTS  >>>>>>>*
 *                                                                *
 ******************************************************************



   For the requested  8 two-photon transition moments
         -   8 generalized F matrix transf. M1 x B x R1
         -   8 generalized Eta vector calc. M1 x A{O}
         -   8 generalized F matrix transf. LE x B x R1
         -   8 generalized Eta vector calc. LE x A{O}
         -   7 G matrix transformations     G  x R1 x R1
         -   8 F{O} matrix transformations  F{O} x RE
         -   8 generalized F matrix transf. L1 x B x RE
         -   8 generalized Eta vector calc. L1 x A{O}
         -   0 M1 x O2 dot products
         -   0 LE x O2 dot products
         -   0 RE x X2 dot products
   will be performed.


 +--------------------------------------------------+
 | total time for   7 G transforms.:      0.04 secs.|
 +==================================================+



>>> Time used for    7 G matrix transformations:           0.04 seconds.

>>> Time used for    8 F{O} matrix transformations:        0.06 seconds.

>>> Time used for   24 F matrix transformations:        0.24 seconds.

>>> Time used for   24 Eta{O} vector calculation:        0.19 seconds.

>>> Total time for  72 quadratic response func.:        0.54 seconds.


           +------------------------------------------------------------+
           !      FINAL CC3 RESULTS FOR TWO-PHOTON ABSORPTION STRENGTHS !
           +------------------------------------------------------------+



   transition         :   X ^1Ag   <--    1^1B1u
   excitation energy  :   1.3517863846 a.u.    36.784 e.V.    296683. cm^-1
   photon energy for A:   0.6758931923 a.u.    18.392 e.V.    148341. cm^-1
   photon energy for B:   0.6758931923 a.u.    18.392 e.V.    148341. cm^-1

   +-------------------+----------------+----------------+----------------+
   |    A        B     | M_0f( -0.6759) | M_f0(  0.6759) | S^0f(  0.6759) |
   +-------------------+----------------+----------------+----------------+
   | XDIPLEN  XDIPLEN  |      ---       |      ---       |      ---       |
   | XDIPLEN  YDIPLEN  |      ---       |      ---       |      ---       |
   | XDIPLEN  ZDIPLEN  |      ---       |      ---       |      ---       |
   | YDIPLEN  XDIPLEN  |      ---       |      ---       |      ---       |
   | YDIPLEN  YDIPLEN  |      ---       |      ---       |      ---       |
   | YDIPLEN  ZDIPLEN  |      ---       |      ---       |      ---       |
   | ZDIPLEN  XDIPLEN  |      ---       |      ---       |      ---       |
   | ZDIPLEN  YDIPLEN  |      ---       |      ---       |      ---       |
   | ZDIPLEN  ZDIPLEN  |      ---       |      ---       |      ---       |
   +-------------------+----------------+----------------+----------------+
       delta_F = S^0f_iijj/30   (length gauge)   :      0.00000000
       delta_G = S^0f_ijij/30   (length gauge)   :      0.00000000
       delta_H = S^0f_ijji/30   (length gauge)   :      0.00000000
 
       Rotationally averaged two-photon transition strengths
                       and rate constants
 
       +-------------------+----------------+----------------+
       |   Polarization    |    DELTA_TP    |   K (0 -> f)   |
       +-------------------+----------------+----------------+
       |  linear (para)    |   0.00000000   |  0.000000E+00  |
       +-------------------+----------------+----------------+
       |  linear (perp)    |   0.00000000   |  0.000000E+00  |
       +-------------------+----------------+----------------+
       |    circular       |   0.00000000   |  0.000000E+00  |
       +-------------------+----------------+----------------+


   transition         :   X ^1Ag   <--    1^1Ag 
   excitation energy  :   1.5857954635 a.u.    43.152 e.V.    348042. cm^-1
   photon energy for A:   0.7928977318 a.u.    21.576 e.V.    174021. cm^-1
   photon energy for B:   0.7928977318 a.u.    21.576 e.V.    174021. cm^-1

   +-------------------+----------------+----------------+----------------+
   |    A        B     | M_0f( -0.7929) | M_f0(  0.7929) | S^0f(  0.7929) |
   +-------------------+----------------+----------------+----------------+
   | XDIPLEN  XDIPLEN  |    -0.04020665 |    -0.02018381 |     0.00081152 |
   | XDIPLEN  YDIPLEN  |      ---       |      ---       |      ---       |
   | XDIPLEN  ZDIPLEN  |      ---       |      ---       |      ---       |
   | YDIPLEN  XDIPLEN  |      ---       |      ---       |      ---       |
   | YDIPLEN  YDIPLEN  |    -0.04020665 |    -0.02018381 |     0.00081152 |
   | YDIPLEN  ZDIPLEN  |      ---       |      ---       |      ---       |
   | ZDIPLEN  XDIPLEN  |      ---       |      ---       |      ---       |
   | ZDIPLEN  YDIPLEN  |      ---       |      ---       |      ---       |
   | ZDIPLEN  ZDIPLEN  |    -3.38404781 |    -1.69672093 |     5.74178474 |
   +-------------------+----------------+----------------+----------------+
       delta_F = S^0f_iijj/30   (length gauge)   :      0.20060252
       delta_G = S^0f_ijij/30   (length gauge)   :      0.19144693
       delta_H = S^0f_ijji/30   (length gauge)   :      0.19144693
 
       Rotationally averaged two-photon transition strengths
                       and rate constants
 
       +-------------------+----------------+----------------+
       |   Polarization    |    DELTA_TP    |   K (0 -> f)   |
       +-------------------+----------------+----------------+
       |  linear (para)    |   1.16699275   |  0.183820E-19  |
       +-------------------+----------------+----------------+
       |  linear (perp)    |   0.75663211   |  0.119182E-19  |
       +-------------------+----------------+----------------+
       |    circular       |   0.74747651   |  0.117739E-19  |
       +-------------------+----------------+----------------+


   transition         :   X ^1Ag   <--    1^1B3g
   excitation energy  :   2.0450856378 a.u.    55.650 e.V.    448844. cm^-1
   photon energy for A:   1.0225428189 a.u.    27.825 e.V.    224422. cm^-1
   photon energy for B:   1.0225428189 a.u.    27.825 e.V.    224422. cm^-1

   +-------------------+----------------+----------------+----------------+
   |    A        B     | M_0f( -1.0225) | M_f0(  1.0225) | S^0f(  1.0225) |
   +-------------------+----------------+----------------+----------------+
   | XDIPLEN  XDIPLEN  |      ---       |      ---       |      ---       |
   | XDIPLEN  YDIPLEN  |      ---       |      ---       |      ---       |
   | XDIPLEN  ZDIPLEN  |      ---       |      ---       |      ---       |
   | YDIPLEN  XDIPLEN  |      ---       |      ---       |      ---       |
   | YDIPLEN  YDIPLEN  |      ---       |      ---       |      ---       |
   | YDIPLEN  ZDIPLEN  |    -0.44540985 |    -0.22439528 |     0.09994787 |
   | ZDIPLEN  XDIPLEN  |      ---       |      ---       |      ---       |
   | ZDIPLEN  YDIPLEN  |    -0.44540985 |    -0.22439528 |     0.09994787 |
   | ZDIPLEN  ZDIPLEN  |      ---       |      ---       |      ---       |
   +-------------------+----------------+----------------+----------------+
       delta_F = S^0f_iijj/30   (length gauge)   :      0.00000000
       delta_G = S^0f_ijij/30   (length gauge)   :      0.00666319
       delta_H = S^0f_ijji/30   (length gauge)   :      0.00666319
 
       Rotationally averaged two-photon transition strengths
                       and rate constants
 
       +-------------------+----------------+----------------+
       |   Polarization    |    DELTA_TP    |   K (0 -> f)   |
       +-------------------+----------------+----------------+
       |  linear (para)    |   0.02665276   |  0.698225E-21  |
       +-------------------+----------------+----------------+
       |  linear (perp)    |   0.03331596   |  0.872781E-21  |
       +-------------------+----------------+----------------+
       |    circular       |   0.03997915   |  0.104734E-20  |
       +-------------------+----------------+----------------+


   transition         :   X ^1Ag   <--    2^1Ag 
   excitation energy  :   2.1244995371 a.u.    57.811 e.V.    466274. cm^-1
   photon energy for A:   1.0622497685 a.u.    28.905 e.V.    233137. cm^-1
   photon energy for B:   1.0622497685 a.u.    28.905 e.V.    233137. cm^-1

   +-------------------+----------------+----------------+----------------+
   |    A        B     | M_0f( -1.0622) | M_f0(  1.0622) | S^0f(  1.0622) |
   +-------------------+----------------+----------------+----------------+
   | XDIPLEN  XDIPLEN  |     0.21050431 |     0.10431905 |     0.02195961 |
   | XDIPLEN  YDIPLEN  |      ---       |      ---       |      ---       |
   | XDIPLEN  ZDIPLEN  |      ---       |      ---       |      ---       |
   | YDIPLEN  XDIPLEN  |      ---       |      ---       |      ---       |
   | YDIPLEN  YDIPLEN  |     0.21050431 |     0.10431905 |     0.02195961 |
   | YDIPLEN  ZDIPLEN  |      ---       |      ---       |      ---       |
   | ZDIPLEN  XDIPLEN  |      ---       |      ---       |      ---       |
   | ZDIPLEN  YDIPLEN  |      ---       |      ---       |      ---       |
   | ZDIPLEN  ZDIPLEN  |    -4.44815317 |    -2.20677048 |     9.81605309 |
   +-------------------+----------------+----------------+----------------+
       delta_F = S^0f_iijj/30   (length gauge)   :      0.26822560
       delta_G = S^0f_ijij/30   (length gauge)   :      0.32866574
       delta_H = S^0f_ijji/30   (length gauge)   :      0.32866574
 
       Rotationally averaged two-photon transition strengths
                       and rate constants
 
       +-------------------+----------------+----------------+
       |   Polarization    |    DELTA_TP    |   K (0 -> f)   |
       +-------------------+----------------+----------------+
       |  linear (para)    |   1.85111417   |  0.523331E-19  |
       +-------------------+----------------+----------------+
       |  linear (perp)    |   1.37510312   |  0.388757E-19  |
       +-------------------+----------------+----------------+
       |    circular       |   1.43554327   |  0.405844E-19  |
       +-------------------+----------------+----------------+

 requested model not yet implemented
  

 *******************************************************************************
 *******************************************************************************
 *                                                                             *
 *                                                                             *
 *                   SUMMARY OF COUPLED CLUSTER CALCULATION                    *
 *                                                                             *
 *                                                                             *
 *******************************************************************************
 *******************************************************************************

                                                                                
                                                                                
            Total SCF   energy:                    -5.3614342833                
            Total MP2   energy:                    -5.4188979270                
            Total CCSD  energy:                    -5.4317381158                
                                                                                
                                                                                
 +=============================================================================+
 |  sym. | Exci.  |        CCSD       Excitation energies            | ||T1||  |
 |(spin, |        +------------------------------------------------------------+
 | spat) |        |     Hartree    |       eV.      |     cm-1       |    %    |
 +=============================================================================+
 | ^1Ag  |    1   |     1.5861393  |      43.16105  |    348117.329  |  98.84  |
 | ^1Ag  |    2   |     2.1248743  |      57.82077  |    466355.990  |  96.75  |
 +-----------------------------------------------------------------------------+
 | ^1B1u |    1   |     1.3519305  |      36.78790  |    296714.438  |  98.93  |
 +-----------------------------------------------------------------------------+
 | ^1B3g |    1   |     2.0453225  |      55.65606  |    448896.390  |  99.16  |
 +=============================================================================+
                                                                                
                                                                                
     Total energies in Hartree:                                                 
             1 ^1Ag        -3.8455988436                                        
             2 ^1Ag        -3.3068638608                                        
             1 ^1B1u       -4.0798076496                                        
             1 ^1B3g       -3.3864156522                                        
                                                                                
                                                                                
            Total SCF   energy:                    -5.3614342833                
            Total RSTAR energy:                    -5.4317381158                
            Total CC3   energy:                    -5.4318075446                
                                                                                
                                                                                
 +=============================================================================+
 |  sym. | Exci.  |        CC3        Excitation energies            | ||T1||  |
 |(spin, |        +------------------------------------------------------------+
 | spat) |        |     Hartree    |       eV.      |     cm-1       |    %    |
 +=============================================================================+
 | ^1Ag  |    1   |     1.5857955  |      43.15169  |    348041.872  |  98.83  |
 | ^1Ag  |    2   |     2.1244995  |      57.81057  |    466273.748  |  96.67  |
 +-----------------------------------------------------------------------------+
 | ^1B1u |    1   |     1.3517864  |      36.78398  |    296682.816  |  98.92  |
 +-----------------------------------------------------------------------------+
 | ^1B3g |    1   |     2.0450856  |      55.64961  |    448844.412  |  99.14  |
 +=============================================================================+
                                                                                
                                                                                
     Total energies in Hartree:                                                 
             1 ^1Ag        -3.8460120811                                        
             2 ^1Ag        -3.3073080076                                        
             1 ^1B1u       -4.0800211601                                        
             1 ^1B3g       -3.3867219069                                        

  1 a.u. =        27.21138 eV.  
  1 a.u. =    219474.62934 cm-1.
  

 *******************************************************************************
 *******************************************************************************
 *                                                                             *
 *                                                                             *
 *                      END OF COUPLED CLUSTER CALCULATION                     *
 *                                                                             *
 *                                                                             *
 *******************************************************************************
 *******************************************************************************


 >>>> CPU and wall time for CC :       3.066      11.135

 
     Date and time (Linux)  : Sun Sep  8 20:43:13 2013
     Host name              : lpqlx131.ups-tlse.fr                    


                      .-------------------------------------.
                      | End of Coupled Cluster Section (CC) |
                      `-------------------------------------'

 >>>> Total CPU  time used in DALTON:   3.08 seconds
 >>>> Total wall time used in DALTON:  11.15 seconds

 
     Date and time (Linux)  : Sun Sep  8 20:43:13 2013
     Host name              : lpqlx131.ups-tlse.fr                    
