

     ************************************************************************
     *************** Dalton - An Electronic Structure Program ***************
     ************************************************************************

    This is output from DALTON release Dalton2018.alpha (2018)
         ( Web site: http://daltonprogram.org )

   ----------------------------------------------------------------------------

    NOTE:
     
    Dalton is an experimental code for the evaluation of molecular
    properties using (MC)SCF, DFT, CI, and CC wave functions.
    The authors accept no responsibility for the performance of
    the code or for the correctness of the results.
     
    The code (in whole or part) is provided under a licence and
    is not to be reproduced for further distribution without
    the written permission of the authors or their representatives.
     
    See the home page "http://daltonprogram.org" for further information.
     
    If results obtained with this code are published,
    the appropriate citations would be both of:
     
       K. Aidas, C. Angeli, K. L. Bak, V. Bakken, R. Bast,
       L. Boman, O. Christiansen, R. Cimiraglia, S. Coriani,
       P. Dahle, E. K. Dalskov, U. Ekstroem,
       T. Enevoldsen, J. J. Eriksen, P. Ettenhuber, B. Fernandez,
       L. Ferrighi, H. Fliegl, L. Frediani, K. Hald, A. Halkier,
       C. Haettig, H. Heiberg, T. Helgaker, A. C. Hennum,
       H. Hettema, E. Hjertenaes, S. Hoest, I.-M. Hoeyvik,
       M. F. Iozzi, B. Jansik, H. J. Aa. Jensen, D. Jonsson,
       P. Joergensen, J. Kauczor, S. Kirpekar,
       T. Kjaergaard, W. Klopper, S. Knecht, R. Kobayashi, H. Koch,
       J. Kongsted, A. Krapp, K. Kristensen, A. Ligabue,
       O. B. Lutnaes, J. I. Melo, K. V. Mikkelsen, R. H. Myhre,
       C. Neiss, C. B. Nielsen, P. Norman, J. Olsen,
       J. M. H. Olsen, A. Osted, M. J. Packer, F. Pawlowski,
       T. B. Pedersen, P. F. Provasi, S. Reine, Z. Rinkevicius,
       T. A. Ruden, K. Ruud, V. Rybkin, P. Salek, C. C. M. Samson,
       A. Sanchez de Meras, T. Saue, S. P. A. Sauer,
       B. Schimmelpfennig, K. Sneskov, A. H. Steindal,
       K. O. Sylvester-Hvid, P. R. Taylor, A. M. Teale,
       E. I. Tellgren, D. P. Tew, A. J. Thorvaldsen, L. Thoegersen,
       O. Vahtras, M. A. Watson, D. J. D. Wilson, M. Ziolkowski
       and H. Agren,
       "The Dalton quantum chemistry program system",
       WIREs Comput. Mol. Sci. 2014, 4:269–284 (doi: 10.1002/wcms.1172)
     
    and
     
       Dalton, a Molecular Electronic Structure Program,
       Release Dalton2018.alpha (2018), see http://daltonprogram.org
   ----------------------------------------------------------------------------

    Authors in alphabetical order (major contribution(s) in parenthesis):

  Kestutis Aidas,           Vilnius University,           Lithuania   (QM/MM)
  Celestino Angeli,         University of Ferrara,        Italy       (NEVPT2)
  Keld L. Bak,              UNI-C,                        Denmark     (AOSOPPA, non-adiabatic coupling, magnetic properties)
  Vebjoern Bakken,          University of Oslo,           Norway      (DALTON; geometry optimizer, symmetry detection)
  Radovan Bast,             UiT The Arctic U. of Norway,  Norway      (DALTON installation and execution frameworks)
  Pablo Baudin,             University of Valencia,       Spain       (Cholesky excitation energies)
  Linus Boman,              NTNU,                         Norway      (Cholesky decomposition and subsystems)
  Ove Christiansen,         Aarhus University,            Denmark     (CC module)
  Renzo Cimiraglia,         University of Ferrara,        Italy       (NEVPT2)
  Sonia Coriani,            University of Trieste,        Italy       (CC module, MCD in RESPONS)
  Janusz Cukras,            University of Trieste,        Italy       (MChD in RESPONS)
  Paal Dahle,               University of Oslo,           Norway      (Parallelization)
  Erik K. Dalskov,          UNI-C,                        Denmark     (SOPPA)
  Thomas Enevoldsen,        Univ. of Southern Denmark,    Denmark     (SOPPA)
  Janus J. Eriksen,         Aarhus University,            Denmark     (Polarizable embedding model, TDA)
  Rasmus Faber,             University of Copenhagen,     Denmark     (Vib.avg. NMR with SOPPA, parallel AO-SOPPA)
  Berta Fernandez,          U. of Santiago de Compostela, Spain       (doublet spin, ESR in RESPONS)
  Lara Ferrighi,            Aarhus University,            Denmark     (PCM Cubic response)
  Heike Fliegl,             University of Oslo,           Norway      (CCSD(R12))
  Luca Frediani,            UiT The Arctic U. of Norway,  Norway      (PCM)
  Bin Gao,                  UiT The Arctic U. of Norway,  Norway      (Gen1Int library)
  Christof Haettig,         Ruhr-University Bochum,       Germany     (CC module)
  Kasper Hald,              Aarhus University,            Denmark     (CC module)
  Asger Halkier,            Aarhus University,            Denmark     (CC module)
  Frederik Beyer Hansen,    University of Copenhagen,     Denmark     (Parallel AO-SOPPA)
  Erik D. Hedegaard,        Univ. of Southern Denmark,    Denmark     (Polarizable embedding model, QM/MM)
  Hanne Heiberg,            University of Oslo,           Norway      (geometry analysis, selected one-electron integrals)
  Trygve Helgaker,          University of Oslo,           Norway      (DALTON; ABACUS, ERI, DFT modules, London, and much more)
  Alf Christian Hennum,     University of Oslo,           Norway      (Parity violation)
  Hinne Hettema,            University of Auckland,       New Zealand (quadratic response in RESPONS; SIRIUS supersymmetry)
  Eirik Hjertenaes,         NTNU,                         Norway      (Cholesky decomposition)
  Pi A. B. Haase,           University of Copenhagen,     Denmark     (Triplet AO-SOPPA)
  Maria Francesca Iozzi,    University of Oslo,           Norway      (RPA)
  Christoph Jacob           TU Braunschweig               Germany     (Frozen density embedding model)
  Brano Jansik              Technical Univ. of Ostrava    Czech Rep.  (DFT cubic response)
  Hans Joergen Aa. Jensen,  Univ. of Southern Denmark,    Denmark     (DALTON; SIRIUS, RESPONS, ABACUS modules, London, and much more)
  Dan Jonsson,              UiT The Arctic U. of Norway,  Norway      (cubic response in RESPONS module)
  Poul Joergensen,          Aarhus University,            Denmark     (RESPONS, ABACUS, and CC modules)
  Maciej Kaminski,          University of Warsaw,         Poland      (CPPh in RESPONS)
  Joanna Kauczor,           Linkoeping University,        Sweden      (Complex polarization propagator (CPP) module)
  Sheela Kirpekar,          Univ. of Southern Denmark,    Denmark     (Mass-velocity & Darwin integrals)
  Wim Klopper,              KIT Karlsruhe,                Germany     (R12 code in CC, SIRIUS, and ABACUS modules)
  Stefan Knecht,            ETH Zurich,                   Switzerland (Parallel CI and MCSCF)
  Rika Kobayashi,           Australian National Univ.,    Australia   (DIIS in CC, London in MCSCF)
  Henrik Koch,              NTNU,                         Norway      (CC module, Cholesky decomposition)
  Jacob Kongsted,           Univ. of Southern Denmark,    Denmark     (Polarizable embedding model, QM/MM)
  Andrea Ligabue,           University of Modena,         Italy       (CTOCD, AOSOPPA)
  Nanna H. List             Univ. of Southern Denmark,    Denmark     (Polarizable embedding model)
  Ola B. Lutnaes,           University of Oslo,           Norway      (DFT Hessian)
  Juan I. Melo,             University of Buenos Aires,   Argentina   (LRESC, Relativistic Effects on NMR Shieldings)
  Kurt V. Mikkelsen,        University of Copenhagen,     Denmark     (MC-SCRF and QM/MM)
  Rolf H. Myhre,            NTNU,                         Norway      (Cholesky, subsystems and ECC2)
  Christian Neiss,          Univ. Erlangen-Nuernberg,     Germany     (CCSD(R12))
  Christian B. Nielsen,     University of Copenhagen,     Denmark     (QM/MM)
  Patrick Norman,           KTH Stockholm,                Sweden      (Cubic response and complex frequency response in RESPONS)
  Jeppe Olsen,              Aarhus University,            Denmark     (SIRIUS CI/density modules)
  Jogvan Magnus H. Olsen,   Univ. of Southern Denmark,    Denmark     (Polarizable embedding model, QM/MM)
  Anders Osted,             Copenhagen University,        Denmark     (QM/MM)
  Martin J. Packer,         University of Sheffield,      UK          (SOPPA)
  Filip Pawlowski,          Kazimierz Wielki University,  Poland      (CC3)
  Morten N. Pedersen,       Univ. of Southern Denmark,    Denmark     (Polarizable embedding model)
  Thomas B. Pedersen,       University of Oslo,           Norway      (Cholesky decomposition)
  Patricio F. Provasi,      University of Northeastern,   Argentina   (Analysis of coupling constants in localized orbitals)
  Zilvinas Rinkevicius,     KTH Stockholm,                Sweden      (open-shell DFT, ESR)
  Elias Rudberg,            KTH Stockholm,                Sweden      (DFT grid and basis info)
  Torgeir A. Ruden,         University of Oslo,           Norway      (Numerical derivatives in ABACUS)
  Kenneth Ruud,             UiT The Arctic U. of Norway,  Norway      (DALTON; ABACUS magnetic properties and much more)
  Pawel Salek,              KTH Stockholm,                Sweden      (DALTON; DFT code)
  Claire C. M. Samson       University of Karlsruhe       Germany     (Boys localization, r12 integrals in ERI)
  Alfredo Sanchez de Meras, University of Valencia,       Spain       (CC module, Cholesky decomposition)
  Trond Saue,               Paul Sabatier University,     France      (direct Fock matrix construction)
  Stephan P. A. Sauer,      University of Copenhagen,     Denmark     (SOPPA(CCSD), SOPPA prop., AOSOPPA, vibrational g-factors)
  Andre S. P. Gomes         CNRS/Universite de Lille      France      (Frozen density embedding model)
  Bernd Schimmelpfennig,    Forschungszentrum Karlsruhe,  Germany     (AMFI module)
  Kristian Sneskov,         Aarhus University,            Denmark     (Polarizable embedding model, QM/MM)
  Arnfinn H. Steindal,      UiT The Arctic U. of Norway,  Norway      (parallel QM/MM, Polarizable embedding model)
  Casper Steinmann,         Univ. of Southern Denmark,    Denmark     (QFIT, Polarizable embedding model)
  K. O. Sylvester-Hvid,     University of Copenhagen,     Denmark     (MC-SCRF)
  Peter R. Taylor,          VLSCI/Univ. of Melbourne,     Australia   (Symmetry handling ABACUS, integral transformation)
  Andrew M. Teale,          University of Nottingham,     England     (DFT-AC, DFT-D)
  David P. Tew,             University of Bristol,        England     (CCSD(R12))
  Olav Vahtras,             KTH Stockholm,                Sweden      (triplet response, spin-orbit, ESR, TDDFT, open-shell DFT)
  Lucas Visscher            Vrije Universiteit Amsterdam  Netherlands (Frozen density embedding model)
  David J. Wilson,          La Trobe University,          Australia   (DFT Hessian and DFT magnetizabilities)
  Hans Agren,               KTH Stockholm,                Sweden      (SIRIUS module, RESPONS, MC-SCRF solvation model)
 --------------------------------------------------------------------------------

     Date and time (Linux)  : Wed Sep  5 11:38:11 2018
     Host name              : foeroyar                                

 * Work memory size             :    64000000 =  488.28 megabytes.

 * Directories for basis set searches:
   1) /home/magnus/Projects/dalton_devel/dalton-foeroyingur/build/test/cc_beta_solv
   2) /home/magnus/Projects/dalton_devel/dalton-foeroyingur/build/basis


Compilation information
-----------------------

 Who compiled             | magnus
 Host                     | foeroyar
 System                   | Linux-4.17.12-200.fc28.x86_64
 CMake generator          | Unix Makefiles
 Processor                | x86_64
 64-bit integers          | OFF
 MPI                      | OFF
 Fortran compiler         | /usr/bin/gfortran
 Fortran compiler version | GNU Fortran (GCC) 8.1.1 20180712 (Red Hat 8.1.1-5)
 C compiler               | /usr/bin/gcc
 C compiler version       | gcc (GCC) 8.1.1 20180712 (Red Hat 8.1.1-5)
 C++ compiler             | /usr/bin/g++
 C++ compiler version     | g++ (GCC) 8.1.1 20180712 (Red Hat 8.1.1-5)
 BLAS                     | /home/magnus/intel/compilers_and_libraries_2018.3.
                          | 222/linux/mkl/lib/intel64/libmkl_gf_lp64.so;/home/
                          | magnus/intel/compilers_and_libraries_2018.3.222/li
                          | nux/mkl/lib/intel64/libmkl_sequential.so;/home/mag
                          | nus/intel/compilers_and_libraries_2018.3.222/linux
                          | /mkl/lib/intel64/libmkl_core.so;/usr/lib64/libpthr
                          | ead.so;/usr/lib64/libm.so
 LAPACK                   | /home/magnus/intel/compilers_and_libraries_2018.3.
                          | 222/linux/mkl/lib/intel64/libmkl_lapack95_lp64.a;/
                          | home/magnus/intel/compilers_and_libraries_2018.3.2
                          | 22/linux/mkl/lib/intel64/libmkl_gf_lp64.so
 Static linking           | OFF
 Last Git revision        | 81bf9373ccd8f5daaa6ed3ff7e43f676eea84bc1
 Git branch               | master
 Configuration time       | 2018-09-03 20:59:56.165003


   Content of the .dal input file
 ----------------------------------

**DALTON
.RUN WAVE FUNCTIONS
**INTEGRALS
.DIPLEN
.DIPVEL
*ONEINT
.SOLVENT
 10
**WAVE FUNCTIONS
.CC
*SCF INP
.THRESH
1.0D-9
*CC INP
.CC2
.CCSD
.FREEZE
 5 0
.THRLEQ
 1.0D-9
.THRENR
 1.0D-12
.PRINT
 1
.MAX IT
 80
*CCSLV
.SOLVAT
 1
 10 4.53  20.7   1.841
.ETOLSL
 1.0D-10
.TTOLSL
 1.0D-06
.LTOLSL
 1.0D-06
.MXSLIT
 50
*CCFOP
.DIPMOM
.NONREL
*CCQR
.DIPOLE
.SHGFRE
 1
 0.0040
**END OF DALTON INPUT


   Content of the .mol file
 ----------------------------

BASIS
6-31G
Test solvent for CCSD excitation energies
and various properties
    2    2  X  Y        1.D-17
      16.     1    3    1    1    1
S#1   0.0000000000000000  0.0000000000000000 -0.1947465500000000       *
        1.    1    2    1    1
H#2   1.8082633700000000  0.0000000000000000  1.5453841700000000       *


       *******************************************************************
       *********** Output from DALTON general input processing ***********
       *******************************************************************

 --------------------------------------------------------------------------------
   Overall default print level:    0
   Print level for DALTON.STAT:    1

    HERMIT 1- and 2-electron integral sections will be executed
    "Old" integral transformation used (limited to max 255 basis functions)
    Wave function sections will be executed (SIRIUS module)
 --------------------------------------------------------------------------------


   ****************************************************************************
   *************** Output of molecule and basis set information ***************
   ****************************************************************************


    The two title cards from your ".mol" input:
    ------------------------------------------------------------------------
 1: Test solvent for CCSD excitation energies                               
 2: and various properties                                                  
    ------------------------------------------------------------------------



@ INFO - deprecated old .mol fixed format input has been detected:
    2    2  X  Y        1.D-17                                                  
@ INFO - this input format may not be supported in future releases.




  INFO from READIN: Threshold for discarding integrals was    1.00D-17
  INFO from READIN: Threshold is reset to minimum value       1.00D-15

  Atomic type no.    1
  --------------------
  Nuclear charge:  16.00000
  Number of symmetry independent centers:    1
  Number of basis sets to read;    2
  Basis set file used for this atomic type with Z =  16 :
     "/home/magnus/Projects/dalton_devel/dalton-foeroyingur/build/basis/6-31G"

  Info about the basis set file: your basis has no documentation.
  Basis set: 6-31G                                                                           

  Atomic type no.    2
  --------------------
  Nuclear charge:   1.00000
  Number of symmetry independent centers:    1
  Number of basis sets to read;    2
  Basis set file used for this atomic type with Z =   1 :
     "/home/magnus/Projects/dalton_devel/dalton-foeroyingur/build/basis/6-31G"

  Info about the basis set file: your basis has no documentation.
  Basis set: 6-31G                                                                           


                         SYMGRP: Point group information
                         -------------------------------

@    Point group: C2v

@  * The irrep name for each symmetry:    1: A1     2: B1     3: B2     4: A2 

   * The point group was generated by:

      Reflection in the yz-plane
      Reflection in the xz-plane

   * Group multiplication table

        |  E   C2z  Oxz  Oyz
   -----+--------------------
     E  |  E   C2z  Oxz  Oyz
    C2z | C2z   E   Oyz  Oxz
    Oxz | Oxz  Oyz   E   C2z
    Oyz | Oyz  Oxz  C2z   E 

   * Character table

        |  E   C2z  Oxz  Oyz
   -----+--------------------
    A1  |   1    1    1    1
    B1  |   1   -1    1   -1
    B2  |   1   -1   -1    1
    A2  |   1    1   -1   -1

   * Direct product table

        | A1   B1   B2   A2 
   -----+--------------------
    A1  | A1   B1   B2   A2 
    B1  | B1   A1   A2   B2 
    B2  | B2   A2   A1   B1 
    A2  | A2   B2   B1   A1 


                                 Isotopic Masses
                                 ---------------

                           S#1        31.972072
                           H#2 _1      1.007825
                           H#2 _2      1.007825

                       Total mass:    33.987722 amu
                       Natural abundance:  94.991 %

 Center-of-mass coordinates (a.u.):    0.000000    0.000000   -0.091548


  Atoms and basis sets
  --------------------

  Number of atom types :    2
  Total number of atoms:    3

  Basis set used is "6-31G" from the basis set library.

  label    atoms   charge   prim   cont     basis
  ----------------------------------------------------------------------
  S#          1   16.0000    46    13      [16s10p|4s3p]                                      
  H#          2    1.0000     4     2      [4s|2s]                                            
  ----------------------------------------------------------------------
  total:      3   18.0000    54    17
  ----------------------------------------------------------------------
  Spherical harmonic basis used.

  Threshold for neglecting AO integrals:  1.00D-15


  Cartesian Coordinates (a.u.)
  ----------------------------

  Total number of coordinates:    9
  S#1     :     1  x   0.0000000000    2  y   0.0000000000    3  z  -0.1947465500
  H#2 / 1 :     4  x   1.8082633700    5  y   0.0000000000    6  z   1.5453841700
  H#2 / 2 :     7  x  -1.8082633700    8  y   0.0000000000    9  z   1.5453841700


  Symmetry Coordinates
  --------------------

  Number of coordinates in each symmetry:     3    3    2    1

  Symmetry  A1  ( 1)

    1   S#1   z    3
    2   H#2   x    [  4  -    7 ]/2
    3   H#2   z    [  6  +    9 ]/2

  Symmetry  B1  ( 2)

    4   S#1   x    1
    5   H#2   x    [  4  +    7 ]/2
    6   H#2   z    [  6  -    9 ]/2

  Symmetry  B2  ( 3)

    7   S#1   y    2
    8   H#2   y    [  5  +    8 ]/2

  Symmetry  A2  ( 4)

    9   H#2   y    [  5  -    8 ]/2


   Interatomic separations (in Angstrom):
   --------------------------------------

            S#1         H#2 _1      H#2 _2
            ------      ------      ------
 S#1   :    0.000000
 H#2 _1:    1.328000    0.000000
 H#2 _2:    1.328000    1.913784    0.000000


  Max    interatomic separation is    1.9138 Angstrom (    3.6165 Bohr)
  between atoms    3 and    2, "H#2 _2" and "H#2 _1".

  Min HX interatomic separation is    1.3280 Angstrom (    2.5096 Bohr)


  Bond distances (Angstrom):
  --------------------------

                  atom 1     atom 2       distance
                  ------     ------       --------
  bond distance:  H#2 _1     S#1          1.328000
  bond distance:  H#2 _2     S#1          1.328000


  Bond angles (degrees):
  ----------------------

                  atom 1     atom 2     atom 3         angle
                  ------     ------     ------         -----
  bond angle:     H#2 _1     S#1        H#2 _2        92.200




 Principal moments of inertia (u*A**2) and principal axes
 --------------------------------------------------------

   IA       1.607792          1.000000    0.000000    0.000000
   IB       1.845614          0.000000    0.000000    1.000000
   IC       3.453405          0.000000    1.000000    0.000000


 Rotational constants
 --------------------

@    The molecule is planar.

               A                   B                   C

         314331.0876         273827.1073         146342.2140 MHz
           10.484956            9.133889            4.881451 cm-1


@  Nuclear repulsion energy :   13.027767958065 Hartree


  Symmetry Orbitals
  -----------------

  Number of orbitals in each symmetry:           9    5    3    0


  Symmetry  A1 ( 1)

    1     S#1      1s         1
    2     S#1      1s         2
    3     S#1      1s         3
    4     S#1      1s         4
    5     S#1      2pz        7
    6     S#1      2pz       10
    7     S#1      2pz       13
    8     H#2      1s        14 +   15
    9     H#2      1s        16 +   17


  Symmetry  B1 ( 2)

   10     S#1      2px        5
   11     S#1      2px        8
   12     S#1      2px       11
   13     H#2      1s        14 -   15
   14     H#2      1s        16 -   17


  Symmetry  B2 ( 3)

   15     S#1      2py        6
   16     S#1      2py        9
   17     S#1      2py       12


  No orbitals in symmetry  A2 ( 4)

  Symmetries of electric field:  B1 (2)  B2 (3)  A1 (1)

  Symmetries of magnetic field:  B2 (3)  B1 (2)  A2 (4)


                     .---------------------------------------.
                     | Starting in Integral Section (HERMIT) |
                     `---------------------------------------'



 ***************************************************************************************
 ****************** Output from **INTEGRALS input processing (HERMIT) ******************
 ***************************************************************************************



    *************************************************************************
    ****************** Output from HERMIT input processing ******************
    *************************************************************************


 Default print level:        1

 * Nuclear model: Point charge

 Calculation of one- and two-electron Hamiltonian integrals.

 The following one-electron property integrals are calculated as requested:
          - overlap integrals
          - dipole length integrals
          - dipole velocity integrals

 Center of mass  (bohr):      0.000000000000      0.000000000000     -0.091547680544
 Operator center (bohr):      0.000000000000      0.000000000000      0.000000000000
 Gauge origin    (bohr):      0.000000000000      0.000000000000      0.000000000000
 Dipole origin   (bohr):      0.000000000000      0.000000000000      0.000000000000


  Changes of defaults for ONEINP:
  -------------------------------

 One-electron RLM integrals calculated.
 Maximum L quantum number: 10
 All symmetries saved on file.

 Cavity center (center of mass):    0.000000    0.000000   -0.091548


     ************************************************************************
     ************************** Output from HERINT **************************
     ************************************************************************



                      Nuclear contribution to dipole moments
                      --------------------------------------

                 au               Debye          C m (/(10**-30)

      z     -0.02517646        -0.06399217        -0.21345492



 Threshold for neglecting two-electron integrals:  1.00D-15
 HERMIT - Number of two-electron integrals written:        3192 ( 27.1% )
 HERMIT - Megabytes written:                              0.041

  Total CPU  time used in HERMIT:   0.09 seconds
  Total wall time used in HERMIT:   0.09 seconds


                        .----------------------------------.
                        | End of Integral Section (HERMIT) |
                        `----------------------------------'



                   .--------------------------------------------.
                   | Starting in Wave Function Section (SIRIUS) |
                   `--------------------------------------------'


 *** Output from Huckel module :

     Using EWMO model:          F
     Using EHT  model:          T
     Number of Huckel orbitals each symmetry:    8    4    3    1

 Huckel EHT eigenvalues for symmetry :  1
          -92.015557      -9.031675      -6.689824      -1.094329      -0.536063
           -0.238166      -0.055556      -0.046728

HUCDRV: reduced number of huckel orbitals in sym 1 from 8 to 7

 Huckel EHT eigenvalues for symmetry :  2
           -6.689940      -0.612541      -0.258110      -0.029777

 Huckel EHT eigenvalues for symmetry :  3
           -6.688000      -0.426300      -0.055556

HUCDRV: reduced number of huckel orbitals in sym 3 from 3 to 2

HUCDRV warning in symmetry  4
    1 Huckel orbitals, but no orbitals!
Thus no Huckel projection in this symmetry!

 **********************************************************************
 *SIRIUS* a direct, restricted step, second order MCSCF program       *
 **********************************************************************

 
     Date and time (Linux)  : Wed Sep  5 11:38:11 2018
     Host name              : foeroyar                                

 Title lines from ".mol" input file:
     Test solvent for CCSD excitation energies                               
     and various properties                                                  

 Print level on unit LUPRI =   2 is   0
 Print level on unit LUW4  =   2 is   5

@    (Integral direct) CC calculation.

@    This is a combination run starting with
@              a restricted, closed shell Hartree-Fock calculation


 Initial molecular orbitals are obtained according to
 ".MOSTART EHT   " input option

     Wave function specification
     ============================

     For the specification of the Coupled Cluster: see later.

@    Wave function type        --- CC ---
@    Number of closed shell electrons          18
@    Number of electrons in active shells       0
@    Total charge of the molecule               0

@    Spin multiplicity and 2 M_S                1         0
@    Total number of symmetries                 4 (point group: C2v)
@    Reference state symmetry                   1 (irrep name : A1 )

     Orbital specifications
     ======================
@    Abelian symmetry species          All |    1    2    3    4
@                                          |  A1   B1   B2   A2 
                                       --- |  ---  ---  ---  ---
@    Total number of orbitals           17 |    9    5    3    0
@    Number of basis functions          17 |    9    5    3    0

      ** Automatic occupation of RHF orbitals **

      -- Initial occupation of symmetries is determined from extended Huckel guess.           
      -- Initial occupation of symmetries is :
@    Occupied SCF orbitals               9 |    5    2    2    0

     Maximum number of Fock   iterations      0
     Maximum number of DIIS   iterations     60
     Maximum number of QC-SCF iterations     60
     Threshold for SCF convergence     1.00D-09


 Changes of defaults for CC:
 ---------------------------


 -Implicit frozen core calculation
 -Quadratic response properties calculated
 -Dipole moment calculated
  


 ***********************************************
 ***** DIIS acceleration of SCF iterations *****
 ***********************************************

 C1-DIIS algorithm; max error vectors =    8

 Automatic occupation of symmetries with  18 electrons.

 Iter     Total energy    Error norm  Delta(E)    SCF occupation
 -----------------------------------------------------------------------------

Calculating AOSUPINT
     (Precalculated AO two-electron integrals are transformed to P-supermatrix elements.
      Threshold for discarding integrals :  1.00D-15 )
@  1  -398.547989424       1.27D+00  -3.99D+02     5   2   2   0
      Virial theorem: -V/T =      2.000926
@    MULPOP   S#1     0.26; H#2 _1 -0.13; H#2 _2 -0.13; 
   1  Level shift: doubly occupied orbital energies shifted by -2.00D-01
 -----------------------------------------------------------------------------
@  2  -398.620198039       2.13D-01  -7.22D-02     5   2   2   0
      Virial theorem: -V/T =      1.998895
@    MULPOP   S#1    -0.02; H#2 _1  0.01; H#2 _2  0.01; 
   2  Level shift: doubly occupied orbital energies shifted by -5.00D-02
 -----------------------------------------------------------------------------
@  3  -398.625763921       5.84D-02  -5.57D-03     5   2   2   0
      Virial theorem: -V/T =      1.999347
@    MULPOP   S#1    -0.07; H#2 _1  0.03; H#2 _2  0.03; 
   3  Level shift: doubly occupied orbital energies shifted by -2.50D-02
 -----------------------------------------------------------------------------
@  4  -398.626295670       1.34D-02  -5.32D-04     5   2   2   0
      Virial theorem: -V/T =      1.999234
@    MULPOP   S#1    -0.10; H#2 _1  0.05; H#2 _2  0.05; 
 -----------------------------------------------------------------------------
@  5  -398.626328352       2.11D-03  -3.27D-05     5   2   2   0
      Virial theorem: -V/T =      1.999286
@    MULPOP   S#1    -0.11; H#2 _1  0.05; H#2 _2  0.05; 
 -----------------------------------------------------------------------------
@  6  -398.626329214       3.76D-04  -8.62D-07     5   2   2   0
      Virial theorem: -V/T =      1.999284
@    MULPOP   S#1    -0.11; H#2 _1  0.05; H#2 _2  0.05; 
 -----------------------------------------------------------------------------
@  7  -398.626329241       4.83D-05  -2.63D-08     5   2   2   0
      Virial theorem: -V/T =      1.999285
@    MULPOP   S#1    -0.11; H#2 _1  0.05; H#2 _2  0.05; 
 -----------------------------------------------------------------------------
@  8  -398.626329241       7.96D-06  -5.00D-10     5   2   2   0
      Virial theorem: -V/T =      1.999285
@    MULPOP   S#1    -0.11; H#2 _1  0.05; H#2 _2  0.05; 
 -----------------------------------------------------------------------------
@  9  -398.626329241       6.67D-07  -1.36D-11     5   2   2   0
      Virial theorem: -V/T =      1.999285
@    MULPOP   S#1    -0.11; H#2 _1  0.05; H#2 _2  0.05; 
 -----------------------------------------------------------------------------
@ 10  -398.626329241       1.24D-07   0.00D+00     5   2   2   0
      Virial theorem: -V/T =      1.999285
@    MULPOP   S#1    -0.11; H#2 _1  0.05; H#2 _2  0.05; 
 -----------------------------------------------------------------------------
@ 11  -398.626329241       8.26D-09   0.00D+00     5   2   2   0
      Virial theorem: -V/T =      1.999285
@    MULPOP   S#1    -0.11; H#2 _1  0.05; H#2 _2  0.05; 
 -----------------------------------------------------------------------------
@ 12  -398.626329241       9.24D-10  -1.71D-13     5   2   2   0

@ *** DIIS converged in  12 iterations !
@     Converged SCF energy, gradient:   -398.626329241197    9.24D-10
    - total time used in SIRFCK :              0.00 seconds


 *** SCF orbital energy analysis ***

 Number of electrons :   18
 Orbital occupations :    5    2    2    0

 Sym       Hartree-Fock orbital energies

1 A1    -91.95248846    -8.97542651    -6.65531581    -1.00725496    -0.49402683
          0.20138575     0.49660469     0.52729837     1.08517477

2 B1     -6.65719562    -0.59541317     0.17507659     0.49104357     1.07362412


3 B2     -6.65174880    -0.39193166     0.53098608

    E(LUMO) :     0.17507659 au (symmetry 2)
  - E(HOMO) :    -0.39193166 au (symmetry 3)
  ------------------------------------------
    gap     :     0.56700824 au

 --- Writing SIRIFC interface file

 CPU and wall time for SCF :       0.006       0.006


                       .-----------------------------------.
                       | --- Final results from SIRIUS --- |
                       `-----------------------------------'


@    Spin multiplicity:           1
@    Spatial symmetry:            1 ( irrep  A1  in C2v )
@    Total charge of molecule:    0

@    Final HF energy:            -398.626329241197                 
@    Nuclear repulsion:            13.027767958065
@    Electronic energy:          -411.654097199262

@    Final gradient norm:           0.000000000924

 
     Date and time (Linux)  : Wed Sep  5 11:38:11 2018
     Host name              : foeroyar                                

File label for MO orbitals:   5Sep18   FOCKDIIS

 (Only coefficients > 0.0100 are printed.)

 Molecular orbitals for symmetry species 1  (A1 )
 ------------------------------------------------

    Orbital         1        2        3        4        5        6        7
   1 S#1 :1s     0.9967  -0.2818   0.0043   0.0690  -0.0313  -0.0349   0.0386
   2 S#1 :1s     0.0123   1.0305  -0.0159  -0.3184   0.1476   0.1521   0.0048
   3 S#1 :1s    -0.0038   0.0213   0.0029   0.6505  -0.3141  -0.4391   1.1224
   4 S#1 :1s     0.0029  -0.0089  -0.0036   0.2323  -0.3547  -1.3759  -2.4716
   5 S#1 :2pz    0.0001   0.0142   0.9931  -0.0591  -0.2158   0.1287  -0.1835
   6 S#1 :2pz   -0.0002   0.0021   0.0226   0.1446   0.5570  -0.3852   0.8013
   7 S#1 :2pz    0.0007  -0.0025  -0.0069   0.0121   0.2007  -1.1822  -1.8554
   8 H#2 :1s     0.0003  -0.0006  -0.0008   0.1495   0.1581   0.0829   0.1991
   9 H#2 :1s    -0.0009   0.0025   0.0022   0.0563   0.1982   1.4364   0.9539

    Orbital         8        9
   1 S#1 :1s     0.0563  -0.0283
   2 S#1 :1s    -0.0623   0.0717
   3 S#1 :1s     1.3890  -0.5581
   4 S#1 :1s    -2.2563   1.7287
   5 S#1 :2pz    0.1968   0.1440
   6 S#1 :2pz   -0.7766  -0.5106
   7 S#1 :2pz    0.2071   0.9685
   8 H#2 :1s     0.0224   0.9459
   9 H#2 :1s     0.6594  -1.4928

 Molecular orbitals for symmetry species 2  (B1 )
 ------------------------------------------------

    Orbital         1        2        3        4        5
   1 S#1 :2px    0.9930  -0.2028   0.1468  -0.2701  -0.1581
   2 S#1 :2px    0.0233   0.5153  -0.4026   1.1133   0.5634
   3 S#1 :2px   -0.0068   0.0821  -1.1883  -1.2847  -0.9864
   4 H#2 :1s    -0.0008   0.2540   0.1537   0.1630  -0.9427
   5 H#2 :1s     0.0017   0.2643   1.1364  -0.0225   1.4309

 Molecular orbitals for symmetry species 3  (B2 )
 ------------------------------------------------

    Orbital         1        2        3
   1 S#1 :2py    0.9939  -0.2606  -0.2916
   2 S#1 :2py    0.0203   0.6956   1.1882
   3 S#1 :2py   -0.0047   0.4373  -1.2371

  Total CPU  time used in SIRIUS :   0.01 seconds
  Total wall time used in SIRIUS :   0.01 seconds

 
     Date and time (Linux)  : Wed Sep  5 11:38:11 2018
     Host name              : foeroyar                                

 NOTE:    1 informational messages have been issued.
 Check output, result, and error files for "INFO".


                     .---------------------------------------.
                     | End of Wave Function Section (SIRIUS) |
                     `---------------------------------------'



                    .------------------------------------------.
                    | Starting in Coupled Cluster Section (CC) |
                    `------------------------------------------'

  

 *******************************************************************************
 *******************************************************************************
 *                                                                             *
 *                                                                             *
 *                    START OF COUPLED CLUSTER CALCULATION                     *
 *                                                                             *
 *                                                                             *
 *******************************************************************************
 *******************************************************************************


  I am freezing!
  -- output from FNDMN3 --
  NUMBER OF ELEMENTS OBTAINED IN FNDMN3            5
  MIN AND MAX IN SELECTED SUPSPACE   -91.952488457472853       -6.6517487984643839     
 Freezing HF-orbital   1 of symmetry   1 and with orbital energy  -91.9525
 Freezing HF-orbital   2 of symmetry   1 and with orbital energy   -8.9754
 Freezing HF-orbital  10 of symmetry   2 and with orbital energy   -6.6572
 Freezing HF-orbital   3 of symmetry   1 and with orbital energy   -6.6553
 Freezing HF-orbital  15 of symmetry   3 and with orbital energy   -6.6517
 In total frozen-core per symmetry-class:  3  1  1  0
 


 CCR12 ANSATZ =   0

 CCR12 APPROX =   0

   

 *******************************************************************
 *                                                                 *
 *----------                                             >---------*
 *---------- OUTPUT FROM COUPLED CLUSTER ENERGY PROGRAM  >---------*
 *----------                                             >---------*
 *                                                                 *
 *******************************************************************


             The Direct Coupled Cluster Energy Program
             -----------------------------------------


          Number of t1 amplitudes                 :        12
          Number of t2 amplitudes                 :       164
          Total number of amplitudes in ccsd      :       176

 Iter.  1: Coupled cluster MP2   energy :    -398.6841108325535288
 Iter.  1: Coupled cluster CC2   energy :    -398.6840935952005793
 Iter.  2: Coupled cluster CC2   energy :    -398.6843359116677448
 Iter.  3: Coupled cluster CC2   energy :    -398.6843533597135547
 Iter.  4: Coupled cluster CC2   energy :    -398.6843537108998703
 Iter.  5: Coupled cluster CC2   energy :    -398.6843536407974966
 Iter.  6: Coupled cluster CC2   energy :    -398.6843536122167961
 Iter.  7: Coupled cluster CC2   energy :    -398.6843536143022675
 Iter.  8: Coupled cluster CC2   energy :    -398.6843536142121707
 Iter.  9: Coupled cluster CC2   energy :    -398.6843536141111599
 Iter. 10: Coupled cluster CC2   energy :    -398.6843536141076925
 Iter. 11: Coupled cluster CC2   energy :    -398.6843536141103073
 Iter. 12: Coupled cluster CC2   energy :    -398.6843536141125242
 Iter. 13: Coupled cluster CC2   energy :    -398.6843536141130926

 CC2   energy converged to within   0.10D-11 is         -398.684353614113
 Final 2-norm of the CC vector function:  1.75822606D-11
  Change in norm^2 of T-amplitudes in this solvent it.:   1.6951927851343532E-002





             +-------------------------------------------------------+
             ! Final results from the Coupled Cluster energy program !
             +-------------------------------------------------------+



            Total SCF   energy:                  -398.6263292412

            Total MP2   energy:                  -398.6841108326

            Total CC2   energy:                  -398.6843536141




                   +--------------------------------------------+
                   ! Calculating singlet intermediates for CCLR !
                   +--------------------------------------------+



            E-intermediates calculated 
            Fock-intermediate calculated 


   

 *******************************************************************
 *                                                                 *
 *---- OUTPUT FROM COUPLED CLUSTER RESPONSE  -------------*
 *                                                                 *
 *----------    CALCULATION OF FIRST ORDER PROPERTIES    >---------*
 *                                                                 *
 *******************************************************************



                         +-------------------------------+
                         ! Coupled Cluster model is: CC2 !
                         +-------------------------------+

 RPA: call cceq_str
     Start vector generated from gradient
 RPA: exit cceq_str



 ----- COUPLED CLUSTER RESPONSE SOLVER -----

    Iter  #Vectors  time (min)   residual
    --------------------------------------
      1       1         0.00     0.67E-01
      2       1         0.00     0.19E-01
      3       1         0.00     0.34E-02
      4       1         0.00     0.68E-03
      5       1         0.00     0.16E-03
      6       1         0.00     0.19E-04
      7       1         0.00     0.27E-05
      8       1         0.00     0.46E-06
      9       1         0.00     0.36E-07
     10       1         0.00     0.62E-08
     11       1         0.00     0.59E-09
    --------------------------------------
    converged in 11 iterations
    threshold:    0.10E-08


         Routine          Time (min)
         ---------------------------
         CC_TRDRV            0.00
         CCRED               0.00
         CCNEX               0.00
         ---------------------------
         Total time          0.00


  Total CPU  time used in CCEQ_SOLV:   0.03 seconds
  Total wall time used in CCEQ_SOLV:   0.06 seconds


 xxxxxxxxxxxxxxxxxxxxxxxxxxxxxxxxxxxxx

  Change in norm^2 of L-amplitudes in this solvent it.:   9.7646116141079348E-002
 Total <Lambda|H|CC> energy:   -398.68435361411304     
            The singles contribution is:            -0.0000000000
            The doubles contribution is:             0.0000000000
 CCFOP: call CC_D1AO to recalc the 1e Density
   

 *******************************************************************
 *    Output from coupled cluster solvent program                  *
 *******************************************************************


 +=====================================================+
 | Lmax     Cavity(a.u.)    Epsilon_st      Epsilon_op |
 +-----------------------------------------------------+
 |  10       4.53000000    20.70000000      1.84100000 |
 +=====================================================+


                         +-------------------------------+
                         ! Coupled Cluster model is: CC2 !
                         +-------------------------------+

 Solvent energy contribution in iteration  0:        -0.0042847867
 CC energy in the  current solvent iteration:      -398.6886384008
 CC energy in the previous solvent iteration:         0.0000000000
 LSLECVG:  F
  Change in Total energy in this solvent it.:  -398.68863840081758     
 *******************************************************************
 *        End of coupled cluster solvent program                   *
 *******************************************************************
  


             +--------------------------------------------------------+
             ! Unrelaxed  CC2    First-order one-electron properties: !
             +--------------------------------------------------------+



                            +-------------------------+
                            !  Electric Dipole Moment !
                            +-------------------------+



                          Total Molecular Dipole Moment
                          -----------------------------

                 au               Debye          C m (/(10**-30)

      z      0.70918774         1.80257531         6.01274404


   

 *******************************************************************
 *                                                                 *
 *----------                                             >---------*
 *---------- OUTPUT FROM COUPLED CLUSTER ENERGY PROGRAM  >---------*
 *----------                                             >---------*
 *                                                                 *
 *******************************************************************


             The Direct Coupled Cluster Energy Program
             -----------------------------------------


          Number of t1 amplitudes                 :        12
          Number of t2 amplitudes                 :       164
          Total number of amplitudes in ccsd      :       176

 Iter.  1: Coupled cluster RSTAR energy :    -398.6843536141130926
 Iter.  1: Coupled cluster CC2   energy :    -398.6843030288472960
 Iter.  2: Coupled cluster CC2   energy :    -398.6842204522011457
 Iter.  3: Coupled cluster CC2   energy :    -398.6842489726855092
 Iter.  4: Coupled cluster CC2   energy :    -398.6842505394561726
 Iter.  5: Coupled cluster CC2   energy :    -398.6842497671725596
 Iter.  6: Coupled cluster CC2   energy :    -398.6842495040622794
 Iter.  7: Coupled cluster CC2   energy :    -398.6842494803336194
 Iter.  8: Coupled cluster CC2   energy :    -398.6842494823272887
 Iter.  9: Coupled cluster CC2   energy :    -398.6842494823686138
 Iter. 10: Coupled cluster CC2   energy :    -398.6842494823773109
 Iter. 11: Coupled cluster CC2   energy :    -398.6842494823718539
 Iter. 12: Coupled cluster CC2   energy :    -398.6842494823682159
 Iter. 13: Coupled cluster CC2   energy :    -398.6842494823676475

 CC2   energy converged to within   0.10D-11 is         -398.684249482368
 Final 2-norm of the CC vector function:  1.25860401D-11
  Change in norm^2 of T-amplitudes in this solvent it.:   3.4827973005205348E-004





             +-------------------------------------------------------+
             ! Final results from the Coupled Cluster energy program !
             +-------------------------------------------------------+



            Total SCF   energy:                  -398.6263292412

            Total RSTAR energy:                  -398.6843536141

            Total CC2   energy:                  -398.6842494824




                   +--------------------------------------------+
                   ! Calculating singlet intermediates for CCLR !
                   +--------------------------------------------+



            E-intermediates calculated 
            Fock-intermediate calculated 


   

 *******************************************************************
 *                                                                 *
 *---- OUTPUT FROM COUPLED CLUSTER RESPONSE  -------------*
 *                                                                 *
 *----------    CALCULATION OF FIRST ORDER PROPERTIES    >---------*
 *                                                                 *
 *******************************************************************



                         +-------------------------------+
                         ! Coupled Cluster model is: CC2 !
                         +-------------------------------+

 RPA: call cceq_str
 Vector nr.  1 of symmetry  1 found on file - RESTART SUCCESS
 Start vector is a CC2       L0  vector
 RPA: exit cceq_str



 ----- COUPLED CLUSTER RESPONSE SOLVER -----

    Iter  #Vectors  time (min)   residual
    --------------------------------------
      1       1         0.00     0.75E-01
      2       1         0.00     0.34E-01
      3       1         0.00     0.30E-02
      4       1         0.00     0.10E-02
      5       1         0.00     0.17E-03
      6       1         0.00     0.21E-04
      7       1         0.00     0.37E-05
      8       1         0.00     0.35E-06
      9       1         0.00     0.64E-07
     10       1         0.00     0.40E-08
     11       1         0.00     0.82E-09
    --------------------------------------
    converged in 11 iterations
    threshold:    0.10E-08


         Routine          Time (min)
         ---------------------------
         CC_TRDRV            0.00
         CCRED               0.00
         CCNEX               0.00
         ---------------------------
         Total time          0.00


  Total CPU  time used in CCEQ_SOLV:   0.03 seconds
  Total wall time used in CCEQ_SOLV:   0.06 seconds


 xxxxxxxxxxxxxxxxxxxxxxxxxxxxxxxxxxxxx

  Change in norm^2 of L-amplitudes in this solvent it.:   1.4425784904549821E-003
 Total <Lambda|H|CC> energy:   -398.68374806410156     
            The singles contribution is:             0.0005585350
            The doubles contribution is:            -0.0000571168
 CCFOP: call CC_D1AO to recalc the 1e Density
   

 *******************************************************************
 *    Output from coupled cluster solvent program                  *
 *******************************************************************


 +=====================================================+
 | Lmax     Cavity(a.u.)    Epsilon_st      Epsilon_op |
 +-----------------------------------------------------+
 |  10       4.53000000    20.70000000      1.84100000 |
 +=====================================================+


                         +-------------------------------+
                         ! Coupled Cluster model is: CC2 !
                         +-------------------------------+

 Solvent energy contribution in iteration  1:        -0.0056032631
 CC energy in the  current solvent iteration:      -398.6893513272
 CC energy in the previous solvent iteration:      -398.6886384008
 LSLECVG:  F
  Change in Total energy in this solvent it.:  -7.1292635590225473E-004
 *******************************************************************
 *        End of coupled cluster solvent program                   *
 *******************************************************************
  


             +--------------------------------------------------------+
             ! Unrelaxed  CC2    First-order one-electron properties: !
             +--------------------------------------------------------+



                            +-------------------------+
                            !  Electric Dipole Moment !
                            +-------------------------+



                          Total Molecular Dipole Moment
                          -----------------------------

                 au               Debye          C m (/(10**-30)

      z      0.84043916         2.13618313         7.12553993


   

 *******************************************************************
 *                                                                 *
 *----------                                             >---------*
 *---------- OUTPUT FROM COUPLED CLUSTER ENERGY PROGRAM  >---------*
 *----------                                             >---------*
 *                                                                 *
 *******************************************************************


             The Direct Coupled Cluster Energy Program
             -----------------------------------------


          Number of t1 amplitudes                 :        12
          Number of t2 amplitudes                 :       164
          Total number of amplitudes in ccsd      :       176

 Iter.  1: Coupled cluster RSTAR energy :    -398.6842494823676475
 Iter.  1: Coupled cluster CC2   energy :    -398.6842297301050166
 Iter.  2: Coupled cluster CC2   energy :    -398.6842073505545727
 Iter.  3: Coupled cluster CC2   energy :    -398.6842126380290665
 Iter.  4: Coupled cluster CC2   energy :    -398.6842130734714829
 Iter.  5: Coupled cluster CC2   energy :    -398.6842129416357920
 Iter.  6: Coupled cluster CC2   energy :    -398.6842128947367314
 Iter.  7: Coupled cluster CC2   energy :    -398.6842128903999765
 Iter.  8: Coupled cluster CC2   energy :    -398.6842128905583991
 Iter.  9: Coupled cluster CC2   energy :    -398.6842128905556137
 Iter. 10: Coupled cluster CC2   energy :    -398.6842128905531695
 Iter. 11: Coupled cluster CC2   energy :    -398.6842128905518621
 Iter. 12: Coupled cluster CC2   energy :    -398.6842128905512936

 CC2   energy converged to within   0.10D-11 is         -398.684212890551
 Final 2-norm of the CC vector function:  1.88412407D-11
  Change in norm^2 of T-amplitudes in this solvent it.:   1.8664380271278189E-004





             +-------------------------------------------------------+
             ! Final results from the Coupled Cluster energy program !
             +-------------------------------------------------------+



            Total SCF   energy:                  -398.6263292412

            Total RSTAR energy:                  -398.6842494824

            Total CC2   energy:                  -398.6842128906




                   +--------------------------------------------+
                   ! Calculating singlet intermediates for CCLR !
                   +--------------------------------------------+



            E-intermediates calculated 
            Fock-intermediate calculated 


   

 *******************************************************************
 *                                                                 *
 *---- OUTPUT FROM COUPLED CLUSTER RESPONSE  -------------*
 *                                                                 *
 *----------    CALCULATION OF FIRST ORDER PROPERTIES    >---------*
 *                                                                 *
 *******************************************************************



                         +-------------------------------+
                         ! Coupled Cluster model is: CC2 !
                         +-------------------------------+

 RPA: call cceq_str
 Vector nr.  1 of symmetry  1 found on file - RESTART SUCCESS
 Start vector is a CC2       L0  vector
 RPA: exit cceq_str



 ----- COUPLED CLUSTER RESPONSE SOLVER -----

    Iter  #Vectors  time (min)   residual
    --------------------------------------
      1       1         0.00     0.14E-01
      2       1         0.00     0.63E-02
      3       1         0.00     0.55E-03
      4       1         0.00     0.19E-03
      5       1         0.00     0.31E-04
      6       1         0.00     0.41E-05
      7       1         0.00     0.74E-06
      8       1         0.00     0.67E-07
      9       1         0.00     0.13E-07
     10       1         0.00     0.77E-09
    --------------------------------------
    converged in 10 iterations
    threshold:    0.10E-08


         Routine          Time (min)
         ---------------------------
         CC_TRDRV            0.00
         CCRED               0.00
         CCNEX               0.00
         ---------------------------
         Total time          0.00


  Total CPU  time used in CCEQ_SOLV:   0.02 seconds
  Total wall time used in CCEQ_SOLV:   0.05 seconds


 xxxxxxxxxxxxxxxxxxxxxxxxxxxxxxxxxxxxx

  Change in norm^2 of L-amplitudes in this solvent it.:   6.2763524641035184E-004
 Total <Lambda|H|CC> energy:   -398.68350398026257     
            The singles contribution is:             0.0007779248
            The doubles contribution is:            -0.0000690145
 CCFOP: call CC_D1AO to recalc the 1e Density
   

 *******************************************************************
 *    Output from coupled cluster solvent program                  *
 *******************************************************************


 +=====================================================+
 | Lmax     Cavity(a.u.)    Epsilon_st      Epsilon_op |
 +-----------------------------------------------------+
 |  10       4.53000000    20.70000000      1.84100000 |
 +=====================================================+


                         +-------------------------------+
                         ! Coupled Cluster model is: CC2 !
                         +-------------------------------+

 Solvent energy contribution in iteration  2:        -0.0058702318
 CC energy in the  current solvent iteration:      -398.6893742120
 CC energy in the previous solvent iteration:      -398.6893513272
 LSLECVG:  F
  Change in Total energy in this solvent it.:  -2.2884875761519652E-005
 *******************************************************************
 *        End of coupled cluster solvent program                   *
 *******************************************************************
  


             +--------------------------------------------------------+
             ! Unrelaxed  CC2    First-order one-electron properties: !
             +--------------------------------------------------------+



                            +-------------------------+
                            !  Electric Dipole Moment !
                            +-------------------------+



                          Total Molecular Dipole Moment
                          -----------------------------

                 au               Debye          C m (/(10**-30)

      z      0.86524550         2.19923456         7.33585687


   

 *******************************************************************
 *                                                                 *
 *----------                                             >---------*
 *---------- OUTPUT FROM COUPLED CLUSTER ENERGY PROGRAM  >---------*
 *----------                                             >---------*
 *                                                                 *
 *******************************************************************


             The Direct Coupled Cluster Energy Program
             -----------------------------------------


          Number of t1 amplitudes                 :        12
          Number of t2 amplitudes                 :       164
          Total number of amplitudes in ccsd      :       176

 Iter.  1: Coupled cluster RSTAR energy :    -398.6842128905512936
 Iter.  1: Coupled cluster CC2   energy :    -398.6842089277016044
 Iter.  2: Coupled cluster CC2   energy :    -398.6842046103486155
 Iter.  3: Coupled cluster CC2   energy :    -398.6842055993103600
 Iter.  4: Coupled cluster CC2   energy :    -398.6842056828873524
 Iter.  5: Coupled cluster CC2   energy :    -398.6842056582571558
 Iter.  6: Coupled cluster CC2   energy :    -398.6842056495610791
 Iter.  7: Coupled cluster CC2   energy :    -398.6842056487632817
 Iter.  8: Coupled cluster CC2   energy :    -398.6842056487859622
 Iter.  9: Coupled cluster CC2   energy :    -398.6842056487855643

 CC2   energy converged to within   0.10D-11 is         -398.684205648786
 Final 2-norm of the CC vector function:  5.17693689D-10
  Change in norm^2 of T-amplitudes in this solvent it.:   3.9318976564756136E-005





             +-------------------------------------------------------+
             ! Final results from the Coupled Cluster energy program !
             +-------------------------------------------------------+



            Total SCF   energy:                  -398.6263292412

            Total RSTAR energy:                  -398.6842128906

            Total CC2   energy:                  -398.6842056488




                   +--------------------------------------------+
                   ! Calculating singlet intermediates for CCLR !
                   +--------------------------------------------+



            E-intermediates calculated 
            Fock-intermediate calculated 


   

 *******************************************************************
 *                                                                 *
 *---- OUTPUT FROM COUPLED CLUSTER RESPONSE  -------------*
 *                                                                 *
 *----------    CALCULATION OF FIRST ORDER PROPERTIES    >---------*
 *                                                                 *
 *******************************************************************



                         +-------------------------------+
                         ! Coupled Cluster model is: CC2 !
                         +-------------------------------+

 RPA: call cceq_str
 Vector nr.  1 of symmetry  1 found on file - RESTART SUCCESS
 Start vector is a CC2       L0  vector
 RPA: exit cceq_str



 ----- COUPLED CLUSTER RESPONSE SOLVER -----

    Iter  #Vectors  time (min)   residual
    --------------------------------------
      1       1         0.00     0.26E-02
      2       1         0.00     0.12E-02
      3       1         0.00     0.10E-03
      4       1         0.00     0.36E-04
      5       1         0.00     0.58E-05
      6       1         0.00     0.76E-06
      7       1         0.00     0.14E-06
      8       1         0.00     0.12E-07
      9       1         0.00     0.24E-08
     10       1         0.00     0.14E-09
    --------------------------------------
    converged in 10 iterations
    threshold:    0.10E-08


         Routine          Time (min)
         ---------------------------
         CC_TRDRV            0.00
         CCRED               0.00
         CCNEX               0.00
         ---------------------------
         Total time          0.00


  Total CPU  time used in CCEQ_SOLV:   0.02 seconds
  Total wall time used in CCEQ_SOLV:   0.05 seconds


 xxxxxxxxxxxxxxxxxxxxxxxxxxxxxxxxxxxxx

  Change in norm^2 of L-amplitudes in this solvent it.:   1.3080885243602070E-004
 Total <Lambda|H|CC> energy:   -398.68345387434459     
            The singles contribution is:             0.0008229458
            The doubles contribution is:            -0.0000711714
 CCFOP: call CC_D1AO to recalc the 1e Density
   

 *******************************************************************
 *    Output from coupled cluster solvent program                  *
 *******************************************************************


 +=====================================================+
 | Lmax     Cavity(a.u.)    Epsilon_st      Epsilon_op |
 +-----------------------------------------------------+
 |  10       4.53000000    20.70000000      1.84100000 |
 +=====================================================+


                         +-------------------------------+
                         ! Coupled Cluster model is: CC2 !
                         +-------------------------------+

 Solvent energy contribution in iteration  3:        -0.0059207966
 CC energy in the  current solvent iteration:      -398.6893746709
 CC energy in the previous solvent iteration:      -398.6893742120
 LSLECVG:  F
  Change in Total energy in this solvent it.:  -4.5884922883487889E-007
 *******************************************************************
 *        End of coupled cluster solvent program                   *
 *******************************************************************
  


             +--------------------------------------------------------+
             ! Unrelaxed  CC2    First-order one-electron properties: !
             +--------------------------------------------------------+



                            +-------------------------+
                            !  Electric Dipole Moment !
                            +-------------------------+



                          Total Molecular Dipole Moment
                          -----------------------------

                 au               Debye          C m (/(10**-30)

      z      0.86987999         2.21101425         7.37514969


   

 *******************************************************************
 *                                                                 *
 *----------                                             >---------*
 *---------- OUTPUT FROM COUPLED CLUSTER ENERGY PROGRAM  >---------*
 *----------                                             >---------*
 *                                                                 *
 *******************************************************************


             The Direct Coupled Cluster Energy Program
             -----------------------------------------


          Number of t1 amplitudes                 :        12
          Number of t2 amplitudes                 :       164
          Total number of amplitudes in ccsd      :       176

 Iter.  1: Coupled cluster RSTAR energy :    -398.6842056487855643
 Iter.  1: Coupled cluster CC2   energy :    -398.6842049011165159
 Iter.  2: Coupled cluster CC2   energy :    -398.6842040924206572
 Iter.  3: Coupled cluster CC2   energy :    -398.6842042769188765
 Iter.  4: Coupled cluster CC2   energy :    -398.6842042925607075
 Iter.  5: Coupled cluster CC2   energy :    -398.6842042879670771
 Iter.  6: Coupled cluster CC2   energy :    -398.6842042863477786
 Iter.  7: Coupled cluster CC2   energy :    -398.6842042861992468
 Iter.  8: Coupled cluster CC2   energy :    -398.6842042862044195
 Iter.  9: Coupled cluster CC2   energy :    -398.6842042862036806

 CC2   energy converged to within   0.10D-11 is         -398.684204286204
 Final 2-norm of the CC vector function:  9.64574410D-11
  Change in norm^2 of T-amplitudes in this solvent it.:   7.4876907917922897E-006





             +-------------------------------------------------------+
             ! Final results from the Coupled Cluster energy program !
             +-------------------------------------------------------+



            Total SCF   energy:                  -398.6263292412

            Total RSTAR energy:                  -398.6842056488

            Total CC2   energy:                  -398.6842042862




                   +--------------------------------------------+
                   ! Calculating singlet intermediates for CCLR !
                   +--------------------------------------------+



            E-intermediates calculated 
            Fock-intermediate calculated 


   

 *******************************************************************
 *                                                                 *
 *---- OUTPUT FROM COUPLED CLUSTER RESPONSE  -------------*
 *                                                                 *
 *----------    CALCULATION OF FIRST ORDER PROPERTIES    >---------*
 *                                                                 *
 *******************************************************************



                         +-------------------------------+
                         ! Coupled Cluster model is: CC2 !
                         +-------------------------------+

 RPA: call cceq_str
 Vector nr.  1 of symmetry  1 found on file - RESTART SUCCESS
 Start vector is a CC2       L0  vector
 RPA: exit cceq_str



 ----- COUPLED CLUSTER RESPONSE SOLVER -----

    Iter  #Vectors  time (min)   residual
    --------------------------------------
      1       1         0.00     0.48E-03
      2       1         0.00     0.22E-03
      3       1         0.00     0.19E-04
      4       1         0.00     0.67E-05
      5       1         0.00     0.11E-05
      6       1         0.00     0.14E-06
      7       1         0.00     0.26E-07
      8       1         0.00     0.23E-08
      9       1         0.00     0.46E-09
    --------------------------------------
    converged in  9 iterations
    threshold:    0.10E-08


         Routine          Time (min)
         ---------------------------
         CC_TRDRV            0.00
         CCRED               0.00
         CCNEX               0.00
         ---------------------------
         Total time          0.00


  Total CPU  time used in CCEQ_SOLV:   0.02 seconds
  Total wall time used in CCEQ_SOLV:   0.05 seconds


 xxxxxxxxxxxxxxxxxxxxxxxxxxxxxxxxxxxxx

  Change in norm^2 of L-amplitudes in this solvent it.:   2.4871642491874901E-005
 Total <Lambda|H|CC> energy:   -398.68344437591134     
            The singles contribution is:             0.0008314809
            The doubles contribution is:            -0.0000715706
 CCFOP: call CC_D1AO to recalc the 1e Density
   

 *******************************************************************
 *    Output from coupled cluster solvent program                  *
 *******************************************************************


 +=====================================================+
 | Lmax     Cavity(a.u.)    Epsilon_st      Epsilon_op |
 +-----------------------------------------------------+
 |  10       4.53000000    20.70000000      1.84100000 |
 +=====================================================+


                         +-------------------------------+
                         ! Coupled Cluster model is: CC2 !
                         +-------------------------------+

 Solvent energy contribution in iteration  4:        -0.0059302480
 CC energy in the  current solvent iteration:      -398.6893746239
 CC energy in the previous solvent iteration:      -398.6893746709
 LSLECVG:  F
  Change in Total energy in this solvent it.:   4.7037133299454581E-008
 *******************************************************************
 *        End of coupled cluster solvent program                   *
 *******************************************************************
  


             +--------------------------------------------------------+
             ! Unrelaxed  CC2    First-order one-electron properties: !
             +--------------------------------------------------------+



                            +-------------------------+
                            !  Electric Dipole Moment !
                            +-------------------------+



                          Total Molecular Dipole Moment
                          -----------------------------

                 au               Debye          C m (/(10**-30)

      z      0.87074394         2.21321020         7.38247457


   

 *******************************************************************
 *                                                                 *
 *----------                                             >---------*
 *---------- OUTPUT FROM COUPLED CLUSTER ENERGY PROGRAM  >---------*
 *----------                                             >---------*
 *                                                                 *
 *******************************************************************


             The Direct Coupled Cluster Energy Program
             -----------------------------------------


          Number of t1 amplitudes                 :        12
          Number of t2 amplitudes                 :       164
          Total number of amplitudes in ccsd      :       176

 Iter.  1: Coupled cluster RSTAR energy :    -398.6842042862036806
 Iter.  1: Coupled cluster CC2   energy :    -398.6842041465661737
 Iter.  2: Coupled cluster CC2   energy :    -398.6842039957426778
 Iter.  3: Coupled cluster CC2   energy :    -398.6842040301303314
 Iter.  4: Coupled cluster CC2   energy :    -398.6842040330463988
 Iter.  5: Coupled cluster CC2   energy :    -398.6842040321911895
 Iter.  6: Coupled cluster CC2   energy :    -398.6842040318892373
 Iter.  7: Coupled cluster CC2   energy :    -398.6842040318612135
 Iter.  8: Coupled cluster CC2   energy :    -398.6842040318626346
 Iter.  9: Coupled cluster CC2   energy :    -398.6842040318628619

 CC2   energy converged to within   0.10D-11 is         -398.684204031863
 Final 2-norm of the CC vector function:  1.79747308D-11
  Change in norm^2 of T-amplitudes in this solvent it.:   1.4008698509780648E-006





             +-------------------------------------------------------+
             ! Final results from the Coupled Cluster energy program !
             +-------------------------------------------------------+



            Total SCF   energy:                  -398.6263292412

            Total RSTAR energy:                  -398.6842042862

            Total CC2   energy:                  -398.6842040319




                   +--------------------------------------------+
                   ! Calculating singlet intermediates for CCLR !
                   +--------------------------------------------+



            E-intermediates calculated 
            Fock-intermediate calculated 


   

 *******************************************************************
 *                                                                 *
 *---- OUTPUT FROM COUPLED CLUSTER RESPONSE  -------------*
 *                                                                 *
 *----------    CALCULATION OF FIRST ORDER PROPERTIES    >---------*
 *                                                                 *
 *******************************************************************



                         +-------------------------------+
                         ! Coupled Cluster model is: CC2 !
                         +-------------------------------+

 RPA: call cceq_str
 Vector nr.  1 of symmetry  1 found on file - RESTART SUCCESS
 Start vector is a CC2       L0  vector
 RPA: exit cceq_str



 ----- COUPLED CLUSTER RESPONSE SOLVER -----

    Iter  #Vectors  time (min)   residual
    --------------------------------------
      1       1         0.00     0.90E-04
      2       1         0.00     0.41E-04
      3       1         0.00     0.36E-05
      4       1         0.00     0.12E-05
      5       1         0.00     0.20E-06
      6       1         0.00     0.26E-07
      7       1         0.00     0.48E-08
      8       1         0.00     0.43E-09
    --------------------------------------
    converged in  8 iterations
    threshold:    0.10E-08


         Routine          Time (min)
         ---------------------------
         CC_TRDRV            0.00
         CCRED               0.00
         CCNEX               0.00
         ---------------------------
         Total time          0.00


  Total CPU  time used in CCEQ_SOLV:   0.02 seconds
  Total wall time used in CCEQ_SOLV:   0.04 seconds


 xxxxxxxxxxxxxxxxxxxxxxxxxxxxxxxxxxxxx

  Change in norm^2 of L-amplitudes in this solvent it.:   4.6519657412591453E-006
 Total <Lambda|H|CC> energy:   -398.68344260036304     
            The singles contribution is:             0.0008330764
            The doubles contribution is:            -0.0000716449
 CCFOP: call CC_D1AO to recalc the 1e Density
   

 *******************************************************************
 *    Output from coupled cluster solvent program                  *
 *******************************************************************


 +=====================================================+
 | Lmax     Cavity(a.u.)    Epsilon_st      Epsilon_op |
 +-----------------------------------------------------+
 |  10       4.53000000    20.70000000      1.84100000 |
 +=====================================================+


                         +-------------------------------+
                         ! Coupled Cluster model is: CC2 !
                         +-------------------------------+

 Solvent energy contribution in iteration  5:        -0.0059320101
 CC energy in the  current solvent iteration:      -398.6893746105
 CC energy in the previous solvent iteration:      -398.6893746239
 LSLECVG:  F
  Change in Total energy in this solvent it.:   1.3369458429224323E-008
 *******************************************************************
 *        End of coupled cluster solvent program                   *
 *******************************************************************
  


             +--------------------------------------------------------+
             ! Unrelaxed  CC2    First-order one-electron properties: !
             +--------------------------------------------------------+



                            +-------------------------+
                            !  Electric Dipole Moment !
                            +-------------------------+



                          Total Molecular Dipole Moment
                          -----------------------------

                 au               Debye          C m (/(10**-30)

      z      0.87090494         2.21361941         7.38383956


   

 *******************************************************************
 *                                                                 *
 *----------                                             >---------*
 *---------- OUTPUT FROM COUPLED CLUSTER ENERGY PROGRAM  >---------*
 *----------                                             >---------*
 *                                                                 *
 *******************************************************************


             The Direct Coupled Cluster Energy Program
             -----------------------------------------


          Number of t1 amplitudes                 :        12
          Number of t2 amplitudes                 :       164
          Total number of amplitudes in ccsd      :       176

 Iter.  1: Coupled cluster RSTAR energy :    -398.6842040318628619
 Iter.  1: Coupled cluster CC2   energy :    -398.6842040058317593
 Iter.  2: Coupled cluster CC2   energy :    -398.6842039777229161
 Iter.  3: Coupled cluster CC2   energy :    -398.6842039841322389
 Iter.  4: Coupled cluster CC2   energy :    -398.6842039846742409
 Iter.  5: Coupled cluster CC2   energy :    -398.6842039845148520
 Iter.  6: Coupled cluster CC2   energy :    -398.6842039844590317
 Iter.  7: Coupled cluster CC2   energy :    -398.6842039844541432
 Iter.  8: Coupled cluster CC2   energy :    -398.6842039844540295

 CC2   energy converged to within   0.10D-11 is         -398.684203984454
 Final 2-norm of the CC vector function:  2.12577997D-11
  Change in norm^2 of T-amplitudes in this solvent it.:   2.6123066152947128E-007





             +-------------------------------------------------------+
             ! Final results from the Coupled Cluster energy program !
             +-------------------------------------------------------+



            Total SCF   energy:                  -398.6263292412

            Total RSTAR energy:                  -398.6842040319

            Total CC2   energy:                  -398.6842039845




                   +--------------------------------------------+
                   ! Calculating singlet intermediates for CCLR !
                   +--------------------------------------------+



            E-intermediates calculated 
            Fock-intermediate calculated 


   

 *******************************************************************
 *                                                                 *
 *---- OUTPUT FROM COUPLED CLUSTER RESPONSE  -------------*
 *                                                                 *
 *----------    CALCULATION OF FIRST ORDER PROPERTIES    >---------*
 *                                                                 *
 *******************************************************************



                         +-------------------------------+
                         ! Coupled Cluster model is: CC2 !
                         +-------------------------------+

 RPA: call cceq_str
 Vector nr.  1 of symmetry  1 found on file - RESTART SUCCESS
 Start vector is a CC2       L0  vector
 RPA: exit cceq_str



 ----- COUPLED CLUSTER RESPONSE SOLVER -----

    Iter  #Vectors  time (min)   residual
    --------------------------------------
      1       1         0.00     0.17E-04
      2       1         0.00     0.76E-05
      3       1         0.00     0.67E-06
      4       1         0.00     0.23E-06
      5       1         0.00     0.38E-07
      6       1         0.00     0.49E-08
      7       1         0.00     0.90E-09
    --------------------------------------
    converged in  7 iterations
    threshold:    0.10E-08


         Routine          Time (min)
         ---------------------------
         CC_TRDRV            0.00
         CCRED               0.00
[...]
 Printing second contribution.                                  Norm2 of singles:    2.2550096071368023E-003 Norm2 of doubles:    5.5333409108048924E-002
 |    11    |     3    |      1       |       0.01  |
 K matrix transformation for ITRAN,           8
 IADRTH:           1
 LISTA,IDLSTA:L1            3
 LISTB,IDLSTB:L1            9
 ISYMA,ISYMB,ISYMAB:           1           3           3
 Printing norm2 TGCMO in KMAT:    4.7255225284982211E-003
 Printing first contribution.                                     Norm2 of singles:    2.3504521719636411E-003 Norm2 of doubles:    5.7720740549458312E-002
 Printing second contribution.                                  Norm2 of singles:    1.6521338200237112E-002 Norm2 of doubles:   0.15823515978223990     
 |     3    |     9    |      1       |       0.01  |
 K matrix transformation for ITRAN,           9
 IADRTH:           1
 LISTA,IDLSTA:L1            9
 LISTB,IDLSTB:L1           11
 ISYMA,ISYMB,ISYMAB:           3           3           1
 Printing norm2 TGCMO in KMAT:    4.5310117143992964E-003
 Printing first contribution.                                     Norm2 of singles:    1.4867175225390022E-002 Norm2 of doubles:    1.5153208538480166E-002
 Printing second contribution.                                  Norm2 of singles:    1.4874249587240347E-002 Norm2 of doubles:    1.5163596596262714E-002
 |     9    |    11    |      1       |       0.00  |
 K matrix transformation for ITRAN,          10
 IADRTH:           1
 LISTA,IDLSTA:L1           10
 LISTB,IDLSTB:L1            2
 ISYMA,ISYMB,ISYMAB:           3           1           3
 Printing norm2 TGCMO in KMAT:    8.7917099511982851E-003
 Printing first contribution.                                     Norm2 of singles:    1.6873440422968230E-002 Norm2 of doubles:   0.16186719519634254     
 Printing second contribution.                                  Norm2 of singles:    2.3999144805904901E-003 Norm2 of doubles:    5.9029840579347292E-002
 |    10    |     2    |      1       |       0.01  |
 K matrix transformation for ITRAN,          11
 IADRTH:           1
 LISTA,IDLSTA:L1            2
 LISTB,IDLSTB:L1           12
 ISYMA,ISYMB,ISYMAB:           1           3           3
 Printing norm2 TGCMO in KMAT:    4.4687302232901509E-003
 Printing first contribution.                                     Norm2 of singles:    2.3030349765870940E-003 Norm2 of doubles:    5.6603145730796035E-002
 Printing second contribution.                                  Norm2 of singles:    1.6125373552371869E-002 Norm2 of doubles:   0.15535135250646837     
 |     2    |    12    |      1       |       0.01  |
 K matrix transformation for ITRAN,          12
 IADRTH:           1
 LISTA,IDLSTA:L1           12
 LISTB,IDLSTB:L1           10
 ISYMA,ISYMB,ISYMAB:           3           3           1
 Printing norm2 TGCMO in KMAT:    4.6593719347187224E-003
 Printing first contribution.                                     Norm2 of singles:    1.4464458826747104E-002 Norm2 of doubles:    1.4747419680031223E-002
 Printing second contribution.                                  Norm2 of singles:    1.4458262505830917E-002 Norm2 of doubles:    1.4737409592113525E-002
 |    12    |    10    |      1       |       0.01  |
 K matrix transformation for ITRAN,          13
 IADRTH:           1
 LISTA,IDLSTA:L1            7
 LISTB,IDLSTB:L1            7
 ISYMA,ISYMB,ISYMAB:           2           2           1
 Printing norm2 TGCMO in KMAT:   0.17610357154971223     
 Printing first contribution.                                     Norm2 of singles:   0.10504818826426296      Norm2 of doubles:   0.76210433645203679     
 |     7    |     7    |      1       |       0.00  |
 K matrix transformation for ITRAN,          14
 IADRTH:           1
 LISTA,IDLSTA:L1            7
 LISTB,IDLSTB:L1            1
 ISYMA,ISYMB,ISYMAB:           2           1           2
 Printing norm2 TGCMO in KMAT:    7.8280590786603738E-002
 Printing first contribution.                                     Norm2 of singles:    7.5258756403981469E-002 Norm2 of doubles:    7.5860126014074783E-002
 Printing second contribution.                                  Norm2 of singles:   0.11005163013519670      Norm2 of doubles:   0.11892516518846744     
 |     7    |     1    |      1       |       0.01  |
 K matrix transformation for ITRAN,          15
 IADRTH:           1
 LISTA,IDLSTA:L1            6
 LISTB,IDLSTB:L1            6
 ISYMA,ISYMB,ISYMAB:           2           2           1
 Printing norm2 TGCMO in KMAT:   0.18285432378664904     
 Printing first contribution.                                     Norm2 of singles:   0.11318932428584827      Norm2 of doubles:   0.82208720656481771     
 |     6    |     6    |      1       |       0.00  |
 K matrix transformation for ITRAN,          16
 IADRTH:           1
 LISTA,IDLSTA:L1            6
 LISTB,IDLSTB:L1            4
 ISYMA,ISYMB,ISYMAB:           2           1           2
 Printing norm2 TGCMO in KMAT:    7.2765519520777810E-002
 Printing first contribution.                                     Norm2 of singles:    7.2733103449687170E-002 Norm2 of doubles:    7.3157109025415487E-002
 Printing second contribution.                                  Norm2 of singles:   0.10616678646787353      Norm2 of doubles:   0.11510525218280274     
 |     6    |     4    |      1       |       0.01  |
 K matrix transformation for ITRAN,          17
 IADRTH:           1
 LISTA,IDLSTA:L1           11
 LISTB,IDLSTB:L1           11
 ISYMA,ISYMB,ISYMAB:           3           3           1
 Printing norm2 TGCMO in KMAT:    4.5310117143992964E-003
 Printing first contribution.                                     Norm2 of singles:    1.4259279964827259E-002 Norm2 of doubles:    1.4536895538964477E-002
 |    11    |    11    |      1       |       0.00  |
 K matrix transformation for ITRAN,          18
 IADRTH:           1
 LISTA,IDLSTA:L1           11
 LISTB,IDLSTB:L1            1
 ISYMA,ISYMB,ISYMAB:           3           1           3
 Printing norm2 TGCMO in KMAT:    8.9552098883551087E-003
 Printing first contribution.                                     Norm2 of singles:    1.6672814099457579E-002 Norm2 of doubles:   0.16041236368718975     
 Printing second contribution.                                  Norm2 of singles:    2.3761523078412046E-003 Norm2 of doubles:    5.8466237771390622E-002
 |    11    |     1    |      1       |       0.01  |
 K matrix transformation for ITRAN,          19
 IADRTH:           1
 LISTA,IDLSTA:L1           10
 LISTB,IDLSTB:L1           10
 ISYMA,ISYMB,ISYMAB:           3           3           1
 Printing norm2 TGCMO in KMAT:    4.6593719347187224E-003
 Printing first contribution.                                     Norm2 of singles:    1.5077884091607777E-002 Norm2 of doubles:    1.5368752974780733E-002
 |    10    |    10    |      1       |       0.00  |
 K matrix transformation for ITRAN,          20
 IADRTH:           1
 LISTA,IDLSTA:L1           10
 LISTB,IDLSTB:L1            4
 ISYMA,ISYMB,ISYMAB:           3           1           3
 Printing norm2 TGCMO in KMAT:    8.3244486305006308E-003
 Printing first contribution.                                     Norm2 of singles:    1.5978325710361573E-002 Norm2 of doubles:   0.15325354223842971     
 Printing second contribution.                                  Norm2 of singles:    2.2786308977467773E-003 Norm2 of doubles:    5.5886640618036103E-002
 |    10    |     4    |      1       |       0.01  |
 K matrix transformation for ITRAN,          21
 IADRTH:           1
 LISTA,IDLSTA:L1            3
 LISTB,IDLSTB:L1            3
 ISYMA,ISYMB,ISYMAB:           1           1           1
 Printing norm2 TGCMO in KMAT:   0.10431891316464906     
 Printing first contribution.                                     Norm2 of singles:    7.6853200023411339E-002 Norm2 of doubles:   0.39931916609759655     
 |     3    |     3    |      1       |       0.00  |
 K matrix transformation for ITRAN,          22
 IADRTH:           1
 LISTA,IDLSTA:L1            3
 LISTB,IDLSTB:L1            1
 ISYMA,ISYMB,ISYMAB:           1           1           1
 Printing norm2 TGCMO in KMAT:   0.11021622646303611     
 Printing first contribution.                                     Norm2 of singles:    8.1203520635741738E-002 Norm2 of doubles:   0.42189554926418887     
 Printing second contribution.                                  Norm2 of singles:    8.1556369164078130E-002 Norm2 of doubles:   0.42171679785675975     
 |     3    |     1    |      1       |       0.01  |
 K matrix transformation for ITRAN,          23
 IADRTH:           1
 LISTA,IDLSTA:L1            2
 LISTB,IDLSTB:L1            2
 ISYMA,ISYMB,ISYMAB:           1           1           1
 Printing norm2 TGCMO in KMAT:   0.10820229070974227     
 Printing first contribution.                                     Norm2 of singles:    8.2925270797602868E-002 Norm2 of doubles:   0.42948446155610220     
 |     2    |     2    |      1       |       0.00  |
 K matrix transformation for ITRAN,          24
 IADRTH:           1
 LISTA,IDLSTA:L1            2
 LISTB,IDLSTB:L1            4
 ISYMA,ISYMB,ISYMAB:           1           1           1
 Printing norm2 TGCMO in KMAT:   0.10244621490731012     
 Printing first contribution.                                     Norm2 of singles:    7.8508437352828725E-002 Norm2 of doubles:   0.40663468765524180     
 Printing second contribution.                                  Norm2 of singles:    7.8178141665882661E-002 Norm2 of doubles:   0.40680709733891846     
 |     2    |     4    |      1       |       0.01  |
 +==================================================+



 Time used for   24 K matrix transformations:        0.13 seconds.

 Time used for   18 F{O} matrix transform.:          0.00 seconds.

 Time used for   28 ETA{O} vector calculat.:         0.01 seconds.

 Time used for    0 Xksi{O} and Eta{O2} vector calculat.:         0.00 seconds.

 Total time for  27 quadratic response func.:        0.74 seconds.


                 +---------------------------------------------------------------------------------------+
                 !                FINAL CCSD RESULTS FOR THE FIRST HYPERPOLARIZABILITIES                 !
                 +---------------------------------------------------------------------------------------+


  A operator                  B operator                  C operator                     property 
------------------------------------------------------------------------------------------------------

 XDIPLEN  (unrel.) -0.0080   XDIPLEN  (unrel.)  0.0040   ZDIPLEN  (unrel.)  0.0040     -31.953650    

 XDIPLEN  (unrel.) -0.0080   ZDIPLEN  (unrel.)  0.0040   XDIPLEN  (unrel.)  0.0040     -31.953650    

 YDIPLEN  (unrel.) -0.0080   YDIPLEN  (unrel.)  0.0040   ZDIPLEN  (unrel.)  0.0040     -1.6265806    

 YDIPLEN  (unrel.) -0.0080   ZDIPLEN  (unrel.)  0.0040   YDIPLEN  (unrel.)  0.0040     -1.6265806    

 ZDIPLEN  (unrel.) -0.0080   XDIPLEN  (unrel.)  0.0040   XDIPLEN  (unrel.)  0.0040     -31.950361    

 ZDIPLEN  (unrel.) -0.0080   YDIPLEN  (unrel.)  0.0040   YDIPLEN  (unrel.)  0.0040     -1.6206709    

 ZDIPLEN  (unrel.) -0.0080   ZDIPLEN  (unrel.)  0.0040   ZDIPLEN  (unrel.)  0.0040     -21.083397    


------------------------------------------------------------------------------------------------------



  

 *******************************************************************************
 *******************************************************************************
 *                                                                             *
 *                                                                             *
 *                   SUMMARY OF COUPLED CLUSTER CALCULATION                    *
 *                                                                             *
 *                                                                             *
 *******************************************************************************
 *******************************************************************************

                                                                                
                                                                                
            Total SCF   energy:                  -398.6263292412                
            Total MP2   energy:                  -398.6841108326                
            Total CC2   energy:                  -398.6843536141                
                                                                                
                                                                                
            Total SCF   energy:                  -398.6263292412                
            Total RSTAR energy:                  -398.6843536141                
            Total CC2   energy:                  -398.6842494824                
                                                                                
                                                                                
            Total SCF   energy:                  -398.6263292412                
            Total RSTAR energy:                  -398.6842494824                
            Total CC2   energy:                  -398.6842128906                
                                                                                
                                                                                
            Total SCF   energy:                  -398.6263292412                
            Total RSTAR energy:                  -398.6842128906                
            Total CC2   energy:                  -398.6842056488                
                                                                                
                                                                                
            Total SCF   energy:                  -398.6263292412                
            Total RSTAR energy:                  -398.6842056488                
            Total CC2   energy:                  -398.6842042862                
                                                                                
                                                                                
            Total SCF   energy:                  -398.6263292412                
            Total RSTAR energy:                  -398.6842042862                
            Total CC2   energy:                  -398.6842040319                
                                                                                
                                                                                
            Total SCF   energy:                  -398.6263292412                
            Total RSTAR energy:                  -398.6842040319                
            Total CC2   energy:                  -398.6842039845                
                                                                                
                                                                                
            Total SCF   energy:                  -398.6263292412                
            Total RSTAR energy:                  -398.6842039845                
            Total CC2   energy:                  -398.6842039756                
                                                                                
                                                                                
            Total SCF   energy:                  -398.6263292412                
            Total RSTAR energy:                  -398.6842039756                
            Total CC2   energy:                  -398.6842039740                
                                                                                
 Solvent: L_max=10, R_cav=  4.5300, Eps_st = 20.7000, Eps_op =  1.8410:         
            CC2      Total energy:                -398.6893746072               
            CC2      Solvation energy:              -0.0059324111               
                                                                                
                                                                                
                                                                                
            Total SCF   energy:                  -398.6263292412                
            Total RSTAR energy:                  -398.6842039740                
            Total CCSD  energy:                  -398.6991093412                
                                                                                
                                                                                
            Total SCF   energy:                  -398.6263292412                
            Total RSTAR energy:                  -398.6991093412                
            Total CCSD  energy:                  -398.6991143427                
                                                                                
                                                                                
            Total SCF   energy:                  -398.6263292412                
            Total RSTAR energy:                  -398.6991143427                
            Total CCSD  energy:                  -398.6991150960                
                                                                                
                                                                                
            Total SCF   energy:                  -398.6263292412                
            Total RSTAR energy:                  -398.6991150960                
            Total CCSD  energy:                  -398.6991152298                
                                                                                
                                                                                
            Total SCF   energy:                  -398.6263292412                
            Total RSTAR energy:                  -398.6991152298                
            Total CCSD  energy:                  -398.6991152538                
                                                                                
 Solvent: L_max=10, R_cav=  4.5300, Eps_st = 20.7000, Eps_op =  1.8410:         
            CCSD     Total energy:                -398.7042657891               
            CCSD     Solvation energy:              -0.0057911681               
                                                                                
  

 *******************************************************************************
 *******************************************************************************
 *                                                                             *
 *                                                                             *
 *                      END OF COUPLED CLUSTER CALCULATION                     *
 *                                                                             *
 *                                                                             *
 *******************************************************************************
 *******************************************************************************


 CPU and wall time for CC :      15.860      23.832

 
     Date and time (Linux)  : Wed Sep  5 11:38:34 2018
     Host name              : foeroyar                                


                      .-------------------------------------.
                      | End of Coupled Cluster Section (CC) |
                      `-------------------------------------'

  Total CPU  time used in DALTON:  15.97 seconds
  Total wall time used in DALTON:  23.94 seconds

 
     Date and time (Linux)  : Wed Sep  5 11:38:34 2018
     Host name              : foeroyar                                
