

     ************************************************************************
     *************** Dalton - An Electronic Structure Program ***************
     ************************************************************************

    This is output from DALTON (Release Dalton2013 patch 0)
   ----------------------------------------------------------------------------
    NOTE:
     
    Dalton is an experimental code for the evaluation of molecular
    properties using (MC)SCF, DFT, CI, and CC wave functions.
    The authors accept no responsibility for the performance of
    the code or for the correctness of the results.
     
    The code (in whole or part) is provided under a licence and
    is not to be reproduced for further distribution without
    the written permission of the authors or their representatives.
     
    See the home page "http://daltonprogram.org" for further information.
     
    If results obtained with this code are published,
    the appropriate citations would be both of:
     
       K. Aidas, C. Angeli, K. L. Bak, V. Bakken, R. Bast,
       L. Boman, O. Christiansen, R. Cimiraglia, S. Coriani,
       P. Dahle, E. K. Dalskov, U. Ekstroem, T. Enevoldsen,
       J. J. Eriksen, P. Ettenhuber, B. Fernandez, L. Ferrighi,
       H. Fliegl, L. Frediani, K. Hald, A. Halkier, C. Haettig,
       H. Heiberg, T. Helgaker, A. C. Hennum, H. Hettema,
       E. Hjertenaes, S. Hoest, I.-M. Hoeyvik, M. F. Iozzi,
       B. Jansik, H. J. Aa. Jensen, D. Jonsson, P. Joergensen,
       J. Kauczor, S. Kirpekar, T. Kjaergaard, W. Klopper,
       S. Knecht, R. Kobayashi, H. Koch, J. Kongsted, A. Krapp,
       K. Kristensen, A. Ligabue, O. B. Lutnaes, J. I. Melo,
       K. V. Mikkelsen, R. H. Myhre, C. Neiss, C. B. Nielsen,
       P. Norman, J. Olsen, J. M. H. Olsen, A. Osted,
       M. J. Packer, F. Pawlowski, T. B. Pedersen, P. F. Provasi,
       S. Reine, Z. Rinkevicius, T. A. Ruden, K. Ruud, V. Rybkin,
       P. Salek, C. C. M. Samson, A. Sanchez de Meras, T. Saue,
       S. P. A. Sauer, B. Schimmelpfennig, K. Sneskov,
       A. H. Steindal, K. O. Sylvester-Hvid, P. R. Taylor,
       A. M. Teale, E. I. Tellgren, D. P. Tew, A. J. Thorvaldsen,
       L. Thoegersen, O. Vahtras, M. A. Watson, D. J. D. Wilson,
       M. Ziolkowski and H. Agren.
       The Dalton quantum chemistry program system.
       WIREs Comput. Mol. Sci. 2013. doi: 10.1002/wcms.1172
    
    and
    
       Dalton, a Molecular Electronic Structure Program,
       Release DALTON2013.0 (2013), see http://daltonprogram.org
   ----------------------------------------------------------------------------

    Authors in alphabetical order (major contribution(s) in parenthesis):

  Kestutis Aidas,           Vilnius University,           Lithuania   (QM/MM)
  Celestino Angeli,         University of Ferrara,        Italy       (NEVPT2)
  Keld L. Bak,              UNI-C,                        Denmark     (AOSOPPA, non-adiabatic coupling, magnetic properties)
  Vebjoern Bakken,          University of Oslo,           Norway      (DALTON; geometry optimizer, symmetry detection)
  Radovan Bast,             KTH Stockholm                 Sweden      (DALTON installation and execution frameworks)
  Linus Boman,              NTNU,                         Norway      (Cholesky decomposition and subsystems)
  Ove Christiansen,         Aarhus University,            Denmark     (CC module)
  Renzo Cimiraglia,         University of Ferrara,        Italy       (NEVPT2)
  Sonia Coriani,            University of Trieste,        Italy       (CC module, MCD in RESPONS)
  Paal Dahle,               University of Oslo,           Norway      (Parallelization)
  Erik K. Dalskov,          UNI-C,                        Denmark     (SOPPA)
  Thomas Enevoldsen,        Univ. of Southern Denmark,    Denmark     (SOPPA)
  Janus J. Eriksen,         Aarhus University,            Denmark     (PE-MP2/SOPPA, TDA)
  Berta Fernandez,          U. of Santiago de Compostela, Spain       (doublet spin, ESR in RESPONS)
  Lara Ferrighi,            Aarhus University,            Denmark     (PCM Cubic response)
  Heike Fliegl,             University of Oslo,           Norway      (CCSD(R12))
  Luca Frediani,            UiT The Arctic U. of Norway,  Norway      (PCM)
  Bin Gao,                  UiT The Arctic U. of Norway,  Norway      (Gen1Int library)
  Christof Haettig,         Ruhr-University Bochum,       Germany     (CC module)
  Kasper Hald,              Aarhus University,            Denmark     (CC module)
  Asger Halkier,            Aarhus University,            Denmark     (CC module)
  Hanne Heiberg,            University of Oslo,           Norway      (geometry analysis, selected one-electron integrals)
  Trygve Helgaker,          University of Oslo,           Norway      (DALTON; ABACUS, ERI, DFT modules, London, and much more)
  Alf Christian Hennum,     University of Oslo,           Norway      (Parity violation)
  Hinne Hettema,            University of Auckland,       New Zealand (quadratic response in RESPONS; SIRIUS supersymmetry)
  Eirik Hjertenaes,         NTNU,                         Norway      (Cholesky decomposition)
  Maria Francesca Iozzi,    University of Oslo,           Norway      (RPA)
  Brano Jansik              Technical Univ. of Ostrava    Czech Rep.  (DFT cubic response)
  Hans Joergen Aa. Jensen,  Univ. of Southern Denmark,    Denmark     (DALTON; SIRIUS, RESPONS, ABACUS modules, London, and much more)
  Dan Jonsson,              UiT The Arctic U. of Norway,  Norway      (cubic response in RESPONS module)
  Poul Joergensen,          Aarhus University,            Denmark     (RESPONS, ABACUS, and CC modules)
  Joanna Kauczor,           Linkoeping University,        Sweden      (Complex polarization propagator (CPP) module)
  Sheela Kirpekar,          Univ. of Southern Denmark,    Denmark     (Mass-velocity & Darwin integrals)
  Wim Klopper,              KIT Karlsruhe,                Germany     (R12 code in CC, SIRIUS, and ABACUS modules)
  Stefan Knecht,            ETH Zurich,                   Switzerland (Parallel CI and MCSCF)
  Rika Kobayashi,           Australian National Univ.,    Australia   (DIIS in CC, London in MCSCF)
  Henrik Koch,              NTNU,                         Norway      (CC module, Cholesky decomposition)
  Jacob Kongsted,           Univ. of Southern Denmark,    Denmark     (Polarizable embedding, QM/MM)
  Andrea Ligabue,           University of Modena,         Italy       (CTOCD, AOSOPPA)
  Ola B. Lutnaes,           University of Oslo,           Norway      (DFT Hessian)
  Juan I. Melo,             University of Buenos Aires,   Argentina   (LRESC, Relativistic Effects on NMR Shieldings)
  Kurt V. Mikkelsen,        University of Copenhagen,     Denmark     (MC-SCRF and QM/MM)
  Rolf H. Myhre,            NTNU,                         Norway      (Cholesky, subsystems and ECC2)
  Christian Neiss,          Univ. Erlangen-Nuernberg,     Germany     (CCSD(R12))
  Christian B. Nielsen,     University of Copenhagen,     Denmark     (QM/MM)
  Patrick Norman,           Linkoeping University,        Sweden      (Cubic response and complex response in RESPONS)
  Jeppe Olsen,              Aarhus University,            Denmark     (SIRIUS CI/density modules)
  Jogvan Magnus H. Olsen,   Univ. of Southern Denmark,    Denmark     (Polarizable embedding, PE library, QM/MM)
  Anders Osted,             Copenhagen University,        Denmark     (QM/MM)
  Martin J. Packer,         University of Sheffield,      UK          (SOPPA)
  Filip Pawlowski,          Kazimierz Wielki University   Poland      (CC3)
  Thomas B. Pedersen,       University of Oslo,           Norway      (Cholesky decomposition)
  Patricio F. Provasi,      University of Northeastern,   Argentina   (Analysis of coupling constants in localized orbitals)
  Zilvinas Rinkevicius,     KTH Stockholm,                Sweden      (open-shell DFT, ESR)
  Elias Rudberg,            KTH Stockholm,                Sweden      (DFT grid and basis info)
  Torgeir A. Ruden,         University of Oslo,           Norway      (Numerical derivatives in ABACUS)
  Kenneth Ruud,             UiT The Arctic U. of Norway,  Norway      (DALTON; ABACUS magnetic properties and  much more)
  Pawel Salek,              KTH Stockholm,                Sweden      (DALTON; DFT code)
  Claire C. M. Samson       University of Karlsruhe       Germany     (Boys localization, r12 integrals in ERI)
  Alfredo Sanchez de Meras, University of Valencia,       Spain       (CC module, Cholesky decomposition)
  Trond Saue,               Paul Sabatier University,     France      (direct Fock matrix construction)
  Stephan P. A. Sauer,      University of Copenhagen,     Denmark     (SOPPA(CCSD), SOPPA prop., AOSOPPA, vibrational g-factors)
  Bernd Schimmelpfennig,    Forschungszentrum Karlsruhe,  Germany     (AMFI module)
  Kristian Sneskov,         Aarhus University,            Denmark     (QM/MM, PE-CC)
  Arnfinn H. Steindal,      UiT The Arctic U. of Norway,  Norway      (parallel QM/MM)
  K. O. Sylvester-Hvid,     University of Copenhagen,     Denmark     (MC-SCRF)
  Peter R. Taylor,          VLSCI/Univ. of Melbourne,     Australia   (Symmetry handling ABACUS, integral transformation)
  Andrew M. Teale,          University of Nottingham,     England     (DFT-AC, DFT-D)
  David P. Tew,             University of Bristol,        England     (CCSD(R12))
  Olav Vahtras,             KTH Stockholm,                Sweden      (triplet response, spin-orbit, ESR, TDDFT, open-shell DFT)
  David J. Wilson,          La Trobe University,          Australia   (DFT Hessian and DFT magnetizabilities)
  Hans Agren,               KTH Stockholm,                Sweden      (SIRIUS module, RESPONS, MC-SCRF solvation model)
 --------------------------------------------------------------------------------

     Date and time (Linux)  : Sun Sep  8 20:38:52 2013
     Host name              : lpqlx131.ups-tlse.fr                    

 * Work memory size             :    64000000 =  488.28 megabytes.

 * Directories for basis set searches:
   1) /home/bast/DALTON-2013.0-Source/build/test_geoopt_redintmin
   2) /home/bast/DALTON-2013.0-Source/build/basis


Compilation information
-----------------------

 Who compiled             | bast
 Host                     | lpqlx131.ups-tlse.fr
 System                   | Linux-3.8.5-201.fc18.x86_64
 CMake generator          | Unix Makefiles
 Processor                | x86_64
 64-bit integers          | OFF
 MPI                      | OFF
 Fortran compiler         | /usr/bin/gfortran
 Fortran compiler version | GNU Fortran (GCC) 4.7.2 20121109 (Red Hat 4.7.2-8)
 C compiler               | /usr/bin/gcc
 C compiler version       | gcc (GCC) 4.7.2 20121109 (Red Hat 4.7.2-8)
 C++ compiler             | /usr/bin/g++
 C++ compiler version     | g++ (GCC) 4.7.2 20121109 (Red Hat 4.7.2-8)
 Static linking           | OFF
 Last Git revision        | f34203295a86316e27f9e7b44f9b6769c4a046c0
 Configuration time       | 2013-09-08 20:31:27.952056


   Content of the .dal input file
 ----------------------------------

**DALTON INPUT                                    
.OPTIMIZE                                         
*OPTIMIZE                                         
.REDINT                                           
.INIMOD                                           
**WAVE FUNCTION                                   
.HF                                               
**END OF DALTON INPUT                             


   Content of the .mol file
 ----------------------------

BASIS                                                                          
STO-3G                                                                         
First order minimization in redundant internal coordinates                     
                                                                               
    2                                                                          
        6.    2                                                                
C     0.0000000000        0.0000000000        1.4547876282             *       
C     0.0000000000        0.0000000000       -1.4547876282             *       
        1.    6                                                                
H     1.6808445513        0.9704360937        2.1445545504             *       
H    -1.6808445513        0.9704360937        2.1445545504             *       
H     0.0000000000       -1.9408721894        2.1445545504             *       
H     1.6808445513       -0.9704360937       -2.1445545504             *       
H    -1.6808445513       -0.9704360937       -2.1445545504             *       
H     0.0000000000        1.9408721894       -2.1445545504             *       


       *******************************************************************
       *********** Output from DALTON general input processing ***********
       *******************************************************************

 --------------------------------------------------------------------------------
   Overall default print level:    0
   Print level for DALTON.STAT:    1

    "Old" integral transformation used (limited to max 255 basis functions)
 --------------------------------------------------------------------------------


 Chosen parameters for *OPTIMI :
 -------------------------------

 Default 1st order method will be used:   BFGS update.
 Optimization will be performed in redundant internal coordinates.
 Model Hessian will be used as initial Hessian.
 The model Hessian parameters of Roland Lindh will be used.


 Trust region method will be used to control step (default).



              >>>>>>>>>>>>>>>>>>>>>>>>>>>>>>>>>>>>>>>>>>>>>>>>>>>>>
              >>>>>>>>>> 1st Order Geometry Optimization >>>>>>>>>>
              >>>>>>>>>>>>>>>>>>>>>>>>>>>>>>>>>>>>>>>>>>>>>>>>>>>>>

 Reading .mol file to determine number of atoms for parallel runs.


                      SYMADD: Requested addition of symmetry
                      --------------------------------------

 Symmetry test threshold:  5.00E-06

 - molecule centered at center of mass and rotated so
   principal axes of inertia are along coordinate axes.

 Symmetry class found: D(3d)          

 The following elements were found:   X  YZ    


   ****************************************************************************
   *************** Output of molecule and basis set information ***************
   ****************************************************************************


    The two title cards from your ".mol" input:
    ------------------------------------------------------------------------
 1: First order minimization in redundant internal coordinates              
 2:                                                                         
    ------------------------------------------------------------------------

  Atomic type no.    1
  --------------------
  Nuclear charge:   6.00000
  Number of symmetry independent centers:    2
  Number of basis sets to read;    2
  Basis set file used for this atomic type with Z =   6 :
     "/home/bast/DALTON-2013.0-Source/build/basis/STO-3G"

  Atomic type no.    2
  --------------------
  Nuclear charge:   1.00000
  Number of symmetry independent centers:    6
  Number of basis sets to read;    2
  Basis set file used for this atomic type with Z =   1 :
     "/home/bast/DALTON-2013.0-Source/build/basis/STO-3G"


                      SYMADD: Requested addition of symmetry
                      --------------------------------------

 Symmetry test threshold:  5.00E-06

 - molecule centered at center of mass and rotated so
   principal axes of inertia are along coordinate axes.

 Symmetry class found: D(3d)          

 Symmetry Independent Centres             
 ----------------------------
       6 :      0.00000000     0.00000000     1.45478763  Isotope  1
       1 :      1.68084455     0.97043609     2.14455455  Isotope  1
       1 :      0.00000000    -1.94087219     2.14455455  Isotope  1

 The following elements were found:   X  YZ    


                         SYMGRP: Point group information
                         -------------------------------

Full point group is: D(3d)          
Represented as:      C2h

   * The point group was generated by:

      Reflection in the yz-plane
      Rotation about the x-axis

   * Group multiplication table

        |  E   C2x   i   Oyz
   -----+--------------------
     E  |  E   C2x   i   Oyz
    C2x | C2x   E   Oyz   i 
     i  |  i   Oyz   E   C2x
    Oyz | Oyz   i   C2x   E 

   * Character table

        |  E   C2x   i   Oyz
   -----+--------------------
    Ag  |   1    1    1    1
    Au  |   1    1   -1   -1
    Bu  |   1   -1   -1    1
    Bg  |   1   -1    1   -1

   * Direct product table

        | Ag   Au   Bu   Bg 
   -----+--------------------
    Ag  | Ag   Au   Bu   Bg 
    Au  | Au   Ag   Bg   Bu 
    Bu  | Bu   Bg   Ag   Au 
    Bg  | Bg   Bu   Au   Ag 


                                 Isotopic Masses
                                 ---------------

                           C   _1     12.000000
                           C   _2     12.000000
                           H   _1      1.007825
                           H   _2      1.007825
                           H   _3      1.007825
                           H   _4      1.007825
                           H   _1      1.007825
                           H   _2      1.007825

                       Total mass:    30.046950 amu
                       Natural abundance:  97.724 %

 Center-of-mass coordinates (a.u.):    0.000000    0.000000    0.000000


  Atoms and basis sets
  --------------------

  Number of atom types :    2
  Total number of atoms:    8

  Basis set used is "STO-3G" from the basis set library.

  label    atoms   charge   prim   cont     basis
  ----------------------------------------------------------------------
  C           2    6.0000    15     5      [6s3p|2s1p]                                        
  H           6    1.0000     3     1      [3s|1s]                                            
  ----------------------------------------------------------------------
  total:      8   18.0000    48    16
  ----------------------------------------------------------------------

  Threshold for neglecting AO integrals:  1.00D-12


  Cartesian Coordinates (a.u.)
  ----------------------------

  Total number of coordinates:   24
  C   / 1 :     1  x   0.0000000000    2  y   0.0000000000    3  z   1.4547876282
  C   / 2 :     4  x   0.0000000000    5  y  -0.0000000000    6  z  -1.4547876282
  H   / 1 :     7  x   1.6808445513    8  y   0.9704360940    9  z   2.1445545503
  H   / 2 :    10  x  -1.6808445513   11  y   0.9704360940   12  z   2.1445545503
  H   / 3 :    13  x   1.6808445513   14  y  -0.9704360940   15  z  -2.1445545503
  H   / 4 :    16  x  -1.6808445513   17  y  -0.9704360940   18  z  -2.1445545503
  H   / 1 :    19  x   0.0000000000   20  y  -1.9408721891   21  z   2.1445545506
  H   / 2 :    22  x   0.0000000000   23  y   1.9408721891   24  z  -2.1445545506


  Symmetry Coordinates
  --------------------

  Number of coordinates in each symmetry:     7    5    7    5

  Symmetry  Ag  ( 1)

    1   C     y    [  2  -    5 ]/2
    2   C     z    [  3  -    6 ]/2
    3   H     x    [  7  -   10  +   13  -   16 ]/4
    4   H     y    [  8  +   11  -   14  -   17 ]/4
    5   H     z    [  9  +   12  -   15  -   18 ]/4
    6   H     y    [ 20  -   23 ]/2
    7   H     z    [ 21  -   24 ]/2

  Symmetry  Au  ( 2)

    8   C     x    [  1  +    4 ]/2
    9   H     x    [  7  +   10  +   13  +   16 ]/4
   10   H     y    [  8  -   11  -   14  +   17 ]/4
   11   H     z    [  9  -   12  -   15  +   18 ]/4
   12   H     x    [ 19  +   22 ]/2

  Symmetry  Bu  ( 3)

   13   C     y    [  2  +    5 ]/2
   14   C     z    [  3  +    6 ]/2
   15   H     x    [  7  -   10  -   13  +   16 ]/4
   16   H     y    [  8  +   11  +   14  +   17 ]/4
   17   H     z    [  9  +   12  +   15  +   18 ]/4
   18   H     y    [ 20  +   23 ]/2
   19   H     z    [ 21  +   24 ]/2

  Symmetry  Bg  ( 4)

   20   C     x    [  1  -    4 ]/2
   21   H     x    [  7  +   10  -   13  -   16 ]/4
   22   H     y    [  8  -   11  +   14  -   17 ]/4
   23   H     z    [  9  -   12  +   15  -   18 ]/4
   24   H     x    [ 19  -   22 ]/2


   Interatomic separations (in Angstrom):
   --------------------------------------

            C   _1      C   _2      H   _1      H   _2      H   _3      H   _4
            ------      ------      ------      ------      ------      ------
 C   _1:    0.000000
 C   _2:    1.539681    0.000000
 H   _1:    1.089998    2.163956    0.000000
 H   _2:    1.089998    2.163956    1.778929    0.000000
 H   _3:    2.163956    1.089998    2.491264    3.061206    0.000000
 H   _4:    2.163956    1.089998    3.061206    2.491264    1.778929    0.000000
 H   _1:    1.089998    2.163956    1.778929    1.778929    2.491264    2.491264
 H   _2:    2.163956    1.089998    2.491264    2.491264    1.778929    1.778929

            H   _1      H   _2
            ------      ------
 H   _1:    0.000000
 H   _2:    3.061207    0.000000


  Max    interatomic separation is    3.0612 Angstrom (    5.7848 Bohr)
  between atoms    8 and    7, "H   _2" and "H   _1".

  Min HX interatomic separation is    1.0900 Angstrom (    2.0598 Bohr)

  Min YX interatomic separation is    1.5397 Angstrom (    2.9096 Bohr)


  Bond distances (Angstrom):
  --------------------------

                  atom 1     atom 2       distance
                  ------     ------       --------
  bond distance:  C   _2     C   _1       1.539681
  bond distance:  H   _1     C   _1       1.089998
  bond distance:  H   _2     C   _1       1.089998
  bond distance:  H   _3     C   _2       1.089998
  bond distance:  H   _4     C   _2       1.089998
  bond distance:  H   _1     C   _1       1.089998
  bond distance:  H   _2     C   _2       1.089998


  Bond angles (degrees):
  ----------------------

                  atom 1     atom 2     atom 3         angle
                  ------     ------     ------         -----
  bond angle:     C   _2     C   _1     H   _1       109.565
  bond angle:     C   _2     C   _1     H   _2       109.565
  bond angle:     C   _2     C   _1     H   _1       109.565
  bond angle:     H   _1     C   _1     H   _2       109.378
  bond angle:     H   _1     C   _1     H   _1       109.378
  bond angle:     H   _2     C   _1     H   _1       109.378
  bond angle:     C   _1     C   _2     H   _3       109.565
  bond angle:     C   _1     C   _2     H   _4       109.565
  bond angle:     C   _1     C   _2     H   _2       109.565
  bond angle:     H   _3     C   _2     H   _4       109.378
  bond angle:     H   _3     C   _2     H   _2       109.378
  bond angle:     H   _4     C   _2     H   _2       109.378




 Principal moments of inertia (u*A**2) and principal axes
 --------------------------------------------------------

   IA       6.378705          0.000000   -0.000000    1.000000
   IB      25.200821          0.000000    1.000000    0.000000
   IC      25.200822          1.000000    0.000000    0.000000


 Rotational constants
 --------------------

               A                   B                   C

          79229.0955          20054.0689          20054.0687 MHz
            2.642798            0.668932            0.668932 cm-1


@  Nuclear repulsion energy :   42.231780010746 Hartree


  Symmetry Orbitals
  -----------------

  Number of orbitals in each symmetry:           6    2    6    2


  Symmetry  Ag ( 1)

    1     C        1s         1 +    2
    2     C        1s         3 +    4
    3     C        2py        7 -    8
    4     C        2pz        9 -   10
    5     H        1s        11 +   12 +   13 +   14
    6     H        1s        15 +   16


  Symmetry  Au ( 2)

    7     C        2px        5 +    6
    8     H        1s        11 -   12 +   13 -   14


  Symmetry  Bu ( 3)

    9     C        1s         1 -    2
   10     C        1s         3 -    4
   11     C        2py        7 +    8
   12     C        2pz        9 +   10
   13     H        1s        11 +   12 -   13 -   14
   14     H        1s        15 -   16


  Symmetry  Bg ( 4)

   15     C        2px        5 -    6
   16     H        1s        11 -   12 -   13 +   14

  Symmetries of electric field:  Au (2)  Bu (3)  Bu (3)

  Symmetries of magnetic field:  Ag (1)  Bg (4)  Bg (4)


                     .---------------------------------------.
                     | Starting in Integral Section (HERMIT) |
                     `---------------------------------------'



    *************************************************************************
    ****************** Output from HERMIT input processing ******************
    *************************************************************************



     ************************************************************************
     ************************** Output from HERINT **************************
     ************************************************************************


 Threshold for neglecting two-electron integrals:  1.00D-12
 Number of two-electron integrals written:        2410 ( 25.9% )
 Megabytes written:                              0.034

 >>>> Total CPU  time used in HERMIT:   0.02 seconds
 >>>> Total wall time used in HERMIT:   0.02 seconds


                        .----------------------------------.
                        | End of Integral Section (HERMIT) |
                        `----------------------------------'



                   .--------------------------------------------.
                   | Starting in Wave Function Section (SIRIUS) |
                   `--------------------------------------------'


 *** Output from Huckel module :

     Using EWMO model:          F
     Using EHT  model:          T
     Number of Huckel orbitals each symmetry:    6    2    6    2

 Huckel EHT eigenvalues for symmetry :  1
          -11.391070      -1.391579      -0.509068      -0.497089      -0.217285
           -0.193757

 Huckel EHT eigenvalues for symmetry :  2
           -0.715783      -0.208059

 Huckel EHT eigenvalues for symmetry :  3
          -11.372776      -0.985795      -0.715783      -0.230509      -0.208059
           -0.202961

 Huckel EHT eigenvalues for symmetry :  4
           -0.509068      -0.193757

 **********************************************************************
 *SIRIUS* a direct, restricted step, second order MCSCF program       *
 **********************************************************************

 
     Date and time (Linux)  : Sun Sep  8 20:38:52 2013
     Host name              : lpqlx131.ups-tlse.fr                    

 Title lines from ".mol" input file:
     First order minimization in redundant internal coordinates              
                                                                             

 Print level on unit LUPRI =   2 is   0
 Print level on unit LUW4  =   2 is   5

@    Restricted, closed shell Hartree-Fock calculation.

 Initial molecular orbitals are obtained according to
 ".MOSTART EHT   " input option

     Wave function specification
     ============================
@    For the wave function of type :      >>> HF <<<
@    Number of closed shell electrons          18
@    Number of electrons in active shells       0
@    Total charge of the molecule               0

@    Spin multiplicity and 2 M_S                1         0
     Total number of symmetries                 4
@    Reference state symmetry                   1

     Orbital specifications
     ======================
     Abelian symmetry species          All |    1    2    3    4
                                       --- |  ---  ---  ---  ---
     Total number of orbitals           16 |    6    2    6    2
     Number of basis functions          16 |    6    2    6    2

      ** Automatic occupation of RHF orbitals **

      -- Initial occupation of symmetries is determined from extended Huckel guess.           
      -- Initial occupation of symmetries is :
@    Occupied SCF orbitals               9 |    4    1    3    1

     Maximum number of Fock   iterations      0
     Maximum number of DIIS   iterations     60
     Maximum number of QC-SCF iterations     60
     Threshold for SCF convergence     1.00D-05


 >>>>> DIIS optimization of Hartree-Fock <<<<<

 C1-DIIS algorithm; max error vectors =   10

 Automatic occupation of symmetries with  18 electrons.

 Iter     Total energy    Error norm  Delta(E)    SCF occupation
 -----------------------------------------------------------------------------
     (Precalculated two-electron integrals are transformed to P-supermatrix elements.
      Threshold for discarding integrals :  1.00D-12 )
@  1  -78.1785230923       1.86D+00  -7.82D+01     4   1   3   1
      Virial theorem: -V/T =      2.009035
@      MULPOP C   _1  0.37; C   _2  0.37; H   _1 -0.12; H   _2 -0.12; H   _3 -0.12; H   _4 -0.12; H   _1 -0.12; H   _2 -0.12; 
 -----------------------------------------------------------------------------
@  2  -78.3022959671       2.10D-01  -1.24D-01     4   1   3   1
      Virial theorem: -V/T =      2.006905
@      MULPOP C   _1 -0.24; C   _2 -0.24; H   _1  0.08; H   _2  0.08; H   _3  0.08; H   _4  0.08; H   _1  0.08; H   _2  0.08; 
 -----------------------------------------------------------------------------
@  3  -78.3054385338       4.04D-02  -3.14D-03     4   1   3   1
      Virial theorem: -V/T =      2.008858
@      MULPOP C   _1 -0.16; C   _2 -0.16; H   _1  0.05; H   _2  0.05; H   _3  0.05; H   _4  0.05; H   _1  0.05; H   _2  0.05; 
 -----------------------------------------------------------------------------
@  4  -78.3055698718       7.24D-03  -1.31D-04     4   1   3   1
      Virial theorem: -V/T =      2.008386
@      MULPOP C   _1 -0.17; C   _2 -0.17; H   _1  0.06; H   _2  0.06; H   _3  0.06; H   _4  0.06; H   _1  0.06; H   _2  0.06; 
 -----------------------------------------------------------------------------
@  5  -78.3055756187       1.18D-04  -5.75D-06     4   1   3   1
      Virial theorem: -V/T =      2.008325
@      MULPOP C   _1 -0.17; C   _2 -0.17; H   _1  0.06; H   _2  0.06; H   _3  0.06; H   _4  0.06; H   _1  0.06; H   _2  0.06; 
 -----------------------------------------------------------------------------
@  6  -78.3055756201       6.70D-06  -1.33D-09     4   1   3   1

@ *** DIIS converged in   6 iterations !
@     Converged SCF energy, gradient:    -78.305575620057    6.70D-06
    - total time used in SIRFCK :              0.00 seconds


 *** SCF orbital energy analysis ***

 Only the five lowest virtual orbital energies printed in each symmetry.

 Number of electrons :   18
 Orbital occupations :    4    1    3    1

 Sym       Hartree-Fock orbital energies

  1    -11.03457261    -0.98050476    -0.46399939    -0.46010876     0.72041961
         0.78614243

  2     -0.57328623     0.65908375

  3    -11.03487945    -0.80656963    -0.57328623     0.65908374     0.68083052
         0.77592504

  4     -0.46010876     0.78614244

    E(LUMO) :     0.65908374 au (symmetry 3)
  - E(HOMO) :    -0.46010876 au (symmetry 1)
  ------------------------------------------
    gap     :     1.11919250 au

 >>> Writing SIRIFC interface file <<<

 >>>> CPU and wall time for SCF :       0.002       0.003


                       .-----------------------------------.
                       | >>> Final results from SIRIUS <<< |
                       `-----------------------------------'


@    Spin multiplicity:           1
@    Spatial symmetry:            1
@    Total charge of molecule:    0

@    Final HF energy:             -78.305575620057                 
@    Nuclear repulsion:            42.231780010746
@    Electronic energy:          -120.537355630803

@    Final gradient norm:           0.000006695505

 
     Date and time (Linux)  : Sun Sep  8 20:38:52 2013
     Host name              : lpqlx131.ups-tlse.fr                    

 (Only coefficients >0.0100 are printed.)

 Molecular orbitals for symmetry species  1
 ------------------------------------------

    Orbital         1        2        3        4        5        6
   1 C   :1s     0.7018  -0.1653   0.0199   0.0000   0.1498  -0.0000
   2 C   :1s     0.0227   0.4542  -0.0851  -0.0000  -0.9615   0.0000
   3 C   :2py    0.0000   0.0000   0.0000  -0.4057   0.0000   0.8521
   4 C   :2pz    0.0031  -0.0623   0.5441   0.0000  -0.4253   0.0000
   5 H   :1s    -0.0049   0.1114   0.1449  -0.1949   0.5183  -0.3432
   6 H   :1s    -0.0049   0.1114   0.1449   0.3898   0.5183   0.6865

 Molecular orbitals for symmetry species  2
 ------------------------------------------

    Orbital         1        2
   1 C   :2px    0.3995  -0.7233
   2 H   :1s     0.2710   0.6215

 Molecular orbitals for symmetry species  3
 ------------------------------------------

    Orbital         1        2        3        4        5
   1 C   :1s     0.7011  -0.1461   0.0000   0.0000   0.0697
   2 C   :1s     0.0306   0.4414  -0.0000  -0.0000  -0.3894
   3 C   :2py    0.0000   0.0000   0.3995   0.7233   0.0000
   4 C   :2pz   -0.0029   0.1456  -0.0000  -0.0000   0.9968
   5 H   :1s    -0.0050   0.1700   0.1565  -0.3588  -0.1372
   6 H   :1s    -0.0050   0.1700  -0.3129   0.7176  -0.1372

 Molecular orbitals for symmetry species  4
 ------------------------------------------

    Orbital         1        2
   1 C   :2px    0.4057   0.8521
   2 H   :1s     0.3376  -0.5945



 >>>> Total CPU  time used in SIRIUS :      0.00 seconds
 >>>> Total wall time used in SIRIUS :      0.01 seconds

 
     Date and time (Linux)  : Sun Sep  8 20:38:52 2013
     Host name              : lpqlx131.ups-tlse.fr                    


                     .---------------------------------------.
                     | End of Wave Function Section (SIRIUS) |
                     `---------------------------------------'


     Order of analytical energy-derivatives available:   2
     This will be the default.

 Center of mass dipole origin  :    0.000000    0.000000    0.000000

 Center of mass gauge origin   :    0.000000    0.000000    0.000000


                 .------------------------------------------------.
                 | Starting in Static Property Section (ABACUS) - |
                 `------------------------------------------------'


 
     Date and time (Linux)  : Sun Sep  8 20:38:52 2013
     Host name              : lpqlx131.ups-tlse.fr                    

 Largest deviation from tra-rot symmetry is in gradient element  1:  2.24E-12


   ***************************************************************************
   ************************ FINAL RESULTS from ABACUS ************************
   ***************************************************************************


 
     Date and time (Linux)  : Sun Sep  8 20:38:52 2013
     Host name              : lpqlx131.ups-tlse.fr                    


                             Molecular geometry (au)
                             -----------------------

 C   _1     0.0000000000            0.0000000000            1.4547876282
 C   _2     0.0000000000           -0.0000000000           -1.4547876282
 H   _1     1.6808445513            0.9704360940            2.1445545503
 H   _2    -1.6808445513            0.9704360940            2.1445545503
 H   _3     1.6808445513           -0.9704360940           -2.1445545503
 H   _4    -1.6808445513           -0.9704360940           -2.1445545503
 H   _1     0.0000000000           -1.9408721891            2.1445545506
 H   _2     0.0000000000            1.9408721891           -2.1445545506





                        Molecular wave function and energy
                        ----------------------------------

     Spin multiplicity  1     State number       1     Total charge       0

     Total energy        -78.3055756201 au (Hartrees)
                         -2130.80310398 eV
                           -205591.2571 kJ/mol


                             Relativistic corrections
                             ------------------------

     Darwin correction:                          0.0776926646 au
     Mass-velocity correction:                  -0.0979647441 au

     Total relativistic correction:             -0.0202720795 au (0.0259%)
     Non-relativistic + relativistic energy:   -78.3258476996 au




                             Molecular gradient (au)
                             -----------------------

                         C   y      0.0000000415
                         C   z      0.0098288775
                         H   x      0.0175593260
                         H   y      0.0101379017
                         H   z     -0.0103335763
                         H   y     -0.0101379414
                         H   z     -0.0051667754



 C   _1     0.0000000000            0.0000000208            0.0049144388
 C   _2     0.0000000000           -0.0000000208           -0.0049144388
 H   _1     0.0043898315            0.0025344754           -0.0025833941
 H   _2    -0.0043898315            0.0025344754           -0.0025833941
 H   _3     0.0043898315           -0.0025344754            0.0025833941
 H   _4    -0.0043898315           -0.0025344754            0.0025833941
 H   _1     0.0000000000           -0.0050689707           -0.0025833877
 H   _2     0.0000000000            0.0050689707            0.0025833877





                                  Dipole moment
                                  -------------

                 au               Debye          C m (/(10**-30)
              0.000000           0.000000           0.000000


                             Dipole moment components
                             ------------------------

                    All dipole components are zero by symmetry


   Units:   1 a.u. =   2.54175 Debye 
            1 a.u. =   8.47835 (10**-30) C m (SI)




   Interatomic separations (in Angstrom):
   --------------------------------------

            C   _1      C   _2      H   _1      H   _2      H   _3      H   _4
            ------      ------      ------      ------      ------      ------
 C   _1:    0.000000
 C   _2:    1.539681    0.000000
 H   _1:    1.089998    2.163956    0.000000
 H   _2:    1.089998    2.163956    1.778929    0.000000
 H   _3:    2.163956    1.089998    2.491264    3.061206    0.000000
 H   _4:    2.163956    1.089998    3.061206    2.491264    1.778929    0.000000
 H   _1:    1.089998    2.163956    1.778929    1.778929    2.491264    2.491264
 H   _2:    2.163956    1.089998    2.491264    2.491264    1.778929    1.778929

            H   _1      H   _2
            ------      ------
 H   _1:    0.000000
 H   _2:    3.061207    0.000000


  Max    interatomic separation is    3.0612 Angstrom (    5.7848 Bohr)
  between atoms    8 and    7, "H   _2" and "H   _1".

  Min HX interatomic separation is    1.0900 Angstrom (    2.0598 Bohr)

  Min YX interatomic separation is    1.5397 Angstrom (    2.9096 Bohr)


  Bond distances (Angstrom):
  --------------------------

                  atom 1     atom 2       distance
                  ------     ------       --------
  bond distance:  C   _2     C   _1       1.539681
  bond distance:  H   _1     C   _1       1.089998
  bond distance:  H   _2     C   _1       1.089998
  bond distance:  H   _3     C   _2       1.089998
  bond distance:  H   _4     C   _2       1.089998
  bond distance:  H   _1     C   _1       1.089998
  bond distance:  H   _2     C   _2       1.089998


  Bond angles (degrees):
  ----------------------

                  atom 1     atom 2     atom 3         angle
                  ------     ------     ------         -----
  bond angle:     C   _2     C   _1     H   _1       109.565
  bond angle:     C   _2     C   _1     H   _2       109.565
  bond angle:     C   _2     C   _1     H   _1       109.565
  bond angle:     H   _1     C   _1     H   _2       109.378
  bond angle:     H   _1     C   _1     H   _1       109.378
  bond angle:     H   _2     C   _1     H   _1       109.378
  bond angle:     C   _1     C   _2     H   _3       109.565
  bond angle:     C   _1     C   _2     H   _4       109.565
  bond angle:     C   _1     C   _2     H   _2       109.565
  bond angle:     H   _3     C   _2     H   _4       109.378
  bond angle:     H   _3     C   _2     H   _2       109.378
  bond angle:     H   _4     C   _2     H   _2       109.378




 CPU time statistics for ABACUS
 ------------------------------




 >>>> Total CPU  time used in ABACUS:   0.04 seconds
 >>>> Total wall time used in ABACUS:   0.04 seconds


                   .-------------------------------------------.
                   | End of Static Property Section (ABACUS) - |
                   `-------------------------------------------'



           :::::::::::::::::::::::::::::::::::::::::::::::::::::::::::
           ::::::::::::::: Optimization Control Center :::::::::::::::
           :::::::::::::::::::::::::::::::::::::::::::::::::::::::::::



                                Next geometry (au)
                                ------------------

 C   _1     0.0000000000           -0.0000000003            1.4574033118
 C   _2     0.0000000000            0.0000000003           -1.4574033118
 H   _1     1.6586116462            0.9575998719            2.1945790652
 H   _2    -1.6586116462            0.9575998719            2.1945790652
 H   _3     1.6586116462           -0.9575998719           -2.1945790652
 H   _4    -1.6586116462           -0.9575998719           -2.1945790652
 H   _1     0.0000000000           -1.9151997528            2.1945790744
 H   _2     0.0000000000            1.9151997528           -2.1945790744





                             Optimization information
                             ------------------------

 Iteration number               :       0
 End of optimization            :       F 
 Energy at this geometry is     :     -78.305576
 Norm of gradient               :       0.015573
 Norm of step                   :       0.165395
 Updated trust radius           :       0.500000
 Total Hessian index            :       0




 **************************************************************************************
 ****************** Output of molecule and basis set info suppressed ******************
 **************************************************************************************



                     .---------------------------------------.
                     | Starting in Integral Section (HERMIT) |
                     `---------------------------------------'



    *************************************************************************
    ****************** Output from HERMIT input processing ******************
    *************************************************************************


 Threshold for neglecting two-electron integrals:  1.00D-12
 Number of two-electron integrals written:        2591 ( 27.8% )
 Megabytes written:                              0.034

 >>>> Total CPU  time used in HERMIT:   0.02 seconds
 >>>> Total wall time used in HERMIT:   0.02 seconds


                        .----------------------------------.
                        | End of Integral Section (HERMIT) |
                        `----------------------------------'



                   .--------------------------------------------.
                   | Starting in Wave Function Section (SIRIUS) |
                   `--------------------------------------------'


 **********************************************************************
 *SIRIUS* a direct, restricted step, second order MCSCF program       *
 **********************************************************************

 (Wave function specification suppressed here, see output above for initial geometry.)


 >>>>> DIIS optimization of Hartree-Fock <<<<<

 C1-DIIS algorithm; max error vectors =   10

 Iter      Total energy        Error norm    Delta(E)  DIIS dim.
 -----------------------------------------------------------------------------
     (Precalculated two-electron integrals are transformed to P-supermatrix elements.
      Threshold for discarding integrals :  1.00D-12 )
@  1    -78.3060527623        2.67262D-02   -4.77D-04    1
      Virial theorem: -V/T =      2.008249
@      MULPOP C   _1 -0.17; C   _2 -0.17; H   _1  0.06; H   _2  0.06; H   _3  0.06; H   _4  0.06; H   _1  0.06; H   _2  0.06; 
 -----------------------------------------------------------------------------
@  2    -78.3061093969        5.18408D-03   -5.66D-05    2
      Virial theorem: -V/T =      2.008228
@      MULPOP C   _1 -0.17; C   _2 -0.17; H   _1  0.06; H   _2  0.06; H   _3  0.06; H   _4  0.06; H   _1  0.06; H   _2  0.06; 
 -----------------------------------------------------------------------------
@  3    -78.3061124664        5.95170D-04   -3.07D-06    3
      Virial theorem: -V/T =      2.008242
@      MULPOP C   _1 -0.17; C   _2 -0.17; H   _1  0.06; H   _2  0.06; H   _3  0.06; H   _4  0.06; H   _1  0.06; H   _2  0.06; 
 -----------------------------------------------------------------------------
@  4    -78.3061125064        7.49588D-05   -4.00D-08    4
      Virial theorem: -V/T =      2.008239
@      MULPOP C   _1 -0.17; C   _2 -0.17; H   _1  0.06; H   _2  0.06; H   _3  0.06; H   _4  0.06; H   _1  0.06; H   _2  0.06; 
 -----------------------------------------------------------------------------
@  5    -78.3061125070        1.06087D-05   -5.31D-10    5
      Virial theorem: -V/T =      2.008240
@      MULPOP C   _1 -0.17; C   _2 -0.17; H   _1  0.06; H   _2  0.06; H   _3  0.06; H   _4  0.06; H   _1  0.06; H   _2  0.06; 
 -----------------------------------------------------------------------------
@  6    -78.3061125070        3.16402D-07   -1.26D-11    6

@ *** DIIS converged in   6 iterations !
@     Converged SCF energy, gradient:    -78.306112506972    3.16D-07
    - total time used in SIRFCK :              0.00 seconds


 *** SCF orbital energy analysis ***

 Only the five lowest virtual orbital energies printed in each symmetry.

 Number of electrons :   18
 Orbital occupations :    4    1    3    1

 Sym       Hartree-Fock orbital energies

  1    -11.03543405    -0.97957464    -0.47234823    -0.46048527     0.74024143
         0.78843765

  2     -0.57059747     0.65430443

  3    -11.03575425    -0.81350865    -0.57059747     0.65430442     0.68329648
         0.78109786

  4     -0.46048527     0.78843765

    E(LUMO) :     0.65430442 au (symmetry 3)
  - E(HOMO) :    -0.46048527 au (symmetry 1)
  ------------------------------------------
    gap     :     1.11478970 au

 >>> Writing SIRIFC interface file <<<

 >>>> CPU and wall time for SCF :       0.002       0.003


                       .-----------------------------------.
                       | >>> Final results from SIRIUS <<< |
                       `-----------------------------------'


@    Spin multiplicity:           1
@    Spatial symmetry:            1
@    Total charge of molecule:    0

@    Final HF energy:             -78.306112506972                 
@    Nuclear repulsion:            42.199751396350
@    Electronic energy:          -120.505863903322

@    Final gradient norm:           0.000000316402

 
     Date and time (Linux)  : Sun Sep  8 20:38:52 2013
     Host name              : lpqlx131.ups-tlse.fr                    



 >>>> Total CPU  time used in SIRIUS :      0.00 seconds
 >>>> Total wall time used in SIRIUS :      0.00 seconds

 
     Date and time (Linux)  : Sun Sep  8 20:38:52 2013
     Host name              : lpqlx131.ups-tlse.fr                    


                     .---------------------------------------.
                     | End of Wave Function Section (SIRIUS) |
                     `---------------------------------------'

 Trust radius set equal to norm of step.
 Updated trust radius   0.16539

     Order of analytical energy-derivatives available:   2
     This will be the default.

 Center of mass dipole origin  :    0.000000    0.000000    0.000000

 Center of mass gauge origin   :    0.000000    0.000000    0.000000


                 .------------------------------------------------.
                 | Starting in Static Property Section (ABACUS) - |
                 `------------------------------------------------'


 
     Date and time (Linux)  : Sun Sep  8 20:38:52 2013
     Host name              : lpqlx131.ups-tlse.fr                    


   ***************************************************************************
   ************************ FINAL RESULTS from ABACUS ************************
   ***************************************************************************


 
     Date and time (Linux)  : Sun Sep  8 20:38:52 2013
     Host name              : lpqlx131.ups-tlse.fr                    


 CPU time statistics for ABACUS
 ------------------------------




 >>>> Total CPU  time used in ABACUS:   0.04 seconds
 >>>> Total wall time used in ABACUS:   0.04 seconds


                   .-------------------------------------------.
                   | End of Static Property Section (ABACUS) - |
                   `-------------------------------------------'



           :::::::::::::::::::::::::::::::::::::::::::::::::::::::::::
           ::::::::::::::: Optimization Control Center :::::::::::::::
           :::::::::::::::::::::::::::::::::::::::::::::::::::::::::::



                                Next geometry (au)
                                ------------------

 C   _1     0.0000000000            0.0000000021            1.4532888342
 C   _2     0.0000000000           -0.0000000021           -1.4532888342
 H   _1     1.6622241928            0.9596855828            2.1800159936
 H   _2    -1.6622241928            0.9596855828            2.1800159936
 H   _3     1.6622241928           -0.9596855828           -2.1800159936
 H   _4    -1.6622241928           -0.9596855828           -2.1800159936
 H   _1     0.0000000000           -1.9193711672            2.1800159926
 H   _2     0.0000000000            1.9193711672           -2.1800159926





                             Optimization information
                             ------------------------

 Iteration number               :       1
 End of optimization            :       F 
 Energy at this geometry is     :     -78.306113
 Energy change from last geom.  :      -0.000537
 Norm of gradient               :       0.003830
 Norm of step                   :       0.045191
 Updated trust radius           :       0.165395
 Total Hessian index            :       0




 **************************************************************************************
 ****************** Output of molecule and basis set info suppressed ******************
 **************************************************************************************



                     .---------------------------------------.
                     | Starting in Integral Section (HERMIT) |
                     `---------------------------------------'



    *************************************************************************
    ****************** Output from HERMIT input processing ******************
    *************************************************************************


 Threshold for neglecting two-electron integrals:  1.00D-12
 Number of two-electron integrals written:        2595 ( 27.9% )
 Megabytes written:                              0.034

 >>>> Total CPU  time used in HERMIT:   0.02 seconds
 >>>> Total wall time used in HERMIT:   0.02 seconds


                        .----------------------------------.
                        | End of Integral Section (HERMIT) |
                        `----------------------------------'



                   .--------------------------------------------.
                   | Starting in Wave Function Section (SIRIUS) |
                   `--------------------------------------------'


 **********************************************************************
 *SIRIUS* a direct, restricted step, second order MCSCF program       *
 **********************************************************************

 (Wave function specification suppressed here, see output above for initial geometry.)


 >>>>> DIIS optimization of Hartree-Fock <<<<<

 C1-DIIS algorithm; max error vectors =   10

 Iter      Total energy        Error norm    Delta(E)  DIIS dim.
 -----------------------------------------------------------------------------
     (Precalculated two-electron integrals are transformed to P-supermatrix elements.
      Threshold for discarding integrals :  1.00D-12 )
@  1    -78.3061771720        6.22297D-03   -6.47D-05    1
      Virial theorem: -V/T =      2.008148
@      MULPOP C   _1 -0.17; C   _2 -0.17; H   _1  0.06; H   _2  0.06; H   _3  0.06; H   _4  0.06; H   _1  0.06; H   _2  0.06; 
 -----------------------------------------------------------------------------
@  2    -78.3061793715        9.61230D-04   -2.20D-06    2
      Virial theorem: -V/T =      2.008160
@      MULPOP C   _1 -0.17; C   _2 -0.17; H   _1  0.06; H   _2  0.06; H   _3  0.06; H   _4  0.06; H   _1  0.06; H   _2  0.06; 
 -----------------------------------------------------------------------------
@  3    -78.3061794731        1.35643D-04   -1.02D-07    3
      Virial theorem: -V/T =      2.008164
@      MULPOP C   _1 -0.17; C   _2 -0.17; H   _1  0.06; H   _2  0.06; H   _3  0.06; H   _4  0.06; H   _1  0.06; H   _2  0.06; 
 -----------------------------------------------------------------------------
@  4    -78.3061794753        1.44124D-05   -2.27D-09    4
      Virial theorem: -V/T =      2.008164
@      MULPOP C   _1 -0.17; C   _2 -0.17; H   _1  0.06; H   _2  0.06; H   _3  0.06; H   _4  0.06; H   _1  0.06; H   _2  0.06; 
 -----------------------------------------------------------------------------
@  5    -78.3061794754        2.30354D-06   -2.11D-11    5

@ *** DIIS converged in   5 iterations !
@     Converged SCF energy, gradient:    -78.306179475365    2.30D-06
    - total time used in SIRFCK :              0.00 seconds


 *** SCF orbital energy analysis ***

 Only the five lowest virtual orbital energies printed in each symmetry.

 Number of electrons :   18
 Orbital occupations :    4    1    3    1

 Sym       Hartree-Fock orbital energies

  1    -11.03519285    -0.98093104    -0.47159267    -0.46035910     0.73698974
         0.78916550

  2     -0.57194803     0.65554950

  3    -11.03550386    -0.81213060    -0.57194803     0.65554950     0.68667562
         0.78125413

  4     -0.46035910     0.78916550

    E(LUMO) :     0.65554950 au (symmetry 3)
  - E(HOMO) :    -0.46035910 au (symmetry 1)
  ------------------------------------------
    gap     :     1.11590860 au

 >>> Writing SIRIFC interface file <<<

 >>>> CPU and wall time for SCF :       0.002       0.003


                       .-----------------------------------.
                       | >>> Final results from SIRIUS <<< |
                       `-----------------------------------'


@    Spin multiplicity:           1
@    Spatial symmetry:            1
@    Total charge of molecule:    0

@    Final HF energy:             -78.306179475365                 
@    Nuclear repulsion:            42.268346116902
@    Electronic energy:          -120.574525592267

@    Final gradient norm:           0.000002303543

 
     Date and time (Linux)  : Sun Sep  8 20:38:52 2013
     Host name              : lpqlx131.ups-tlse.fr                    



 >>>> Total CPU  time used in SIRIUS :      0.00 seconds
 >>>> Total wall time used in SIRIUS :      0.00 seconds

 
     Date and time (Linux)  : Sun Sep  8 20:38:52 2013
     Host name              : lpqlx131.ups-tlse.fr                    


                     .---------------------------------------.
                     | End of Wave Function Section (SIRIUS) |
                     `---------------------------------------'

 Trust radius squarely increased due to very good ratio.
 Updated trust radius   0.16539

     Order of analytical energy-derivatives available:   2
     This will be the default.

 Center of mass dipole origin  :    0.000000    0.000000    0.000000

 Center of mass gauge origin   :    0.000000    0.000000    0.000000


                 .------------------------------------------------.
                 | Starting in Static Property Section (ABACUS) - |
                 `------------------------------------------------'


 
     Date and time (Linux)  : Sun Sep  8 20:38:52 2013
     Host name              : lpqlx131.ups-tlse.fr                    

 Largest deviation from tra-rot symmetry is in gradient element  1:  2.40E-12


   ***************************************************************************
   ************************ FINAL RESULTS from ABACUS ************************
   ***************************************************************************


 
     Date and time (Linux)  : Sun Sep  8 20:38:52 2013
     Host name              : lpqlx131.ups-tlse.fr                    


 CPU time statistics for ABACUS
 ------------------------------




 >>>> Total CPU  time used in ABACUS:   0.04 seconds
 >>>> Total wall time used in ABACUS:   0.04 seconds


                   .-------------------------------------------.
                   | End of Static Property Section (ABACUS) - |
                   `-------------------------------------------'



           :::::::::::::::::::::::::::::::::::::::::::::::::::::::::::
           ::::::::::::::: Optimization Control Center :::::::::::::::
           :::::::::::::::::::::::::::::::::::::::::::::::::::::::::::



                                Next geometry (au)
                                ------------------

 C   _1     0.0000000000            0.0000000005            1.4528997444
 C   _2     0.0000000000           -0.0000000005           -1.4528997444
 H   _1     1.6622852891            0.9597208575            2.1793703201
 H   _2    -1.6622852891            0.9597208575            2.1793703201
 H   _3     1.6622852891           -0.9597208575           -2.1793703201
 H   _4    -1.6622852891           -0.9597208575           -2.1793703201
 H   _1     0.0000000000           -1.9194417183            2.1793703225
 H   _2     0.0000000000            1.9194417183           -2.1793703225





                             Optimization information
                             ------------------------

 Iteration number               :       2
 End of optimization            :       F 
 Energy at this geometry is     :     -78.306179
 Energy change from last geom.  :      -0.000067
 Norm of gradient               :       0.000372
 Norm of step                   :       0.002361
 Updated trust radius           :       0.165395
 Total Hessian index            :       0




 **************************************************************************************
 ****************** Output of molecule and basis set info suppressed ******************
 **************************************************************************************



                     .---------------------------------------.
                     | Starting in Integral Section (HERMIT) |
                     `---------------------------------------'



    *************************************************************************
    ****************** Output from HERMIT input processing ******************
    *************************************************************************


 Threshold for neglecting two-electron integrals:  1.00D-12
 Number of two-electron integrals written:        2591 ( 27.8% )
 Megabytes written:                              0.034

 >>>> Total CPU  time used in HERMIT:   0.02 seconds
 >>>> Total wall time used in HERMIT:   0.02 seconds


                        .----------------------------------.
                        | End of Integral Section (HERMIT) |
                        `----------------------------------'



                   .--------------------------------------------.
                   | Starting in Wave Function Section (SIRIUS) |
                   `--------------------------------------------'


 **********************************************************************
 *SIRIUS* a direct, restricted step, second order MCSCF program       *
 **********************************************************************

 (Wave function specification suppressed here, see output above for initial geometry.)


 >>>>> DIIS optimization of Hartree-Fock <<<<<

 C1-DIIS algorithm; max error vectors =   10

 Iter      Total energy        Error norm    Delta(E)  DIIS dim.
 -----------------------------------------------------------------------------
     (Precalculated two-electron integrals are transformed to P-supermatrix elements.
      Threshold for discarding integrals :  1.00D-12 )
@  1    -78.3061796434        3.54003D-04   -1.68D-07    1
      Virial theorem: -V/T =      2.008156
@      MULPOP C   _1 -0.17; C   _2 -0.17; H   _1  0.06; H   _2  0.06; H   _3  0.06; H   _4  0.06; H   _1  0.06; H   _2  0.06; 
 -----------------------------------------------------------------------------
@  2    -78.3061796498        5.17898D-05   -6.34D-09    2
      Virial theorem: -V/T =      2.008157
@      MULPOP C   _1 -0.17; C   _2 -0.17; H   _1  0.06; H   _2  0.06; H   _3  0.06; H   _4  0.06; H   _1  0.06; H   _2  0.06; 
 -----------------------------------------------------------------------------
@  3    -78.3061796501        7.78642D-06   -2.76D-10    3

@ *** DIIS converged in   3 iterations !
@     Converged SCF energy, gradient:    -78.306179650050    7.79D-06
    - total time used in SIRFCK :              0.00 seconds


 *** SCF orbital energy analysis ***

 Only the five lowest virtual orbital energies printed in each symmetry.

 Number of electrons :   18
 Orbital occupations :    4    1    3    1

 Sym       Hartree-Fock orbital energies

  1    -11.03518473    -0.98104429    -0.47165023    -0.46033171     0.73692844
         0.78923618

  2     -0.57202601     0.65555448

  3    -11.03549497    -0.81208081    -0.57202601     0.65555448     0.68703770
         0.78133540

  4     -0.46033171     0.78923618

    E(LUMO) :     0.65555448 au (symmetry 3)
  - E(HOMO) :    -0.46033171 au (symmetry 1)
  ------------------------------------------
    gap     :     1.11588619 au

 >>> Writing SIRIFC interface file <<<

 >>>> CPU and wall time for SCF :       0.002       0.002


                       .-----------------------------------.
                       | >>> Final results from SIRIUS <<< |
                       `-----------------------------------'


@    Spin multiplicity:           1
@    Spatial symmetry:            1
@    Total charge of molecule:    0

@    Final HF energy:             -78.306179650050                 
@    Nuclear repulsion:            42.274072875677
@    Electronic energy:          -120.580252525727

@    Final gradient norm:           0.000007786422

 
     Date and time (Linux)  : Sun Sep  8 20:38:52 2013
     Host name              : lpqlx131.ups-tlse.fr                    



 >>>> Total CPU  time used in SIRIUS :      0.00 seconds
 >>>> Total wall time used in SIRIUS :      0.00 seconds

 
     Date and time (Linux)  : Sun Sep  8 20:38:52 2013
     Host name              : lpqlx131.ups-tlse.fr                    


                     .---------------------------------------.
                     | End of Wave Function Section (SIRIUS) |
                     `---------------------------------------'

 Trust radius squarely increased due to very good ratio.
 Updated trust radius   0.16539

     Order of analytical energy-derivatives available:   2
     This will be the default.

 Center of mass dipole origin  :    0.000000    0.000000    0.000000

 Center of mass gauge origin   :    0.000000    0.000000    0.000000


                 .------------------------------------------------.
                 | Starting in Static Property Section (ABACUS) - |
                 `------------------------------------------------'


 
     Date and time (Linux)  : Sun Sep  8 20:38:52 2013
     Host name              : lpqlx131.ups-tlse.fr                    

 Largest deviation from tra-rot symmetry is in gradient element  1:  1.09E-11


   ***************************************************************************
   ************************ FINAL RESULTS from ABACUS ************************
   ***************************************************************************


 
     Date and time (Linux)  : Sun Sep  8 20:38:52 2013
     Host name              : lpqlx131.ups-tlse.fr                    


 CPU time statistics for ABACUS
 ------------------------------




 >>>> Total CPU  time used in ABACUS:   0.04 seconds
 >>>> Total wall time used in ABACUS:   0.04 seconds


                   .-------------------------------------------.
                   | End of Static Property Section (ABACUS) - |
                   `-------------------------------------------'



           :::::::::::::::::::::::::::::::::::::::::::::::::::::::::::
           ::::::::::::::: Optimization Control Center :::::::::::::::
           :::::::::::::::::::::::::::::::::::::::::::::::::::::::::::



                               Final geometry (au)
                               -------------------

 C   _1     0.0000000000            0.0000000005            1.4528997444
 C   _2     0.0000000000           -0.0000000005           -1.4528997444
 H   _1     1.6622852891            0.9597208575            2.1793703201
 H   _2    -1.6622852891            0.9597208575            2.1793703201
 H   _3     1.6622852891           -0.9597208575           -2.1793703201
 H   _4    -1.6622852891           -0.9597208575           -2.1793703201
 H   _1     0.0000000000           -1.9194417183            2.1793703225
 H   _2     0.0000000000            1.9194417183           -2.1793703225





                             Optimization information
                             ------------------------

 Iteration number               :       3
 End of optimization            :       T 
 Energy at this geometry is     :     -78.306180
 Energy change from last geom.  :      -0.000000
 Norm of gradient               :       0.000034
 Norm of step                   :       0.000067
 Updated trust radius           :       0.165395
 Total Hessian index            :       0



 Center of mass dipole origin  :    0.000000    0.000000    0.000000

 Center of mass gauge origin   :    0.000000    0.000000    0.000000


                 .------------------------------------------------.
                 | Starting in Static Property Section (ABACUS) - |
                 `------------------------------------------------'


 
     Date and time (Linux)  : Sun Sep  8 20:38:52 2013
     Host name              : lpqlx131.ups-tlse.fr                    


   ***************************************************************************
   ************************ FINAL RESULTS from ABACUS ************************
   ***************************************************************************


 
     Date and time (Linux)  : Sun Sep  8 20:38:52 2013
     Host name              : lpqlx131.ups-tlse.fr                    


                             Molecular geometry (au)
                             -----------------------

 C   _1     0.0000000000            0.0000000005            1.4528997444
 C   _2     0.0000000000           -0.0000000005           -1.4528997444
 H   _1     1.6622852891            0.9597208575            2.1793703201
 H   _2    -1.6622852891            0.9597208575            2.1793703201
 H   _3     1.6622852891           -0.9597208575           -2.1793703201
 H   _4    -1.6622852891           -0.9597208575           -2.1793703201
 H   _1     0.0000000000           -1.9194417183            2.1793703225
 H   _2     0.0000000000            1.9194417183           -2.1793703225





                        Molecular wave function and energy
                        ----------------------------------

     Spin multiplicity  1     State number       1     Total charge       0

     Total energy        -78.3061796501 au (Hartrees)
                         -2130.81954047 eV
                           -205592.8430 kJ/mol


                             Relativistic corrections
                             ------------------------

     Darwin correction:                          0.0776909891 au
     Mass-velocity correction:                  -0.0979622642 au

     Total relativistic correction:             -0.0202712751 au (0.0259%)
     Non-relativistic + relativistic energy:   -78.3264509251 au




                                  Dipole moment
                                  -------------

                 au               Debye          C m (/(10**-30)
              0.000000           0.000000           0.000000


                             Dipole moment components
                             ------------------------

                    All dipole components are zero by symmetry


   Units:   1 a.u. =   2.54175 Debye 
            1 a.u. =   8.47835 (10**-30) C m (SI)




   Interatomic separations (in Angstrom):
   --------------------------------------

            C   _1      C   _2      H   _1      H   _2      H   _3      H   _4
            ------      ------      ------      ------      ------      ------
 C   _1:    0.000000
 C   _2:    1.537683    0.000000
 H   _1:    1.086041    2.173987    0.000000
 H   _2:    1.086041    2.173987    1.759287    0.000000
 H   _3:    2.173987    1.086041    2.520288    3.073588    0.000000
 H   _4:    2.173987    1.086041    3.073588    2.520288    1.759287    0.000000
 H   _1:    1.086041    2.173987    1.759287    1.759287    2.520288    2.520288
 H   _2:    2.173987    1.086041    2.520288    2.520288    1.759287    1.759287

            H   _1      H   _2
            ------      ------
 H   _1:    0.000000
 H   _2:    3.073588    0.000000


  Max    interatomic separation is    3.0736 Angstrom (    5.8082 Bohr)
  between atoms    8 and    7, "H   _2" and "H   _1".

  Min HX interatomic separation is    1.0860 Angstrom (    2.0523 Bohr)

  Min YX interatomic separation is    1.5377 Angstrom (    2.9058 Bohr)


  Bond distances (Angstrom):
  --------------------------

                  atom 1     atom 2       distance
                  ------     ------       --------
  bond distance:  C   _2     C   _1       1.537683
  bond distance:  H   _1     C   _1       1.086041
  bond distance:  H   _2     C   _1       1.086041
  bond distance:  H   _3     C   _2       1.086041
  bond distance:  H   _4     C   _2       1.086041
  bond distance:  H   _1     C   _1       1.086041
  bond distance:  H   _2     C   _2       1.086041


  Bond angles (degrees):
  ----------------------

                  atom 1     atom 2     atom 3         angle
                  ------     ------     ------         -----
  bond angle:     C   _2     C   _1     H   _1       110.731
  bond angle:     C   _2     C   _1     H   _2       110.731
  bond angle:     C   _2     C   _1     H   _1       110.731
  bond angle:     H   _1     C   _1     H   _2       108.183
  bond angle:     H   _1     C   _1     H   _1       108.183
  bond angle:     H   _2     C   _1     H   _1       108.183
  bond angle:     C   _1     C   _2     H   _3       110.731
  bond angle:     C   _1     C   _2     H   _4       110.731
  bond angle:     C   _1     C   _2     H   _2       110.731
  bond angle:     H   _3     C   _2     H   _4       108.183
  bond angle:     H   _3     C   _2     H   _2       108.183
  bond angle:     H   _4     C   _2     H   _2       108.183




 CPU time statistics for ABACUS
 ------------------------------




 >>>> Total CPU  time used in ABACUS:   0.00 seconds
 >>>> Total wall time used in ABACUS:   0.00 seconds


                   .-------------------------------------------.
                   | End of Static Property Section (ABACUS) - |
                   `-------------------------------------------'



          <<<<<<<<<<<<<<<<<<<<<<<<<<<<<<<<<<<<<<<<<<<<<<<<<<<<<<<<<<<<<<
          <<<<<<<<<<<<<<<<<<<<  End of Optimization <<<<<<<<<<<<<<<<<<<<
          <<<<<<<<<<<<<<<<<<<<<<<<<<<<<<<<<<<<<<<<<<<<<<<<<<<<<<<<<<<<<<



                                  Final geometry
                                  --------------

 C   _1     0.0000000000            0.0000000005            1.4528997444
 C   _2     0.0000000000           -0.0000000005           -1.4528997444
 H   _1     1.6622852891            0.9597208575            2.1793703201
 H   _2    -1.6622852891            0.9597208575            2.1793703201
 H   _3     1.6622852891           -0.9597208575           -2.1793703201
 H   _4    -1.6622852891           -0.9597208575           -2.1793703201
 H   _1     0.0000000000           -1.9194417183            2.1793703225
 H   _2     0.0000000000            1.9194417183           -2.1793703225



@ Iter      Energy        Change       GradNorm  Index   StepLen    TrustRad #Rej
@ -------------------------------------------------------------------------------
@   0      -78.305576     0.000000     0.015573    0    0.165395*   0.500000   0 
@   1      -78.306113    -0.000537     0.003830    0    0.045191*   0.165395   0 
@   2      -78.306179    -0.000067     0.000372    0    0.002361*   0.165395   0 
@   3      -78.306180    -0.000000     0.000034    0    0.000067*   0.165395   0 

@  *) Newton step taken.


   Interatomic separations (in Angstrom):
   --------------------------------------

            C   _1      C   _2      H   _1      H   _2      H   _3      H   _4
            ------      ------      ------      ------      ------      ------
 C   _1:    0.000000
 C   _2:    1.537683    0.000000
 H   _1:    1.086041    2.173987    0.000000
 H   _2:    1.086041    2.173987    1.759287    0.000000
 H   _3:    2.173987    1.086041    2.520288    3.073588    0.000000
 H   _4:    2.173987    1.086041    3.073588    2.520288    1.759287    0.000000
 H   _1:    1.086041    2.173987    1.759287    1.759287    2.520288    2.520288
 H   _2:    2.173987    1.086041    2.520288    2.520288    1.759287    1.759287

            H   _1      H   _2
            ------      ------
 H   _1:    0.000000
 H   _2:    3.073588    0.000000


  Max    interatomic separation is    3.0736 Angstrom (    5.8082 Bohr)
  between atoms    8 and    7, "H   _2" and "H   _1".

  Min HX interatomic separation is    1.0860 Angstrom (    2.0523 Bohr)

  Min YX interatomic separation is    1.5377 Angstrom (    2.9058 Bohr)


  Bond distances (Angstrom):
  --------------------------

                  atom 1     atom 2       distance
                  ------     ------       --------
  bond distance:  C   _2     C   _1       1.537683
  bond distance:  H   _1     C   _1       1.086041
  bond distance:  H   _2     C   _1       1.086041
  bond distance:  H   _3     C   _2       1.086041
  bond distance:  H   _4     C   _2       1.086041
  bond distance:  H   _1     C   _1       1.086041
  bond distance:  H   _2     C   _2       1.086041


  Bond angles (degrees):
  ----------------------

                  atom 1     atom 2     atom 3         angle
                  ------     ------     ------         -----
  bond angle:     C   _2     C   _1     H   _1       110.731
  bond angle:     C   _2     C   _1     H   _2       110.731
  bond angle:     C   _2     C   _1     H   _1       110.731
  bond angle:     H   _1     C   _1     H   _2       108.183
  bond angle:     H   _1     C   _1     H   _1       108.183
  bond angle:     H   _2     C   _1     H   _1       108.183
  bond angle:     C   _1     C   _2     H   _3       110.731
  bond angle:     C   _1     C   _2     H   _4       110.731
  bond angle:     C   _1     C   _2     H   _2       110.731
  bond angle:     H   _3     C   _2     H   _4       108.183
  bond angle:     H   _3     C   _2     H   _2       108.183
  bond angle:     H   _4     C   _2     H   _2       108.183



@ Geometry converged in  4 iterations!

@ Energy at final geometry is       :     -78.306180 a.u.
@ Energy change during optimization :      -0.000604 a.u.
@                                             -1.586 kJ/mol

 >>>> Total CPU  time used in DALTON:   0.31 seconds
 >>>> Total wall time used in DALTON:   0.31 seconds

 
     Date and time (Linux)  : Sun Sep  8 20:38:52 2013
     Host name              : lpqlx131.ups-tlse.fr                    
