

     ************************************************************************
     *************** Dalton - An Electronic Structure Program ***************
     ************************************************************************

    This is output from DALTON release Dalton2019.alpha (2019)
         ( Web site: http://daltonprogram.org )

   ----------------------------------------------------------------------------

    NOTE:
     
    Dalton is an experimental code for the evaluation of molecular
    properties using (MC)SCF, DFT, CI, and CC wave functions.
    The authors accept no responsibility for the performance of
    the code or for the correctness of the results.
     
    The code (in whole or part) is provided under a licence and
    is not to be reproduced for further distribution without
    the written permission of the authors or their representatives.
     
    See the home page "http://daltonprogram.org" for further information.
     
    If results obtained with this code are published,
    the appropriate citations would be both of:
     
       K. Aidas, C. Angeli, K. L. Bak, V. Bakken, R. Bast,
       L. Boman, O. Christiansen, R. Cimiraglia, S. Coriani,
       P. Dahle, E. K. Dalskov, U. Ekstroem,
       T. Enevoldsen, J. J. Eriksen, P. Ettenhuber, B. Fernandez,
       L. Ferrighi, H. Fliegl, L. Frediani, K. Hald, A. Halkier,
       C. Haettig, H. Heiberg, T. Helgaker, A. C. Hennum,
       H. Hettema, E. Hjertenaes, S. Hoest, I.-M. Hoeyvik,
       M. F. Iozzi, B. Jansik, H. J. Aa. Jensen, D. Jonsson,
       P. Joergensen, J. Kauczor, S. Kirpekar,
       T. Kjaergaard, W. Klopper, S. Knecht, R. Kobayashi, H. Koch,
       J. Kongsted, A. Krapp, K. Kristensen, A. Ligabue,
       O. B. Lutnaes, J. I. Melo, K. V. Mikkelsen, R. H. Myhre,
       C. Neiss, C. B. Nielsen, P. Norman, J. Olsen,
       J. M. H. Olsen, A. Osted, M. J. Packer, F. Pawlowski,
       T. B. Pedersen, P. F. Provasi, S. Reine, Z. Rinkevicius,
       T. A. Ruden, K. Ruud, V. Rybkin, P. Salek, C. C. M. Samson,
       A. Sanchez de Meras, T. Saue, S. P. A. Sauer,
       B. Schimmelpfennig, K. Sneskov, A. H. Steindal,
       K. O. Sylvester-Hvid, P. R. Taylor, A. M. Teale,
       E. I. Tellgren, D. P. Tew, A. J. Thorvaldsen, L. Thoegersen,
       O. Vahtras, M. A. Watson, D. J. D. Wilson, M. Ziolkowski
       and H. Agren,
       "The Dalton quantum chemistry program system",
       WIREs Comput. Mol. Sci. 2014, 4:269–284 (doi: 10.1002/wcms.1172)
     
    and
     
       Dalton, a molecular electronic structure program,
       Release Dalton2019.alpha (2019), see http://daltonprogram.org
   ----------------------------------------------------------------------------

    Authors in alphabetical order (major contribution(s) in parenthesis):

  Kestutis Aidas,           Vilnius University,           Lithuania   (QM/MM)
  Celestino Angeli,         University of Ferrara,        Italy       (NEVPT2)
  Keld L. Bak,              UNI-C,                        Denmark     (AOSOPPA, non-adiabatic coupling, magnetic properties)
  Vebjoern Bakken,          University of Oslo,           Norway      (DALTON; geometry optimizer, symmetry detection)
  Radovan Bast,             UiT The Arctic U. of Norway,  Norway      (DALTON installation and execution frameworks)
  Pablo Baudin,             University of Valencia,       Spain       (Cholesky excitation energies)
  Linus Boman,              NTNU,                         Norway      (Cholesky decomposition and subsystems)
  Ove Christiansen,         Aarhus University,            Denmark     (CC module)
  Renzo Cimiraglia,         University of Ferrara,        Italy       (NEVPT2)
  Sonia Coriani,            Technical Univ. of Denmark,   Denmark     (CC module, MCD in RESPONS)
  Janusz Cukras,            University of Trieste,        Italy       (MChD in RESPONS)
  Paal Dahle,               University of Oslo,           Norway      (Parallelization)
  Erik K. Dalskov,          UNI-C,                        Denmark     (SOPPA)
  Thomas Enevoldsen,        Univ. of Southern Denmark,    Denmark     (SOPPA)
  Janus J. Eriksen,         Aarhus University,            Denmark     (Polarizable embedding model, TDA)
  Rasmus Faber,             University of Copenhagen,     Denmark     (Vib.avg. NMR with SOPPA, parallel AO-SOPPA)
  Tobias Fahleson,          KTH Stockholm,                Sweden      (Damped cubic response)
  Berta Fernandez,          U. of Santiago de Compostela, Spain       (doublet spin, ESR in RESPONS)
  Lara Ferrighi,            Aarhus University,            Denmark     (PCM Cubic response)
  Heike Fliegl,             University of Oslo,           Norway      (CCSD(R12))
  Luca Frediani,            UiT The Arctic U. of Norway,  Norway      (PCM)
  Bin Gao,                  UiT The Arctic U. of Norway,  Norway      (Gen1Int library)
  Christof Haettig,         Ruhr-University Bochum,       Germany     (CC module)
  Kasper Hald,              Aarhus University,            Denmark     (CC module)
  Asger Halkier,            Aarhus University,            Denmark     (CC module)
  Frederik Beyer Hansen,    University of Copenhagen,     Denmark     (Parallel AO-SOPPA)
  Erik D. Hedegaard,        Univ. of Southern Denmark,    Denmark     (Polarizable embedding model, QM/MM)
  Hanne Heiberg,            University of Oslo,           Norway      (geometry analysis, selected one-electron integrals)
  Trygve Helgaker,          University of Oslo,           Norway      (DALTON; ABACUS, ERI, DFT modules, London, and much more)
  Alf Christian Hennum,     University of Oslo,           Norway      (Parity violation)
  Hinne Hettema,            University of Auckland,       New Zealand (quadratic response in RESPONS; SIRIUS supersymmetry)
  Eirik Hjertenaes,         NTNU,                         Norway      (Cholesky decomposition)
  Pi A. B. Haase,           University of Copenhagen,     Denmark     (Triplet AO-SOPPA)
  Maria Francesca Iozzi,    University of Oslo,           Norway      (RPA)
  Christoph Jacob           TU Braunschweig               Germany     (Frozen density embedding model)
  Brano Jansik              Technical Univ. of Ostrava    Czech Rep.  (DFT cubic response)
  Hans Joergen Aa. Jensen,  Univ. of Southern Denmark,    Denmark     (DALTON; SIRIUS, RESPONS, ABACUS modules, London, and much more)
  Dan Jonsson,              UiT The Arctic U. of Norway,  Norway      (cubic response in RESPONS module)
  Poul Joergensen,          Aarhus University,            Denmark     (RESPONS, ABACUS, and CC modules)
  Maciej Kaminski,          University of Warsaw,         Poland      (CPPh in RESPONS)
  Joanna Kauczor,           Linkoeping University,        Sweden      (Complex polarization propagator (CPP) module)
  Sheela Kirpekar,          Univ. of Southern Denmark,    Denmark     (Mass-velocity & Darwin integrals)
  Wim Klopper,              KIT Karlsruhe,                Germany     (R12 code in CC, SIRIUS, and ABACUS modules)
  Stefan Knecht,            ETH Zurich,                   Switzerland (Parallel CI and MCSCF)
  Rika Kobayashi,           Australian National Univ.,    Australia   (DIIS in CC, London in MCSCF)
  Henrik Koch,              NTNU,                         Norway      (CC module, Cholesky decomposition)
  Jacob Kongsted,           Univ. of Southern Denmark,    Denmark     (Polarizable embedding model, QM/MM)
  Andrea Ligabue,           University of Modena,         Italy       (CTOCD, AOSOPPA)
  Nanna H. List             Univ. of Southern Denmark,    Denmark     (Polarizable embedding model)
  Ola B. Lutnaes,           University of Oslo,           Norway      (DFT Hessian)
  Juan I. Melo,             University of Buenos Aires,   Argentina   (LRESC, Relativistic Effects on NMR Shieldings)
  Kurt V. Mikkelsen,        University of Copenhagen,     Denmark     (MC-SCRF and QM/MM)
  Rolf H. Myhre,            NTNU,                         Norway      (Subsystems and CC3)
  Christian Neiss,          Univ. Erlangen-Nuernberg,     Germany     (CCSD(R12))
  Christian B. Nielsen,     University of Copenhagen,     Denmark     (QM/MM)
  Patrick Norman,           KTH Stockholm,                Sweden      (Cubic response and complex frequency response in RESPONS)
  Jeppe Olsen,              Aarhus University,            Denmark     (SIRIUS CI/density modules)
  Jogvan Magnus H. Olsen,   Univ. of Southern Denmark,    Denmark     (Polarizable embedding model, QM/MM)
  Anders Osted,             Copenhagen University,        Denmark     (QM/MM)
  Martin J. Packer,         University of Sheffield,      UK          (SOPPA)
  Filip Pawlowski,          Kazimierz Wielki University,  Poland      (CC3)
  Morten N. Pedersen,       Univ. of Southern Denmark,    Denmark     (Polarizable embedding model)
  Thomas B. Pedersen,       University of Oslo,           Norway      (Cholesky decomposition)
  Patricio F. Provasi,      University of Northeastern,   Argentina   (Analysis of coupling constants in localized orbitals)
  Zilvinas Rinkevicius,     KTH Stockholm,                Sweden      (open-shell DFT, ESR)
  Elias Rudberg,            KTH Stockholm,                Sweden      (DFT grid and basis info)
  Torgeir A. Ruden,         University of Oslo,           Norway      (Numerical derivatives in ABACUS)
  Kenneth Ruud,             UiT The Arctic U. of Norway,  Norway      (DALTON; ABACUS magnetic properties and much more)
  Pawel Salek,              KTH Stockholm,                Sweden      (DALTON; DFT code)
  Claire C. M. Samson       University of Karlsruhe       Germany     (Boys localization, r12 integrals in ERI)
  Alfredo Sanchez de Meras, University of Valencia,       Spain       (CC module, Cholesky decomposition)
  Trond Saue,               Paul Sabatier University,     France      (direct Fock matrix construction)
  Stephan P. A. Sauer,      University of Copenhagen,     Denmark     (SOPPA(CCSD), SOPPA prop., AOSOPPA, vibrational g-factors)
  Andre S. P. Gomes,        CNRS/Universite de Lille,     France      (Frozen density embedding model)
  Bernd Schimmelpfennig,    Forschungszentrum Karlsruhe,  Germany     (AMFI module)
  Kristian Sneskov,         Aarhus University,            Denmark     (Polarizable embedding model, QM/MM)
  Arnfinn H. Steindal,      UiT The Arctic U. of Norway,  Norway      (parallel QM/MM, Polarizable embedding model)
  Casper Steinmann,         Univ. of Southern Denmark,    Denmark     (QFIT, Polarizable embedding model)
  K. O. Sylvester-Hvid,     University of Copenhagen,     Denmark     (MC-SCRF)
  Peter R. Taylor,          VLSCI/Univ. of Melbourne,     Australia   (Symmetry handling ABACUS, integral transformation)
  Andrew M. Teale,          University of Nottingham,     England     (DFT-AC, DFT-D)
  David P. Tew,             University of Bristol,        England     (CCSD(R12))
  Olav Vahtras,             KTH Stockholm,                Sweden      (triplet response, spin-orbit, ESR, TDDFT, open-shell DFT)
  Lucas Visscher,           Vrije Universiteit Amsterdam, Netherlands (Frozen density embedding model)
  David J. Wilson,          La Trobe University,          Australia   (DFT Hessian and DFT magnetizabilities)
  Hans Agren,               KTH Stockholm,                Sweden      (SIRIUS module, RESPONS, MC-SCRF solvation model)
 --------------------------------------------------------------------------------

     Date and time (Linux)  : Wed Apr 10 18:04:47 2019
     Host name              : adm-110765.pc.sdu.dk                    

 * Work memory size             :    64000000 =  488.28 megabytes.

 * Directories for basis set searches:
   1) /home/hjj/progs/gitDalton_hjaaj-srdft/build_srdft_intelmpi/test/rsp_srpbe_polar
   2) /home/hjj/progs/gitDalton_hjaaj-srdft/build_srdft_intelmpi/basis


Compilation information
-----------------------

 Who compiled             | hjj
 Host                     | adm-110765.pc.sdu.dk
 System                   | Linux-4.15.0-39-generic
 CMake generator          | Unix Makefiles
 Processor                | x86_64
 64-bit integers          | OFF
 MPI                      | ON
 Fortran compiler         | /opt/intel/compilers_and_libraries_2019.1.144/linu
                          | x/mpi/intel64/bin/mpif90
 Fortran compiler version | GNU Fortran (Ubuntu 8.2.0-1ubuntu2~18.04) 8.2.0
 C compiler               | /opt/intel/compilers_and_libraries_2019.1.144/linu
                          | x/mpi/intel64/bin/mpicc
 C compiler version       | gcc (Ubuntu 8.2.0-1ubuntu2~18.04) 8.2.0
 C++ compiler             | /opt/intel/compilers_and_libraries_2019.1.144/linu
                          | x/mpi/intel64/bin/mpicxx
 C++ compiler version     | unknown
 BLAS                     | /opt/intel/compilers_and_libraries_2019.1.144/linu
                          | x/mkl/lib/intel64/libmkl_gf_lp64.so;/opt/intel/com
                          | pilers_and_libraries_2019.1.144/linux/mkl/lib/inte
                          | l64/libmkl_sequential.so;/opt/intel/compilers_and_
                          | libraries_2019.1.144/linux/mkl/lib/intel64/libmkl_
                          | core.so;/usr/lib/x86_64-linux-gnu/libpthread.so;/u
                          | sr/lib/x86_64-linux-gnu/libm.so
 LAPACK                   | /opt/intel/compilers_and_libraries_2019.1.144/linu
                          | x/mkl/lib/intel64/libmkl_lapack95_lp64.a;/opt/inte
                          | l/compilers_and_libraries_2019.1.144/linux/mkl/lib
                          | /intel64/libmkl_gf_lp64.so
 Static linking           | OFF
 Last Git revision        | f030908ba3459d2b6e0e48bdd58ee31b85f41dc6
 Git branch               | hjaaj-srdft-2
 Configuration time       | 2019-04-10 18:04:25.918718

 * Sequential calculation.


   Content of the .dal input file
 ----------------------------------

**DALTON INPUT
.RUN RESPONSE
**INTEGRALS
*TWOINT
.DOSRINTEGRALS
.ERF
 0.4
**WAVE FUNCTIONS
.HFSRDFT
.MP2
.MCSRDFT
.SRFUN
 SRXPBEGWS SRCPBEGWS
*SCF INPUT
.DOUBLY OCCUPIED
 2 0 0 0
*CONFIGURATION INPUT
.INACTIVE
 1 0 0 0
.ELECTRONS
 2
.CAS SPACE
 2 0 0 0
.SYMMET
 1
.SPIN MULT
 1
**RESPONS
*LINEAR
.DIPLEN
.FREQUE
 2
0.00 0.03
**END OF DALTON INPUT


   Content of the .mol file
 ----------------------------

BASIS
4-31G
Calculation of Polarizability

    2    2  X  Y    1 1.00D-12
        1.0   1
H           .0000000000             .0000000000            2.0969699107
        3.0   1
Li          .0000000000             .0000000000            -.9969699107


       *******************************************************************
       *********** Output from DALTON general input processing ***********
       *******************************************************************

 --------------------------------------------------------------------------------
   Overall default print level:    0
   Print level for DALTON.STAT:    1

    HERMIT 1- and 2-electron integral sections will be executed
    "Old" integral transformation used (limited to max 255 basis functions)
    Wave function sections will be executed (SIRIUS module)
    Dynamic molecular response properties section will be executed (RESPONSE module)
 --------------------------------------------------------------------------------


   ****************************************************************************
   *************** Output of molecule and basis set information ***************
   ****************************************************************************


    The two title cards from your ".mol" input:
    ------------------------------------------------------------------------
 1: Calculation of Polarizability                                           
 2:                                                                         
    ------------------------------------------------------------------------

  Atomic type no.    1
  --------------------
  Nuclear charge:   1.00000
  Number of symmetry independent centers:    1
  Number of basis sets to read;    2
  Basis set file used for this atomic type with Z =   1 :
     "/home/hjj/progs/gitDalton_hjaaj-srdft/build_srdft_intelmpi/basis/4-31G"

  Atomic type no.    2
  --------------------
  Nuclear charge:   3.00000
  Number of symmetry independent centers:    1
  Number of basis sets to read;    2
  Basis set file used for this atomic type with Z =   3 :
     "/home/hjj/progs/gitDalton_hjaaj-srdft/build_srdft_intelmpi/basis/4-31G"


                         SYMGRP: Point group information
                         -------------------------------

@    Point group: C2v

@  * The irrep name for each symmetry:    1: A1     2: B1     3: B2     4: A2 

   * The point group was generated by:

      Reflection in the yz-plane
      Reflection in the xz-plane

   * Group multiplication table

        |  E   C2z  Oxz  Oyz
   -----+--------------------
     E  |  E   C2z  Oxz  Oyz
    C2z | C2z   E   Oyz  Oxz
    Oxz | Oxz  Oyz   E   C2z
    Oyz | Oyz  Oxz  C2z   E 

   * Character table

        |  E   C2z  Oxz  Oyz
   -----+--------------------
    A1  |   1    1    1    1
    B1  |   1   -1    1   -1
    B2  |   1   -1   -1    1
    A2  |   1    1   -1   -1

   * Direct product table

        | A1   B1   B2   A2 
   -----+--------------------
    A1  | A1   B1   B2   A2 
    B1  | B1   A1   A2   B2 
    B2  | B2   A2   A1   B1 
    A2  | A2   B2   B1   A1 


                                 Isotopic Masses
                                 ---------------

                           H           1.007825
                           Li          7.016005

                       Total mass:     8.023830 amu
                       Natural abundance:  92.486 %

 Center-of-mass coordinates (a.u.):    0.000000    0.000000   -0.608359
 Center-of-mass coordinates (Angs):    0.000000    0.000000   -0.321930


  Atoms and basis sets
  --------------------

  Number of atom types :    2
  Total number of atoms:    2

  Basis set used is "4-31G" from the basis set library.

  label    atoms   charge   prim   cont     basis
  ----------------------------------------------------------------------
  H           1    1.0000     4     2      [4s|2s]                                            
  Li          1    3.0000    17     9      [8s3p|3s2p]                                        
  ----------------------------------------------------------------------
  total:      2    4.0000    21    11
  ----------------------------------------------------------------------

  Threshold for neglecting AO integrals:  1.10D-11


  Cartesian Coordinates (a.u.)
  ----------------------------

  Total number of coordinates:    6
  H       :     1  x   0.0000000000    2  y   0.0000000000    3  z   2.0969699107
  Li      :     4  x   0.0000000000    5  y   0.0000000000    6  z  -0.9969699107


  Symmetry Coordinates
  --------------------

  Number of coordinates in each symmetry:     2    2    2    0

  Symmetry  A1  ( 1)

    1   H     z    3
    2   Li    z    6

  Symmetry  B1  ( 2)

    3   H     x    1
    4   Li    x    4

  Symmetry  B2  ( 3)

    5   H     y    2
    6   Li    y    5


   Interatomic separations (in Angstrom):
   --------------------------------------

            H           Li    
            ------      ------
 H     :    0.000000
 Li    :    1.637242    0.000000


  Max    interatomic separation is    1.6372 Angstrom (    3.0939 Bohr)
  between atoms    2 and    1, "Li    " and "H     ".

  Min HX interatomic separation is    1.6372 Angstrom (    3.0939 Bohr)


  Bond distances (Angstrom):
  --------------------------

                  atom 1     atom 2       distance
                  ------     ------       --------
  bond distance:  Li         H            1.637242




 Principal moments of inertia (u*A**2) and principal axes
 --------------------------------------------------------

   IA       0.000000          0.000000    0.000000    1.000000
   IB       2.362214          0.000000    1.000000    0.000000
   IC       2.362214          1.000000    0.000000    0.000000


 Rotational constants
 --------------------

@    The molecule is linear.

               B =       213942.91 MHz     (    7.136367 cm-1)


@  Nuclear repulsion energy :    0.969637476220 Hartree


  Symmetry Orbitals
  -----------------

  Number of orbitals in each symmetry:           7    2    2    0


  Symmetry  A1 ( 1)

    1     H        1s         1
    2     H        1s         2
    3     Li       1s         3
    4     Li       1s         4
    5     Li       1s         5
    6     Li       2pz        8
    7     Li       2pz       11


  Symmetry  B1 ( 2)

    8     Li       2px        6
    9     Li       2px        9


  Symmetry  B2 ( 3)

   10     Li       2py        7
   11     Li       2py       10


  No orbitals in symmetry  A2 ( 4)

  Symmetries of electric field:  B1 (2)  B2 (3)  A1 (1)

  Symmetries of magnetic field:  B2 (3)  B1 (2)  A2 (4)


                     .---------------------------------------.
                     | Starting in Integral Section (HERMIT) |
                     `---------------------------------------'



 ***************************************************************************************
 ****************** Output from **INTEGRALS input processing (HERMIT) ******************
 ***************************************************************************************



    *************************************************************************
    ****************** Output from HERMIT input processing ******************
    *************************************************************************


 Default print level:        1

 Calculation of one- and two-electron Hamiltonian integrals.

 Center of mass  (bohr):      0.000000000000      0.000000000000     -0.608358748636
 Operator center (bohr):      0.000000000000      0.000000000000      0.000000000000
 Gauge origin    (bohr):      0.000000000000      0.000000000000      0.000000000000
 Dipole origin   (bohr):      0.000000000000      0.000000000000      0.000000000000


  Set-up from HR2INP:
  -------------------

 Print level in TWOINT:    1

 DFT-hybrid : Using a Erf type two-elec. operator
              with the coupling parameter :    0.40000


     ************************************************************************
     ************************** Output from HERINT **************************
     ************************************************************************



                      Nuclear contribution to dipole moments
                      --------------------------------------

                 au               Debye          C m (/(10**-30)

      z     -0.89393982        -2.27216824        -7.57913743



 Threshold for neglecting two-electron integrals:  1.10D-11
 HERMIT - Number of two-electron integrals written:         677 ( 30.6% )
 HERMIT - Megabytes written:                              0.014


 Threshold for neglecting two-electron integrals:  1.10D-11
 HERMIT - Number of two-electron integrals written:         677 ( 30.6% )
 HERMIT - Megabytes written:                              0.014

  Total CPU  time used in HERMIT:   0.00 seconds
  Total wall time used in HERMIT:   0.00 seconds


                        .----------------------------------.
                        | End of Integral Section (HERMIT) |
                        `----------------------------------'



                   .--------------------------------------------.
                   | Starting in Wave Function Section (SIRIUS) |
                   `--------------------------------------------'


 *** Output from Huckel module :

     Using EWMO model:          T
     Using EHT  model:          F
     Number of Huckel orbitals each symmetry:    4    1    1    0

 EWMO - Energy Weighted Maximum Overlap - is a Huckel type method,
        which normally is better than Extended Huckel Theory.
 Reference: Linderberg and Ohrn, Propagators in Quantum Chemistry (Wiley, 1973)

 Huckel EWMO eigenvalues for symmetry :  1
           -2.482706      -0.579861      -0.170222      -0.071212

 Huckel EWMO eigenvalues for symmetry :  2
           -0.130000

 Huckel EWMO eigenvalues for symmetry :  3
           -0.130000

 SETCI, core memory needed for CI:
 LCINDX =          48
 LACIMX =         126
 LBCIMX =           0

 Number of determinants:             4

 Number of configurations:           3

 Time used in SETCI :      0.02s

 **********************************************************************
 *SIRIUS* a direct, restricted step, second order MCSCF program       *
 **********************************************************************

 
     Date and time (Linux)  : Wed Apr 10 18:04:47 2019
     Host name              : adm-110765.pc.sdu.dk                    

 Title lines from ".mol" input file:
     Calculation of Polarizability                                           
                                                                             

 Print level on unit LUPRI =   2 is   0
 Print level on unit LUW4  =   2 is   5

@    MC-SCF optimization.

@    Multi-configurational response calculation.
@              Type: complete active space calculation (CAS).

@    This is a combination run starting with
@              a restricted, closed shell HF-srDFT hybrid calculation
@              an MP2 calculation


 Initial molecular orbitals are obtained according to
 ".MOSTART EWMO  " input option

     Wave function specification
     ============================
@    Wave function type        --- MC-SCF ---
@    Number of closed shell electrons           2
@    Number of electrons in active shells       2
@    Total charge of the molecule               0

@    Spin multiplicity and 2 M_S                1         0
@    Total number of symmetries                 4 (point group: C2v)
@    Reference state symmetry                   1 (irrep name : A1 )

@    This is a lrWFT-srDFT calculation using the 
@      SRXPBEGWS  short range exchange functional
@      SRCPBEGWS  short range correlation functional

@    sr-DFT and exact sr-HF exchange weights:    1.000000    0.000000

     Orbital specifications
     ======================
@    Abelian symmetry species          All |    1    2    3    4
@                                          |  A1   B1   B2   A2 
                                       --- |  ---  ---  ---  ---
@    Inactive orbitals                   1 |    1    0    0    0
@    Active orbitals                     2 |    2    0    0    0
@    Secondary orbitals                  8 |    4    2    2    0
@    Total number of orbitals           11 |    7    2    2    0
@    Number of basis functions          11 |    7    2    2    0

      -- Initial occupation of symmetries is determined from user input.                      
      -- Initial occupation of symmetries is :
@    Occupied SCF orbitals               2 |    2    0    0    0

     Optimization information
     ========================
@    Number of configurations                 3
@    Number of orbital rotations             14
     ------------------------------------------
@    Total number of variables               17

     Maximum number of macro iterations      25
     Maximum number of micro iterations     600
     Threshold for MCSCF gradient      1.00D-05
     Number of initial trial vectors          1
     Number of initial CI iterations          3
     Number of simultaneous trial vectors     1

@    This calculation converges to the lowest state for the specified symmetry and spin species.

     Maximum number of NEO/NR iterations  24


 ***********************************************
 ***** DIIS acceleration of SCF iterations *****
 ***********************************************

 C1-DIIS algorithm; max error vectors =    8

 Iter      Total energy        Error norm    Delta(E)  DIIS dim.
 -----------------------------------------------------------------------------
** Atom H   
* Grid spacing
 Value chosen:  0.142
 AH =    37.462274000000001     
 RADERR =    1.0000000000000000E-013
* Inner grid point: 1.42864E-05
* Outer point:
 Value chosen:     9.888
 Constant c: 9.36670E-05
 Number of points:    81
H     1   18774      81     434
** Atom Li  
* Grid spacing
 Value chosen:  0.131
 AH =    550.78887999999995     
 RADERR =    1.0000000000000000E-013
* Inner grid point: 3.72587E-06
* Outer point:
 Value chosen:    20.973
 Constant c: 2.65759E-05
 Number of points:   103
Li    1   19922     103     434

   Number of grid points in quadrature:     38696 (100.0%)


   Ex-sr + Ec-sr                         -1.5144615931
 + EJsr = sr Coulomb energy               3.0729824363
 = Total E(srDFT)                         1.5585208431


 Corrections needed for correct CI energy evaluation:
 - 0.5 Tr(Vxc-sr Dcore)                   1.0669240623
 -     Tr(Vxc-sr Dval)                    0.0000000000
 - 0.5 Tr( (Jsr+HFXFAC*Ksr) Dval )        0.0000000000
@  1    -7.97913106349        6.53138D-01   -7.98D+00    1
      Virial theorem: -V/T =      1.966731
@    MULPOP   H      -0.60; Li      0.60; 
   1  Level shift: doubly occupied orbital energies shifted by -2.00D-01
 -----------------------------------------------------------------------------

   Ex-sr + Ec-sr                         -1.4466972098
 + EJsr = sr Coulomb energy               2.9587792101
 = Total E(srDFT)                         1.5120820003


 Corrections needed for correct CI energy evaluation:
 - 0.5 Tr(Vxc-sr Dcore)                   1.0185951474
 -     Tr(Vxc-sr Dval)                    0.0000000000
 - 0.5 Tr( (Jsr+HFXFAC*Ksr) Dval )        0.0000000000
@  2    -8.02631296534        1.03509D-01   -4.72D-02    2
      Virial theorem: -V/T =      2.003743
@    MULPOP   H      -0.35; Li      0.35; 
   2  Level shift: doubly occupied orbital energies shifted by -5.00D-02
 -----------------------------------------------------------------------------

   Ex-sr + Ec-sr                         -1.4389975742
 + EJsr = sr Coulomb energy               2.9520149690
 = Total E(srDFT)                         1.5130173948


 Corrections needed for correct CI energy evaluation:
 - 0.5 Tr(Vxc-sr Dcore)                   1.0130235546
 -     Tr(Vxc-sr Dval)                    0.0000000000
 - 0.5 Tr( (Jsr+HFXFAC*Ksr) Dval )        0.0000000000
@  3    -8.02853184207        2.34417D-02   -2.22D-03    3
      Virial theorem: -V/T =      2.006852
@    MULPOP   H      -0.26; Li      0.26; 
   3  Level shift: doubly occupied orbital energies shifted by -1.25D-02
 -----------------------------------------------------------------------------

   Ex-sr + Ec-sr                         -1.4385159140
 + EJsr = sr Coulomb energy               2.9539201160
 = Total E(srDFT)                         1.5154042020


 Corrections needed for correct CI energy evaluation:
 - 0.5 Tr(Vxc-sr Dcore)                   1.0126534304
 -     Tr(Vxc-sr Dval)                    0.0000000000
 - 0.5 Tr( (Jsr+HFXFAC*Ksr) Dval )        0.0000000000
@  4    -8.02870171119        3.05942D-03   -1.70D-04    4
      Virial theorem: -V/T =      2.006641
@    MULPOP   H      -0.23; Li      0.23; 
 -----------------------------------------------------------------------------

   Ex-sr + Ec-sr                         -1.4386945636
 + EJsr = sr Coulomb energy               2.9544824800
 = Total E(srDFT)                         1.5157879164


 Corrections needed for correct CI energy evaluation:
 - 0.5 Tr(Vxc-sr Dcore)                   1.0127746378
 -     Tr(Vxc-sr Dval)                    0.0000000000
 - 0.5 Tr( (Jsr+HFXFAC*Ksr) Dval )        0.0000000000
@  5    -8.02870715801        8.10415D-04   -5.45D-06    5
      Virial theorem: -V/T =      2.006474
@    MULPOP   H      -0.23; Li      0.23; 
 -----------------------------------------------------------------------------

   Ex-sr + Ec-sr                         -1.4386406662
 + EJsr = sr Coulomb energy               2.9544019346
 = Total E(srDFT)                         1.5157612685


 Corrections needed for correct CI energy evaluation:
 - 0.5 Tr(Vxc-sr Dcore)                   1.0127320509
 -     Tr(Vxc-sr Dval)                    0.0000000000
 - 0.5 Tr( (Jsr+HFXFAC*Ksr) Dval )        0.0000000000
@  6    -8.02870758712        1.94019D-04   -4.29D-07    6
      Virial theorem: -V/T =      2.006472
@    MULPOP   H      -0.23; Li      0.23; 
 -----------------------------------------------------------------------------

   Ex-sr + Ec-sr                         -1.4386453280
 + EJsr = sr Coulomb energy               2.9544042452
 = Total E(srDFT)                         1.5157589172


 Corrections needed for correct CI energy evaluation:
 - 0.5 Tr(Vxc-sr Dcore)                   1.0127345498
 -     Tr(Vxc-sr Dval)                    0.0000000000
 - 0.5 Tr( (Jsr+HFXFAC*Ksr) Dval )        0.0000000000
@  7    -8.02870759812        1.04345D-05   -1.10D-08    7

@ *** DIIS converged in   7 iterations !
@     Converged SCF energy, gradient:     -8.028707598117    1.04D-05
    - total time used in SIRFCK :              0.00 seconds

 --- Writing SIRIFC interface file

 CPU and wall time for SCF :       1.419       1.420


 ----- Output from SIRIUS MP2 module -----

 Reference: H.J.Aa.Jensen, P.Jørgensen, H.Ågren, and J.Olsen,
            J. Chem. Phys. 88, 3834 (1988); 89, 5354 (1988)

 Checking that the closed shell orbitals are canonical Hartree-Fock orbitals

    Number of electrons  :    4
    Closed shell orbitals:    2    0    0    0

 Generating Fock matrix

   Ex-sr + Ec-sr                         -1.4386453280
 + EJsr = sr Coulomb energy               2.9544042452
 = Total E(srDFT)                         1.5157589172


 Corrections needed for correct CI energy evaluation:
 - 0.5 Tr(Vxc-sr Dcore)                   1.0127345498
 -     Tr(Vxc-sr Dval)                    0.0000000000
 - 0.5 Tr( (Jsr+HFXFAC*Ksr) Dval )        0.0000000000

 Hartree-Fock electronic energy:          -8.998345074338
 Hartree-Fock total      energy:          -8.028707598117

 Hartree-Fock orbital energies, symmetry 1 ( A1 ),    2 occupied SCF orbitals

        -2.08477104    -0.29356253     0.00907383     0.15402727     0.24181325
         0.35415967     1.18701168

 Hartree-Fock orbital energies, symmetry 2 ( B1 ),    0 occupied SCF orbitals

         0.06126486     0.22512254

 Hartree-Fock orbital energies, symmetry 3 ( B2 ),    0 occupied SCF orbitals

         0.06126486     0.22512254

    E(LUMO) :     0.00907383   (in symmetry 1)
  - E(HOMO) :    -0.29356253   (in symmetry 1)
  --------------------------
    gap     :     0.30263637

 2-el. integral transformation level 5: Total CPU and WALL times (sec)       0.000       0.001

 MP2 move   0.001877 electrons to unoccupied HF orbitals


@   Short-range Hartree-Fock total energy        :            -8.0287075981
@   + MP2 contribution from long-range integrals :            -0.0008994049
@   = short-range MP2 second order energy        :            -8.0296070030

 *******************************************************
 MP2-SRDFT natural orbitals: Short-range self-consistent
 contributions are NOT taken into account.
 *******************************************************

 Natural orbital occupation numbers, symmetry 1 (irrep A1 )
 Sum =     3.99931146; RHF =     4.00000000; Difference =    -0.00068854

         1.99998849     1.99815173     0.00100606     0.00016072     0.00000359
         0.00000101    -0.00000014

 Natural orbital occupation numbers, symmetry 2 (irrep B1 )
 Sum =     0.00034427; RHF =     0.00000000; Difference =     0.00034427

         0.00034075     0.00000352

 Natural orbital occupation numbers, symmetry 3 (irrep B2 )
 Sum =     0.00034427; RHF =     0.00000000; Difference =     0.00034427

         0.00034075     0.00000352

 Time used for MP2 natural orbitals :       0.204 CPU seconds,       0.204 wall seconds.

 CPU and wall time for MP2 :       0.204       0.204


        SIRIUS MC-srDFT optimization (SIROPT)
 ================================================



 ----- Output from SIRIUS CI module (CICTL) -----




 2-el. integral transformation level 0: Total CPU and WALL times (sec)       0.000       0.000

 (CIST1) 3 lowest diagonal elements:

 Element no. Config.no.    Active energy      Total energy

         1 :          1     -1.4209274162     -9.5439790506
         2 :          3     -1.0811984394     -9.2042500738
         3 :          2     -0.7112818191     -8.8343334536


 Convergence threshold for CI optimization :     0.00000500


 The requested root number is now converged.


 *** CI converged in  3 iterations.


SR 0-el. energy for input .STATE    1
-------------------------------------

   SR core    Hartree energy   :           2.432326578116
 - SR valence Hartree energy   :          -0.314442452068
 + SR Exchange-correlation     :          -1.438083448441
 - SR Exchange-correlation pot.:           0.320392811464

 = Total eff. SR 0-el. energy  :           1.000193489070

CI-DFT energy for state no.    1
-------------------------------------

 SR eff. 1-el. energy          :           0.515082352467
 SR total Hartree energy       :           2.953359289979
 SR eff. total DFT energy      :           1.515275841537
 LR total CI  energy           :          -9.544896393224

 Total CI-DFT energy           :          -8.029620551687

 Decomposition of the auxiliary CI-srDFT energy:
 ELRCI        :          -9.544896393224
 EMYDFTAUX    :           3.367022771752
 ESRDV        :           0.515082352467
 POTNUC       :           0.969637476220
 

 Auxiliary CI-srDFT energy for root 1:        -6.632428745226


@ Final CI energies and residuals in symmetry 1 (irrep A1 )
@    1       -8.029620551686735       1.26D-15

   --- OUTPUT FROM SIRCNO     Keyword = FD+NO 


   Ex-sr + Ec-sr                         -1.4377186223
 + EJsr = sr Coulomb energy               2.9526656017
 = Total E(srDFT)                         1.5149469794


 Corrections needed for correct CI energy evaluation:
 - 0.5 Tr(Vxc-sr Dcore)                   0.8521172757
 -     Tr(Vxc-sr Dval)                    0.3198277166
 - 0.5 Tr( (Jsr+HFXFAC*Ksr) Dval )       -0.4169800726

 Occupations of CAS natural orbitals:

 Symmetry  1 ( irrep A1  in C2v )

   1.996680620   0.003319380


 --- MACRO ITERATION  1 ---
 --------------------------

 2-el. integral transformation level 3: Total CPU and WALL times (sec)       0.000       0.001

   Ex-sr + Ec-sr                         -1.4377186223
 + EJsr = sr Coulomb energy               2.9526656017
 = Total E(srDFT)                         1.5149469794


 Corrections needed for correct CI energy evaluation:
 - 0.5 Tr(Vxc-sr Dcore)                   0.8521172757
 -     Tr(Vxc-sr Dval)                    0.3198277166
 - 0.5 Tr( (Jsr+HFXFAC*Ksr) Dval )       -0.4169800726

 Total MC-srDFT energy    :            -8.029620106585522  (MACRO    1)

 - Nuclear repulsion      :             0.969637476220371
 - Inactive energy        :            -7.409120857198699
 - Active energy          :            -0.907383022972272
 - srDFT effective energy :            -0.682753702634920

 Norm of total gradient   :             0.003526472327
 -    of CI gradient      :             0.000478805424
 -    of orbital gradient :             0.003493816314
      Virial theorem: -V/T =      2.006683
@    MULPOP   H      -0.22; Li      0.22; 

 Residual norm when dim(red L) =   7
 NEO root     CSF        orbital          total
    1     0.00000000     0.00006117     0.00006117 converged

 (NEONEX) NEO vector is converged.

   --- OUTPUT FROM SIRCNO     Keyword = FD+NO 


   Ex-sr + Ec-sr                         -1.4379440771
 + EJsr = sr Coulomb energy               2.9531034557
 = Total E(srDFT)                         1.5151593786


 Corrections needed for correct CI energy evaluation:
 - 0.5 Tr(Vxc-sr Dcore)                   0.8481698967
 -     Tr(Vxc-sr Dval)                    0.3280151964
 - 0.5 Tr( (Jsr+HFXFAC*Ksr) Dval )       -0.4266970833

 Occupations of CAS natural orbitals:

 Symmetry  1 ( irrep A1  in C2v )

   1.996398835   0.003601165


 --- MACRO ITERATION  2 ---
 --------------------------

 2-el. integral transformation level 3: Total CPU and WALL times (sec)       0.000       0.000

   Ex-sr + Ec-sr                         -1.4379440771
 + EJsr = sr Coulomb energy               2.9531034557
 = Total E(srDFT)                         1.5151593786


 Corrections needed for correct CI energy evaluation:
 - 0.5 Tr(Vxc-sr Dcore)                   0.8481698967
 -     Tr(Vxc-sr Dval)                    0.3280151964
 - 0.5 Tr( (Jsr+HFXFAC*Ksr) Dval )       -0.4266970833

 Total MC-srDFT energy    :            -8.029633547391800  (MACRO    2)

 - Nuclear repulsion      :             0.969637476220371
 - Inactive energy        :            -7.405697224315212
 - Active energy          :            -0.905117732030319
 - srDFT effective energy :            -0.688456067266638

 Norm of total gradient   :             0.000571660520
 -    of CI gradient      :             0.000322035708
 -    of orbital gradient :             0.000472322721
      Virial theorem: -V/T =      2.006449
@    MULPOP   H      -0.22; Li      0.22; 

 Residual norm when dim(red L) =   8
 NEO root     CSF        orbital          total
    1     0.00000000     0.00000378     0.00000378 converged

 (NEONEX) NEO vector is converged.

   --- OUTPUT FROM SIRCNO     Keyword = FD+NO 


   Ex-sr + Ec-sr                         -1.4379309234
 + EJsr = sr Coulomb energy               2.9530820819
 = Total E(srDFT)                         1.5151511586


 Corrections needed for correct CI energy evaluation:
 - 0.5 Tr(Vxc-sr Dcore)                   0.8484491173
 -     Tr(Vxc-sr Dval)                    0.3274421643
 - 0.5 Tr( (Jsr+HFXFAC*Ksr) Dval )       -0.4260012269

 Occupations of CAS natural orbitals:

 Symmetry  1 ( irrep A1  in C2v )

   1.996464809   0.003535191


 --- MACRO ITERATION  3 ---
 --------------------------

 2-el. integral transformation level 3: Total CPU and WALL times (sec)       0.000       0.001

   Ex-sr + Ec-sr                         -1.4379309234
 + EJsr = sr Coulomb energy               2.9530820819
 = Total E(srDFT)                         1.5151511586


 Corrections needed for correct CI energy evaluation:
 - 0.5 Tr(Vxc-sr Dcore)                   0.8484491173
 -     Tr(Vxc-sr Dval)                    0.3274421643
 - 0.5 Tr( (Jsr+HFXFAC*Ksr) Dval )       -0.4260012269

 Total MC-srDFT energy    :            -8.029633713235352  (MACRO    3)

 - Nuclear repulsion      :             0.969637476220371
 - Inactive energy        :            -7.406160980195348
 - Active energy          :            -0.905069340624678
 - srDFT effective energy :            -0.688040868635697

 Norm of total gradient   :             0.000004896335
 -    of CI gradient      :             0.000001361686
 -    of orbital gradient :             0.000004703181
      Virial theorem: -V/T =      2.006471
@    MULPOP   H      -0.22; Li      0.22; 

 *** Optimization control: MC-srDFT converged ***
     Number of macro iterations used            3
     Number of micro iterations used           13
     Total number of CPU seconds used         4.95

 CPU and wall time for MCSCF :       4.953       4.953


                     .----------------------------------------.
                     | --- SIRIUS OPTIMIZATION STATISTICS --- |
                     `----------------------------------------'


 
     Date and time (Linux)  : Wed Apr 10 18:04:53 2019
     Host name              : adm-110765.pc.sdu.dk                    


  ITER ITMIC     EMCSCF           GRDNRM        RATIO      STPLNG
 ---------------------------------------------------------------------
    1    6     -8.029620106586   0.0035264723  0.000000   0.0626093764
    2    7     -8.029633547392   0.0005716605  0.938787   0.0061496110
    3    0     -8.029633713235   0.0000048963  1.006229   0.0000000000


  ITER  INDGCM  GCIMAX      GCINRM     INDGOM  GOBMAX      GOBNRM      GRDNRM
 ------------------------------------------------------------------------------
    1      3    0.000478    0.000479     10   -0.002692    0.003494    0.003526
    2      2   -0.000319    0.000322      3   -0.000322    0.000472    0.000572
    3      2   -0.000001    0.000001      4   -0.000002    0.000005    0.000005


  ITER ITMIC NCLIN NOLIN   TIMMAC    TIMITR    TIMMIC    TIMLIN    TIMMIC/ITMIC
 ------------------------------------------------------------------------------

    1     6     2     4      2.03      0.00      1.83      1.62      0.30
    2     7     2     5      2.31      0.00      2.10      1.90      0.30
    3     0     0     0      0.20      0.00      0.00      0.00


 ITER         EMY                 EACTIV              EMCSCF

    1     -8.091874559834     -0.907383022972     -8.029620106586
    2     -8.094153291582     -0.905117732030     -8.029633547392
    3     -8.094201848831     -0.905069340625     -8.029633713235


 ITER         DEPRED              DEACT               RATIO

    1      0.000000000000      0.000000000000      0.000000000000
    2     -0.000014317202     -0.000013440806      0.938787218544
    3     -0.000000164817     -0.000000165844      1.006229096846


 ITER    BETA           GAMMA             STPLNG              RTRUST

    1      0.20000000  1.00000000      0.062609376377      0.700000000000
    2      0.20000000  1.00000000      0.006149610972      0.700000000000
    3      0.00000000  0.00000000      0.000000000000      0.700000000000


 Reduced L root no.  1
 ITER         EVAL              EVEC(1)           EVEC(2)           EVEC(3)
 ----------------------------------------------------------------------------
    1   -0.000001145197    0.999921610538   -0.010571634101   -0.006651100103
    2   -0.000000013185    0.999999243647   -0.000074485439   -0.001125423311
    3    0.000000000000    0.000000000000    0.000000000000    0.000000000000


                       .-----------------------------------.
                       | --- Final results from SIRIUS --- |
                       `-----------------------------------'


@    Spin multiplicity:           1
@    Spatial symmetry:            1 ( irrep  A1  in C2v )
@    Total charge of molecule:    0
@    State number:                1

@    Final MC-SRDFT energy:        -8.029633713235                 
@    Nuclear repulsion:             0.969637476220
@    Electronic energy:            -8.999271189456

@    Final gradient norm:           0.000004896335

 
     Date and time (Linux)  : Wed Apr 10 18:04:53 2019
     Host name              : adm-110765.pc.sdu.dk                    

 Occupancies of natural orbitals
 -------------------------------

 Symmetry 1  ( A1 ) -- Total occupation in this symmetry is   4.000000000

   2.000000000   1.996464809   0.003535191

 Symmetry 2  ( B1 ) -- No occupied orbitals

 Symmetry 3  ( B2 ) -- No occupied orbitals

 Symmetry 4  ( A2 ) -- No occupied orbitals

File label for MO orbitals:  10Apr19   (CNOORB)

 (Only coefficients > 0.0100 are printed.)

 Molecular orbitals for symmetry species 1  (A1 )
 ------------------------------------------------

    Orbital         1        2        3        4        5        6        7
   1 H   :1s    -0.0027  -0.3026   0.2919  -0.0537   0.0102   0.0027  -1.3675
   2 H   :1s    -0.0022  -0.4106   1.0473  -0.6822  -0.5644   0.1207   1.9019
   3 Li  :1s    -0.9967   0.1448   0.0912   0.0909   0.0511  -0.1380  -0.0926
   4 Li  :1s    -0.0566  -0.1720  -0.8320   0.3036  -0.4512  -2.3136  -0.3211
   5 Li  :1s     0.0283  -0.2205  -0.4759  -0.2064   0.4930   2.3378  -0.3924
   6 Li  :2pz    0.0072  -0.2167  -0.6798   0.1733   1.8580  -0.4253  -0.3333
   7 Li  :2pz   -0.0052  -0.0128   0.0837   1.0844  -1.2548   0.3683  -0.2951

 Molecular orbitals for symmetry species 2  (B1 )
 ------------------------------------------------

    Orbital         1        2
   1 Li  :2px    0.0748  -1.7056
   2 Li  :2px    0.9385   1.4262

 Molecular orbitals for symmetry species 3  (B2 )
 ------------------------------------------------

    Orbital         1        2
   1 Li  :2py    0.0748  -1.7056
   2 Li  :2py    0.9385   1.4262

 Printout of CI-coefficients abs greater than 0.05000 for root  1
 *** NOTE: this root is the reference state ***

 Printout of coefficients in interval  3.1623E-01 to  1.0000E+00
 ===============================================================

  Coefficient of CSF no.         1 is      0.99911581    9.99115811E-01
  Orbital          1
  Spin coupling    2

 Printout of coefficients in interval  1.0000E-01 to  3.1623E-01
 ===============================================================
   ( no coefficients )

 Printout of coefficients in interval  5.0000E-02 to  1.0000E-01
 ===============================================================
   ( no coefficients )

 Norm of printed CI vector ..      0.99823240

 Magnitude of CI coefficients
 ============================
 ( Ranges are relative to norm of vector :  1.00E+00 )

  10- 1 to 10- 0         1    0.99823240E+00      0.9982324044
  10- 2 to 10- 1         1    0.17675956E-02      1.0000000000
  Number of coefficients less than 10^-11 times norm is            1

  Total CPU  time used in SIRIUS :   6.58 seconds
  Total wall time used in SIRIUS :   6.58 seconds

 
     Date and time (Linux)  : Wed Apr 10 18:04:53 2019
     Host name              : adm-110765.pc.sdu.dk                    


                     .---------------------------------------.
                     | End of Wave Function Section (SIRIUS) |
                     `---------------------------------------'



                 .------------------------------------------------.
                 | Starting in Dynamic Property Section (RESPONS) |
                 `------------------------------------------------'


 ----------------------------------------------------------------------------------------
  RESPONSE  -  an MCSCF, MC-srDFT, DFT, SOPPA and SOPPA-srDFT response property program
 ----------------------------------------------------------------------------------------

srDFT INFO: DIRFCK reset because it must be true in **RESPONS


 -------- OUTPUT FROM RESPONSE INPUT PROCESSING --------




 Linear Response calculation
 ---------------------------

 Print level                                    : IPRLR  =   2
 Maximum number of iterations                   : MAXITL =  60
 Threshold for relative convergence             : THCLR  = 1.000D-03
 Maximum iterations in optimal orbital algorithm: MAXITO =   5

  2 B-frequencies  0.000000D+00  3.000000D-02

    1 second order properties calculated with symmetry no.    1 and labels:

          ZDIPLEN 

    1 second order properties calculated with symmetry no.    2 and labels:

          XDIPLEN 

    1 second order properties calculated with symmetry no.    3 and labels:

          YDIPLEN 

 TRACTL_1: Integral transformation abandoned,
 the required MO integrals are already available.

 2-el. integral transformation level 3: Total CPU and WALL times (sec)       0.000       0.000

 Sorting integrals to Dirac format: Total CPU and WALL times (sec)       0.000       0.000


 MCSCF energy         :       -8.029633713235352
 -- inactive part     :       -8.094201848831045
 --   active part     :       -0.905069340624678
 -- nuclear repulsion :        0.969637476220371


                      *************************************
                      *** MC-srDFT response calculation ***
                      *************************************

 ----------------------------------------------------------------
 ----- Linear response calculation
 ----- Symmetry of excitation/property operator(s)    1  ( A1 )
 ----------------------------------------------------------------

 Number of excitations of this symmetry            0
 Number of response properties of this symmetry    1
 Number of C6/C8 properties of this symmetry       0


 Perturbation symmetry.     KSYMOP:           1
 Perturbation spin symmetry.TRPLET:           F
 Orbital variables.         KZWOPT:          14
 Configuration variables.   KZCONF:           3
 Total number of variables. KZVAR :          17


 RSPLR -- linear response calculation for symmetry 1  ( A1 )
 RSPLR -- operator label : ZDIPLEN 
 RSPLR -- operator spin  :   0
 RSPLR -- frequencies    :     0.000000  0.030000



 ---  SOLVING SETS OF LINEAR EQUATIONS FOR LINEAR RESPONSE PROPERTIES ---

 Operator symmetry = 1  ( A1 ); triplet =   F


 ** RSPCTL MICROITERATION NUMBER    1

***  INFO  GETGAB: GABAOXXX not found on AOPROPER. Regenerating.

***  INFO  GETGAB: GABSRXXX not found on AOPROPER. Regenerating.

       No.  Residual tot.,    conf., and orb.    Bnorm      Frequency 
      ----------------------------------------------------------------
         1    1.98964D+00  2.73D-15  1.99D+00  6.91D+00    0.00000D+00
         2    2.02883D+00  2.68D-15  2.03D+00  7.03D+00    3.00000D-02

 ** RSPCTL MICROITERATION NUMBER    2

       No.  Residual tot.,    conf., and orb.    Bnorm      Frequency 
      ----------------------------------------------------------------
         1    2.44963D-01  2.14D-15  2.45D-01  1.72D+01    0.00000D+00
         2    2.68219D-01  2.43D-15  2.68D-01  1.85D+01    3.00000D-02

 ** RSPCTL MICROITERATION NUMBER    3

       No.  Residual tot.,    conf., and orb.    Bnorm      Frequency 
      ----------------------------------------------------------------
         1    2.99994D-02  2.22D-15  3.00D-02  2.02D+01    0.00000D+00
         2    3.36181D-02  1.88D-15  3.36D-02  2.20D+01    3.00000D-02

 ** RSPCTL MICROITERATION NUMBER    4

       No.  Residual tot.,    conf., and orb.    Bnorm      Frequency 
      ----------------------------------------------------------------
         1    1.21286D-02  2.05D-15  1.21D-02  2.02D+01    0.00000D+00
         2    1.31832D-02  2.07D-15  1.32D-02  2.19D+01    3.00000D-02

 *** THE REQUESTED    2 SOLUTION VECTORS CONVERGED

 Convergence of RSP solution vectors, threshold = 1.00D-03
 ---------------------------------------------------------------
 (dimension of paired reduced space:   20)
 RSP solution vector no.    1; norm of residual   6.00D-04
 RSP solution vector no.    2; norm of residual   6.01D-04

 *** RSPCTL MICROITERATIONS CONVERGED


           Final output of second order properties from linear response
           ------------------------------------------------------------


@ Spin symmetry of operators: singlet

 Note that minus the linear response function: - << A; B >>(omega) is printed.
 The results are of quadratic accuracy using Sellers formula.

@ FREQUENCY INDEPENDENT SECOND ORDER PROPERTIES

@ -<< ZDIPLEN  ; ZDIPLEN  >> =  2.043889330007E+01

@ FREQUENCY DEPENDENT SECOND ORDER PROPERTIES WITH FREQUENCY :

@    a.u.:  3.0000000D-02
@    cm-1:  6.5842389D+03
@    eV  :  8.1634153D-01
@  kJ/mol:  7.8764988D+01
@    nm  :  1.5187784D+03

@ -<< ZDIPLEN  ; ZDIPLEN  >> =  2.107335953090E+01


 Time used in linear response calculation is      2.73 CPU seconds for symmetry 1
 ----------------------------------------------------------------
 ----- Linear response calculation
 ----- Symmetry of excitation/property operator(s)    2  ( B1 )
 ----------------------------------------------------------------

 Number of excitations of this symmetry            0
 Number of response properties of this symmetry    1
 Number of C6/C8 properties of this symmetry       0


 Perturbation symmetry.     KSYMOP:           2
 Perturbation spin symmetry.TRPLET:           F
 Orbital variables.         KZWOPT:           6
 Configuration variables.   KZCONF:           0
 Total number of variables. KZVAR :           6


 RSPLR -- linear response calculation for symmetry 2  ( B1 )
 RSPLR -- operator label : XDIPLEN 
 RSPLR -- operator spin  :   0
 RSPLR -- frequencies    :     0.000000  0.030000



 ---  SOLVING SETS OF LINEAR EQUATIONS FOR LINEAR RESPONSE PROPERTIES ---

 Operator symmetry = 2  ( B1 ); triplet =   F


 ** RSPCTL MICROITERATION NUMBER    1

       No.  Residual tot.,    conf., and orb.    Bnorm      Frequency 
      ----------------------------------------------------------------
         1    8.92941D-01  0.00D+00  8.93D-01  1.13D+01    0.00000D+00
         2    9.28653D-01  0.00D+00  9.29D-01  1.17D+01    3.00000D-02

 ** RSPCTL MICROITERATION NUMBER    2

       No.  Residual tot.,    conf., and orb.    Bnorm      Frequency 
      ----------------------------------------------------------------
         1    3.12035D-01  0.00D+00  3.12D-01  4.45D+01    0.00000D+00
         2    3.22122D-01  0.00D+00  3.22D-01  4.63D+01    3.00000D-02

 ** RSPCTL MICROITERATION NUMBER    3

       No.  Residual tot.,    conf., and orb.    Bnorm      Frequency 
      ----------------------------------------------------------------
         1    4.33935D-05  0.00D+00  4.34D-05  4.70D+01    0.00000D+00
         2    4.51503D-05  0.00D+00  4.52D-05  4.89D+01    3.00000D-02

 *** THE REQUESTED    2 SOLUTION VECTORS CONVERGED

 Convergence of RSP solution vectors, threshold = 1.00D-03
 ---------------------------------------------------------------
 (dimension of paired reduced space:   12)
 RSP solution vector no.    1; norm of residual   9.23D-07
 RSP solution vector no.    2; norm of residual   9.23D-07

 *** RSPCTL MICROITERATIONS CONVERGED


           Final output of second order properties from linear response
           ------------------------------------------------------------


@ Spin symmetry of operators: singlet

 Note that minus the linear response function: - << A; B >>(omega) is printed.
 The results are of quadratic accuracy using Sellers formula.

@ FREQUENCY INDEPENDENT SECOND ORDER PROPERTIES

@ -<< XDIPLEN  ; XDIPLEN  >> =  2.540388324756E+01

@ FREQUENCY DEPENDENT SECOND ORDER PROPERTIES WITH FREQUENCY :

@    a.u.:  3.0000000D-02
@    cm-1:  6.5842389D+03
@    eV  :  8.1634153D-01
@  kJ/mol:  7.8764988D+01
@    nm  :  1.5187784D+03

@ -<< XDIPLEN  ; XDIPLEN  >> =  2.616553170417E+01


 Time used in linear response calculation is      1.58 CPU seconds for symmetry 2
 ----------------------------------------------------------------
 ----- Linear response calculation
 ----- Symmetry of excitation/property operator(s)    3  ( B2 )
 ----------------------------------------------------------------

 Number of excitations of this symmetry            0
 Number of response properties of this symmetry    1
 Number of C6/C8 properties of this symmetry       0


 Perturbation symmetry.     KSYMOP:           3
 Perturbation spin symmetry.TRPLET:           F
 Orbital variables.         KZWOPT:           6
 Configuration variables.   KZCONF:           0
 Total number of variables. KZVAR :           6


 RSPLR -- linear response calculation for symmetry 3  ( B2 )
 RSPLR -- operator label : YDIPLEN 
 RSPLR -- operator spin  :   0
 RSPLR -- frequencies    :     0.000000  0.030000



 ---  SOLVING SETS OF LINEAR EQUATIONS FOR LINEAR RESPONSE PROPERTIES ---

 Operator symmetry = 3  ( B2 ); triplet =   F


 ** RSPCTL MICROITERATION NUMBER    1

       No.  Residual tot.,    conf., and orb.    Bnorm      Frequency 
      ----------------------------------------------------------------
         1    8.92941D-01  0.00D+00  8.93D-01  1.13D+01    0.00000D+00
         2    9.28653D-01  0.00D+00  9.29D-01  1.17D+01    3.00000D-02

 ** RSPCTL MICROITERATION NUMBER    2

       No.  Residual tot.,    conf., and orb.    Bnorm      Frequency 
      ----------------------------------------------------------------
         1    3.12035D-01  0.00D+00  3.12D-01  4.45D+01    0.00000D+00
         2    3.22122D-01  0.00D+00  3.22D-01  4.63D+01    3.00000D-02

 ** RSPCTL MICROITERATION NUMBER    3

       No.  Residual tot.,    conf., and orb.    Bnorm      Frequency 
      ----------------------------------------------------------------
         1    4.33935D-05  0.00D+00  4.34D-05  4.70D+01    0.00000D+00
         2    4.51503D-05  0.00D+00  4.52D-05  4.89D+01    3.00000D-02

 *** THE REQUESTED    2 SOLUTION VECTORS CONVERGED

 Convergence of RSP solution vectors, threshold = 1.00D-03
 ---------------------------------------------------------------
 (dimension of paired reduced space:   12)
 RSP solution vector no.    1; norm of residual   9.23D-07
 RSP solution vector no.    2; norm of residual   9.23D-07

 *** RSPCTL MICROITERATIONS CONVERGED


           Final output of second order properties from linear response
           ------------------------------------------------------------


@ Spin symmetry of operators: singlet

 Note that minus the linear response function: - << A; B >>(omega) is printed.
 The results are of quadratic accuracy using Sellers formula.

@ FREQUENCY INDEPENDENT SECOND ORDER PROPERTIES

@ -<< YDIPLEN  ; YDIPLEN  >> =  2.540388325811E+01

@ FREQUENCY DEPENDENT SECOND ORDER PROPERTIES WITH FREQUENCY :

@    a.u.:  3.0000000D-02
@    cm-1:  6.5842389D+03
@    eV  :  8.1634153D-01
@  kJ/mol:  7.8764988D+01
@    nm  :  1.5187784D+03

@ -<< YDIPLEN  ; YDIPLEN  >> =  2.616553171550E+01


 Time used in linear response calculation is      1.58 CPU seconds for symmetry 3

  Total CPU  time used in RESPONSE:   5.90 seconds
  Total wall time used in RESPONSE:   5.90 seconds


                   .-------------------------------------------.
                   | End of Dynamic Property Section (RESPONS) |
                   `-------------------------------------------'

  Total CPU  time used in DALTON:  12.48 seconds
  Total wall time used in DALTON:  12.48 seconds

 
     Date and time (Linux)  : Wed Apr 10 18:04:59 2019
     Host name              : adm-110765.pc.sdu.dk                    
