

     ************************************************************************
     *************** Dalton - An Electronic Structure Program ***************
     ************************************************************************

    This is output from DALTON (Release Dalton2013 patch 0)
   ----------------------------------------------------------------------------
    NOTE:
     
    Dalton is an experimental code for the evaluation of molecular
    properties using (MC)SCF, DFT, CI, and CC wave functions.
    The authors accept no responsibility for the performance of
    the code or for the correctness of the results.
     
    The code (in whole or part) is provided under a licence and
    is not to be reproduced for further distribution without
    the written permission of the authors or their representatives.
     
    See the home page "http://daltonprogram.org" for further information.
     
    If results obtained with this code are published,
    the appropriate citations would be both of:
     
       K. Aidas, C. Angeli, K. L. Bak, V. Bakken, R. Bast,
       L. Boman, O. Christiansen, R. Cimiraglia, S. Coriani,
       P. Dahle, E. K. Dalskov, U. Ekstroem, T. Enevoldsen,
       J. J. Eriksen, P. Ettenhuber, B. Fernandez, L. Ferrighi,
       H. Fliegl, L. Frediani, K. Hald, A. Halkier, C. Haettig,
       H. Heiberg, T. Helgaker, A. C. Hennum, H. Hettema,
       E. Hjertenaes, S. Hoest, I.-M. Hoeyvik, M. F. Iozzi,
       B. Jansik, H. J. Aa. Jensen, D. Jonsson, P. Joergensen,
       J. Kauczor, S. Kirpekar, T. Kjaergaard, W. Klopper,
       S. Knecht, R. Kobayashi, H. Koch, J. Kongsted, A. Krapp,
       K. Kristensen, A. Ligabue, O. B. Lutnaes, J. I. Melo,
       K. V. Mikkelsen, R. H. Myhre, C. Neiss, C. B. Nielsen,
       P. Norman, J. Olsen, J. M. H. Olsen, A. Osted,
       M. J. Packer, F. Pawlowski, T. B. Pedersen, P. F. Provasi,
       S. Reine, Z. Rinkevicius, T. A. Ruden, K. Ruud, V. Rybkin,
       P. Salek, C. C. M. Samson, A. Sanchez de Meras, T. Saue,
       S. P. A. Sauer, B. Schimmelpfennig, K. Sneskov,
       A. H. Steindal, K. O. Sylvester-Hvid, P. R. Taylor,
       A. M. Teale, E. I. Tellgren, D. P. Tew, A. J. Thorvaldsen,
       L. Thoegersen, O. Vahtras, M. A. Watson, D. J. D. Wilson,
       M. Ziolkowski and H. Agren.
       The Dalton quantum chemistry program system.
       WIREs Comput. Mol. Sci. 2013. doi: 10.1002/wcms.1172
    
    and
    
       Dalton, a Molecular Electronic Structure Program,
       Release DALTON2013.0 (2013), see http://daltonprogram.org
   ----------------------------------------------------------------------------

    Authors in alphabetical order (major contribution(s) in parenthesis):

  Kestutis Aidas,           Vilnius University,           Lithuania   (QM/MM)
  Celestino Angeli,         University of Ferrara,        Italy       (NEVPT2)
  Keld L. Bak,              UNI-C,                        Denmark     (AOSOPPA, non-adiabatic coupling, magnetic properties)
  Vebjoern Bakken,          University of Oslo,           Norway      (DALTON; geometry optimizer, symmetry detection)
  Radovan Bast,             KTH Stockholm                 Sweden      (DALTON installation and execution frameworks)
  Linus Boman,              NTNU,                         Norway      (Cholesky decomposition and subsystems)
  Ove Christiansen,         Aarhus University,            Denmark     (CC module)
  Renzo Cimiraglia,         University of Ferrara,        Italy       (NEVPT2)
  Sonia Coriani,            University of Trieste,        Italy       (CC module, MCD in RESPONS)
  Paal Dahle,               University of Oslo,           Norway      (Parallelization)
  Erik K. Dalskov,          UNI-C,                        Denmark     (SOPPA)
  Thomas Enevoldsen,        Univ. of Southern Denmark,    Denmark     (SOPPA)
  Janus J. Eriksen,         Aarhus University,            Denmark     (PE-MP2/SOPPA, TDA)
  Berta Fernandez,          U. of Santiago de Compostela, Spain       (doublet spin, ESR in RESPONS)
  Lara Ferrighi,            Aarhus University,            Denmark     (PCM Cubic response)
  Heike Fliegl,             University of Oslo,           Norway      (CCSD(R12))
  Luca Frediani,            UiT The Arctic U. of Norway,  Norway      (PCM)
  Bin Gao,                  UiT The Arctic U. of Norway,  Norway      (Gen1Int library)
  Christof Haettig,         Ruhr-University Bochum,       Germany     (CC module)
  Kasper Hald,              Aarhus University,            Denmark     (CC module)
  Asger Halkier,            Aarhus University,            Denmark     (CC module)
  Hanne Heiberg,            University of Oslo,           Norway      (geometry analysis, selected one-electron integrals)
  Trygve Helgaker,          University of Oslo,           Norway      (DALTON; ABACUS, ERI, DFT modules, London, and much more)
  Alf Christian Hennum,     University of Oslo,           Norway      (Parity violation)
  Hinne Hettema,            University of Auckland,       New Zealand (quadratic response in RESPONS; SIRIUS supersymmetry)
  Eirik Hjertenaes,         NTNU,                         Norway      (Cholesky decomposition)
  Maria Francesca Iozzi,    University of Oslo,           Norway      (RPA)
  Brano Jansik              Technical Univ. of Ostrava    Czech Rep.  (DFT cubic response)
  Hans Joergen Aa. Jensen,  Univ. of Southern Denmark,    Denmark     (DALTON; SIRIUS, RESPONS, ABACUS modules, London, and much more)
  Dan Jonsson,              UiT The Arctic U. of Norway,  Norway      (cubic response in RESPONS module)
  Poul Joergensen,          Aarhus University,            Denmark     (RESPONS, ABACUS, and CC modules)
  Joanna Kauczor,           Linkoeping University,        Sweden      (Complex polarization propagator (CPP) module)
  Sheela Kirpekar,          Univ. of Southern Denmark,    Denmark     (Mass-velocity & Darwin integrals)
  Wim Klopper,              KIT Karlsruhe,                Germany     (R12 code in CC, SIRIUS, and ABACUS modules)
  Stefan Knecht,            ETH Zurich,                   Switzerland (Parallel CI and MCSCF)
  Rika Kobayashi,           Australian National Univ.,    Australia   (DIIS in CC, London in MCSCF)
  Henrik Koch,              NTNU,                         Norway      (CC module, Cholesky decomposition)
  Jacob Kongsted,           Univ. of Southern Denmark,    Denmark     (Polarizable embedding, QM/MM)
  Andrea Ligabue,           University of Modena,         Italy       (CTOCD, AOSOPPA)
  Ola B. Lutnaes,           University of Oslo,           Norway      (DFT Hessian)
  Juan I. Melo,             University of Buenos Aires,   Argentina   (LRESC, Relativistic Effects on NMR Shieldings)
  Kurt V. Mikkelsen,        University of Copenhagen,     Denmark     (MC-SCRF and QM/MM)
  Rolf H. Myhre,            NTNU,                         Norway      (Cholesky, subsystems and ECC2)
  Christian Neiss,          Univ. Erlangen-Nuernberg,     Germany     (CCSD(R12))
  Christian B. Nielsen,     University of Copenhagen,     Denmark     (QM/MM)
  Patrick Norman,           Linkoeping University,        Sweden      (Cubic response and complex response in RESPONS)
  Jeppe Olsen,              Aarhus University,            Denmark     (SIRIUS CI/density modules)
  Jogvan Magnus H. Olsen,   Univ. of Southern Denmark,    Denmark     (Polarizable embedding, PE library, QM/MM)
  Anders Osted,             Copenhagen University,        Denmark     (QM/MM)
  Martin J. Packer,         University of Sheffield,      UK          (SOPPA)
  Filip Pawlowski,          Kazimierz Wielki University   Poland      (CC3)
  Thomas B. Pedersen,       University of Oslo,           Norway      (Cholesky decomposition)
  Patricio F. Provasi,      University of Northeastern,   Argentina   (Analysis of coupling constants in localized orbitals)
  Zilvinas Rinkevicius,     KTH Stockholm,                Sweden      (open-shell DFT, ESR)
  Elias Rudberg,            KTH Stockholm,                Sweden      (DFT grid and basis info)
  Torgeir A. Ruden,         University of Oslo,           Norway      (Numerical derivatives in ABACUS)
  Kenneth Ruud,             UiT The Arctic U. of Norway,  Norway      (DALTON; ABACUS magnetic properties and  much more)
  Pawel Salek,              KTH Stockholm,                Sweden      (DALTON; DFT code)
  Claire C. M. Samson       University of Karlsruhe       Germany     (Boys localization, r12 integrals in ERI)
  Alfredo Sanchez de Meras, University of Valencia,       Spain       (CC module, Cholesky decomposition)
  Trond Saue,               Paul Sabatier University,     France      (direct Fock matrix construction)
  Stephan P. A. Sauer,      University of Copenhagen,     Denmark     (SOPPA(CCSD), SOPPA prop., AOSOPPA, vibrational g-factors)
  Bernd Schimmelpfennig,    Forschungszentrum Karlsruhe,  Germany     (AMFI module)
  Kristian Sneskov,         Aarhus University,            Denmark     (QM/MM, PE-CC)
  Arnfinn H. Steindal,      UiT The Arctic U. of Norway,  Norway      (parallel QM/MM)
  K. O. Sylvester-Hvid,     University of Copenhagen,     Denmark     (MC-SCRF)
  Peter R. Taylor,          VLSCI/Univ. of Melbourne,     Australia   (Symmetry handling ABACUS, integral transformation)
  Andrew M. Teale,          University of Nottingham,     England     (DFT-AC, DFT-D)
  David P. Tew,             University of Bristol,        England     (CCSD(R12))
  Olav Vahtras,             KTH Stockholm,                Sweden      (triplet response, spin-orbit, ESR, TDDFT, open-shell DFT)
  David J. Wilson,          La Trobe University,          Australia   (DFT Hessian and DFT magnetizabilities)
  Hans Agren,               KTH Stockholm,                Sweden      (SIRIUS module, RESPONS, MC-SCRF solvation model)
 --------------------------------------------------------------------------------

     Date and time (Linux)  : Sun Sep  8 20:43:15 2013
     Host name              : lpqlx131.ups-tlse.fr                    

 * Work memory size             :    64000000 =  488.28 megabytes.

 * Directories for basis set searches:
   1) /home/bast/DALTON-2013.0-Source/build/test_cc_rsp_alpha
   2) /home/bast/DALTON-2013.0-Source/build/basis


Compilation information
-----------------------

 Who compiled             | bast
 Host                     | lpqlx131.ups-tlse.fr
 System                   | Linux-3.8.5-201.fc18.x86_64
 CMake generator          | Unix Makefiles
 Processor                | x86_64
 64-bit integers          | OFF
 MPI                      | OFF
 Fortran compiler         | /usr/bin/gfortran
 Fortran compiler version | GNU Fortran (GCC) 4.7.2 20121109 (Red Hat 4.7.2-8)
 C compiler               | /usr/bin/gcc
 C compiler version       | gcc (GCC) 4.7.2 20121109 (Red Hat 4.7.2-8)
 C++ compiler             | /usr/bin/g++
 C++ compiler version     | g++ (GCC) 4.7.2 20121109 (Red Hat 4.7.2-8)
 Static linking           | OFF
 Last Git revision        | f34203295a86316e27f9e7b44f9b6769c4a046c0
 Configuration time       | 2013-09-08 20:31:27.952056


   Content of the .dal input file
 ----------------------------------

**DALTON INPUT                                    
.RUN WAVE FUNCTIONS                               
.DIRECT                                           
**INTEGRAL                                        
.DIPLEN                                           
.ANGMOM                                           
.THETA                                            
**WAVE FUNCTIONS                                  
.TITLE                                            
  linear dipole-dipole and quadrupole-magnetic dip
  polarizabilities for the HF molecule            
  for CCS and CCSD wavefunctions                  
.CC                                               
*SCF INPUT                                        
.THRESH                                           
 1.0d-12                                          
*CC INPUT                                         
.CCS                                              
.CCSD                                             
.THRENR                                           
 1.0d-14                                          
.THRLEQ                                           
 1.0d-12                                          
.PRINT                                            
 1                                                
*CCLR                                             
.OLD_LR                                           
.OPERATOR                                         
ZDIPLEN ZDIPLEN                                   
XDIPLEN XDIPLEN                                   
XZTHETA YANGMOM                                   
YANGMOM XZTHETA                                   
.FREQUENCIES                                      
  4                                               
0.04282270  0.06562487 -0.04282270  -0.06562487   
.DISPCF                                           
  7                                               
**END OF DALTON INPUT                             


   Content of the .mol file
 ----------------------------

BASIS                                                                          
6-31G**                                                                        
Hydrogen flourid                                                               
small test basis                                                               
    2    0  Y  X      1.00D-15                                                 
        9.0   1                                                                
F     0.0000000000000000  0.0000000000000000 1.76320000000000000               
        1.0   1                                                                
H     0.0000000000000000  0.0000000000000000 0.00000000000000000               


       *******************************************************************
       *********** Output from DALTON general input processing ***********
       *******************************************************************

 --------------------------------------------------------------------------------
   Overall default print level:    0
   Print level for DALTON.STAT:    1

    AO-direct calculation (in sections where implemented)
    HERMIT 1- and 2-electron integral sections will be executed
    "Old" integral transformation used (limited to max 255 basis functions)
    Wave function sections will be executed (SIRIUS module)
 --------------------------------------------------------------------------------


   ****************************************************************************
   *************** Output of molecule and basis set information ***************
   ****************************************************************************


    The two title cards from your ".mol" input:
    ------------------------------------------------------------------------
 1: Hydrogen flourid                                                        
 2: small test basis                                                        
    ------------------------------------------------------------------------

  Atomic type no.    1
  --------------------
  Nuclear charge:   9.00000
  Number of symmetry independent centers:    1
  Number of basis sets to read;    2
  Basis set file used for this atomic type with Z =   9 :
     "/home/bast/DALTON-2013.0-Source/build/basis/6-31G**"

  Info about the basis set file: your basis has no documentation.
  Basis set: 6-31G**                                                                         

  Atomic type no.    2
  --------------------
  Nuclear charge:   1.00000
  Number of symmetry independent centers:    1
  Number of basis sets to read;    2
  Basis set file used for this atomic type with Z =   1 :
     "/home/bast/DALTON-2013.0-Source/build/basis/6-31G**"

  Info about the basis set file: your basis has no documentation.
  Basis set: 6-31G**                                                                         


                         SYMGRP: Point group information
                         -------------------------------

Point group: C1 


                                 Isotopic Masses
                                 ---------------

                           F          18.998403
                           H           1.007825

                       Total mass:    20.006228 amu
                       Natural abundance:  99.985 %

 Center-of-mass coordinates (a.u.):    0.000000    0.000000    1.674378


  Atoms and basis sets
  --------------------

  Number of atom types :    2
  Total number of atoms:    2

  Basis set used is "6-31G**" from the basis set library.

  label    atoms   charge   prim   cont     basis
  ----------------------------------------------------------------------
  F           1    9.0000    27    14      [10s4p1d|3s2p1d]                                   
  H           1    1.0000     7     5      [4s1p|2s1p]                                        
  ----------------------------------------------------------------------
  total:      2   10.0000    34    19
  ----------------------------------------------------------------------
  Spherical harmonic basis used.

  Threshold for neglecting AO integrals:  1.00D-15


  Cartesian Coordinates (a.u.)
  ----------------------------

  Total number of coordinates:    6
  F       :     1  x   0.0000000000    2  y   0.0000000000    3  z   1.7632000000
  H       :     4  x   0.0000000000    5  y   0.0000000000    6  z   0.0000000000


   Interatomic separations (in Angstrom):
   --------------------------------------

            F           H     
            ------      ------
 F     :    0.000000
 H     :    0.933045    0.000000


  Max    interatomic separation is    0.9330 Angstrom (    1.7632 Bohr)
  between atoms    2 and    1, "H     " and "F     ".

  Min HX interatomic separation is    0.9330 Angstrom (    1.7632 Bohr)


  Bond distances (Angstrom):
  --------------------------

                  atom 1     atom 2       distance
                  ------     ------       --------
  bond distance:  H          F            0.933045




 Principal moments of inertia (u*A**2) and principal axes
 --------------------------------------------------------

   IA       0.000000          0.000000    0.000000    1.000000
   IB       0.833187          0.000000    1.000000    0.000000
   IC       0.833187          1.000000    0.000000    0.000000


 Rotational constants
 --------------------

 The molecule is linear.

               B =       606561.40 MHz     (   20.232710 cm-1)


@  Nuclear repulsion energy :    5.104355716878 Hartree


                     .---------------------------------------.
                     | Starting in Integral Section (HERMIT) |
                     `---------------------------------------'



    *************************************************************************
    ****************** Output from HERMIT input processing ******************
    *************************************************************************


 Default print level:        1

 * Nuclear model: Point charge

 Calculation of one-electron Hamiltonian integrals.

 The following one-electron property integrals are calculated as requested:
          - overlap integrals
          - dipole length integrals
          - traceless quadrupole moment integrals
          - electronic angular momentum around the origin

 Center of mass  (bohr):      0.000000000000      0.000000000000      1.674377807231
 Operator center (bohr):      0.000000000000      0.000000000000      0.000000000000
 Gauge origin    (bohr):      0.000000000000      0.000000000000      0.000000000000
 Dipole origin   (bohr):      0.000000000000      0.000000000000      0.000000000000


     ************************************************************************
     ************************** Output from HERINT **************************
     ************************************************************************

 >>>> Total CPU  time used in HERMIT:   0.01 seconds
 >>>> Total wall time used in HERMIT:   0.01 seconds


                        .----------------------------------.
                        | End of Integral Section (HERMIT) |
                        `----------------------------------'



                   .--------------------------------------------.
                   | Starting in Wave Function Section (SIRIUS) |
                   `--------------------------------------------'


 *** Output from Huckel module :

     Using EWMO model:          T
     Using EHT  model:          F
     Number of Huckel orbitals each symmetry:    6

 EWMO - Energy Weighted Maximum Overlap - is a Huckel type method,
        which normally is better than Extended Huckel Theory.
 Reference: Linderberg and Ohrn, Propagators in Quantum Chemistry (Wiley, 1973)

 Huckel EWMO eigenvalues for symmetry :  1
          -26.384238      -1.721955      -0.830116      -0.730000      -0.730000
           -0.248892

 **********************************************************************
 *SIRIUS* a direct, restricted step, second order MCSCF program       *
 **********************************************************************

 
     Date and time (Linux)  : Sun Sep  8 20:43:15 2013
     Host name              : lpqlx131.ups-tlse.fr                    

 Title     :   linear dipole-dipole and quadrupole-magnetic dipole       
               polarizabilities for the HF molecule                      
               for CCS and CCSD wavefunctions                            

 Title lines from ".mol" input file:
     Hydrogen flourid                                                        
     small test basis                                                        

 Print level on unit LUPRI =   2 is   0
 Print level on unit LUW4  =   2 is   5

@    (Integral direct) CC calculation.

@    This is a combination run starting with
@              a restricted, closed shell Hartree-Fock calculation

 Fock matrices are calculated directly without use of integrals on disk.

 Initial molecular orbitals are obtained according to
 ".MOSTART EWMO  " input option

     Wave function specification
     ============================

     For the specification of the Coupled Cluster: see later.

@    For the wave function of type :      >>> CC <<<
@    Number of closed shell electrons          10
@    Number of electrons in active shells       0
@    Total charge of the molecule               0

@    Spin multiplicity and 2 M_S                1         0
     Total number of symmetries                 1
@    Reference state symmetry                   1

     Orbital specifications
     ======================
     Abelian symmetry species          All |    1
                                       --- |  ---
@    Occupied SCF orbitals               5 |    5
     Secondary orbitals                 14 |   14
     Total number of orbitals           19 |   19
     Number of basis functions          19 |   19

     Optimization information
     ========================
@    Number of configurations                 1
@    Number of orbital rotations             70
     ------------------------------------------
@    Total number of variables               71

     Maximum number of Fock   iterations      0
     Maximum number of DIIS   iterations     60
     Maximum number of QC-SCF iterations     60
     Threshold for SCF convergence     1.00D-12


 Changes of defaults for CC:
 ---------------------------


 -This is a direct atomic orbital integral based
  calculation for coupled cluster wave function
 -Linear response properties calculated
 -Dispersion coefficients for linear response calc.
  


 >>>>> DIIS optimization of Hartree-Fock <<<<<

 C1-DIIS algorithm; max error vectors =   10

 Iter      Total energy        Error norm    Delta(E)  DIIS dim.
 -----------------------------------------------------------------------------
   1  Screening settings (-IFTHRS, DIFDEN)   -6    T
@  1    -99.9159496472        1.29322D+00   -9.99D+01    1
      Virial theorem: -V/T =      1.997399
@      MULPOP F      -0.44; H       0.44; 
 -----------------------------------------------------------------------------
   2  Screening settings (-IFTHRS, DIFDEN)   -6    T
@  2    -100.006061861        2.26214D-01   -9.01D-02    2
      Virial theorem: -V/T =      2.002657
@      MULPOP F      -0.38; H       0.38; 
 -----------------------------------------------------------------------------
   3  Screening settings (-IFTHRS, DIFDEN)   -8    F
@  3    -100.008563846        8.51422D-02   -2.50D-03    3
      Virial theorem: -V/T =      1.999075
@      MULPOP F      -0.41; H       0.41; 
 -----------------------------------------------------------------------------
   4  Screening settings (-IFTHRS, DIFDEN)   -8    T
@  4    -100.008886254        2.15186D-02   -3.22D-04    4
      Virial theorem: -V/T =      2.000623
@      MULPOP F      -0.41; H       0.41; 
 -----------------------------------------------------------------------------
   5  Screening settings (-IFTHRS, DIFDEN)   -8    T
@  5    -100.008918308        3.55901D-03   -3.21D-05    5
      Virial theorem: -V/T =      2.000296
@      MULPOP F      -0.42; H       0.42; 
 -----------------------------------------------------------------------------
   6  Screening settings (-IFTHRS, DIFDEN)  -10    F
@  6    -100.008919840        7.37357D-04   -1.53D-06    6
      Virial theorem: -V/T =      2.000320
@      MULPOP F      -0.42; H       0.42; 
 -----------------------------------------------------------------------------
   7  Screening settings (-IFTHRS, DIFDEN)  -10    T
@  7    -100.008919896        5.24727D-05   -5.51D-08    7
      Virial theorem: -V/T =      2.000327
@      MULPOP F      -0.42; H       0.42; 
 -----------------------------------------------------------------------------
   8  Screening settings (-IFTHRS, DIFDEN)  -10    T
@  8    -100.008919896        4.65589D-06   -2.58D-10    8
      Virial theorem: -V/T =      2.000326
@      MULPOP F      -0.42; H       0.42; 
 -----------------------------------------------------------------------------
   9  Screening settings (-IFTHRS, DIFDEN)  -12    F
@  9    -100.008919896        4.38994D-07   -6.54D-13    9
      Virial theorem: -V/T =      2.000327
@      MULPOP F      -0.42; H       0.42; 
 -----------------------------------------------------------------------------
  10  Screening settings (-IFTHRS, DIFDEN)  -12    T
@ 10    -100.008919896        2.49085D-08   -1.42D-13   10
      Virial theorem: -V/T =      2.000327
@      MULPOP F      -0.42; H       0.42; 
 -----------------------------------------------------------------------------
  11  Screening settings (-IFTHRS, DIFDEN)  -17    F
@ 11    -100.008919896        2.55854D-09    1.28D-13   10
      Virial theorem: -V/T =      2.000327
@      MULPOP F      -0.42; H       0.42; 
 -----------------------------------------------------------------------------
  12  Screening settings (-IFTHRS, DIFDEN)  -17    T
@ 12    -100.008919896        6.65748D-11    0.00D+00   10
      Virial theorem: -V/T =      2.000327
@      MULPOP F      -0.42; H       0.42; 
 -----------------------------------------------------------------------------
  13  Screening settings (-IFTHRS, DIFDEN)  -17    T
@ 13    -100.008919896        8.92966D-12   -1.14D-13   10
      Virial theorem: -V/T =      2.000327
@      MULPOP F      -0.42; H       0.42; 
 -----------------------------------------------------------------------------
  14  Screening settings (-IFTHRS, DIFDEN)  -17    T
@ 14    -100.008919896        3.54861D-13    2.84D-14   10

@ *** DIIS converged in  14 iterations !
@     Converged SCF energy, gradient:   -100.008919895850    3.55D-13
    - total time used in SIRFCK :              0.00 seconds


 *** SCF orbital energy analysis ***

 Only the five lowest virtual orbital energies printed in each symmetry.

 Number of electrons :   10
 Orbital occupations :    5

 Sym       Hartree-Fock orbital energies

  1    -26.27306629    -1.57292658    -0.73710501    -0.62549523    -0.62549523
         0.21639320     1.01969778     1.48848713     1.48848713     1.53899963

    E(LUMO) :     0.21639320 au (symmetry 1)
  - E(HOMO) :    -0.62549523 au (symmetry 1)
  ------------------------------------------
    gap     :     0.84188843 au

 >>> Writing SIRIFC interface file <<<

 >>>> CPU and wall time for SCF :       0.082       0.083


                       .-----------------------------------.
                       | >>> Final results from SIRIUS <<< |
                       `-----------------------------------'


@    Spin multiplicity:           1
@    Spatial symmetry:            1
@    Total charge of molecule:    0

@    Final HF energy:            -100.008919895850                 
@    Nuclear repulsion:             5.104355716878
@    Electronic energy:          -105.113275612729

@    Final gradient norm:           0.000000000000

 
     Date and time (Linux)  : Sun Sep  8 20:43:16 2013
     Host name              : lpqlx131.ups-tlse.fr                    

 (Only coefficients >0.0100 are printed.)

 Molecular orbitals for symmetry species  1
 ------------------------------------------

    Orbital         1        2        3        4        5        6        7
   1 F   :1s    -0.9955  -0.2308  -0.0555  -0.0000   0.0000   0.0644   0.0183
   2 F   :1s    -0.0212   0.5025   0.1234   0.0000  -0.0000  -0.0741  -0.1606
   3 F   :1s     0.0052   0.5082   0.2358   0.0000  -0.0000  -0.7503   0.3606
   4 F   :2px   -0.0000   0.0000   0.0000   0.0157   0.6586  -0.0000   0.0000
   5 F   :2py    0.0000  -0.0000  -0.0000   0.6586  -0.0157   0.0000  -0.0000
   6 F   :2pz    0.0013  -0.0602   0.5496   0.0000  -0.0000   0.2591   0.3919
   7 F   :2px   -0.0000   0.0000   0.0000   0.0116   0.4858  -0.0000   0.0000
   8 F   :2py    0.0000  -0.0000  -0.0000   0.4858  -0.0116   0.0000  -0.0000
   9 F   :2pz   -0.0009  -0.0224   0.3522   0.0000  -0.0000   0.4759  -0.1052
  11 F   :3d1-  -0.0000   0.0000   0.0000  -0.0223   0.0005  -0.0000   0.0000
  12 F   :3d0    0.0000   0.0013  -0.0237  -0.0000   0.0000  -0.0259   0.2926
  13 F   :3d1+  -0.0000  -0.0000  -0.0000  -0.0005  -0.0223   0.0000  -0.0000
  15 H   :1s    -0.0001   0.1311  -0.2709  -0.0000   0.0000   0.1124   0.9672
  16 H   :1s    -0.0013   0.0073  -0.1255  -0.0000   0.0000   1.3668  -0.9276
  17 H   :2px    0.0000  -0.0000  -0.0000   0.0005   0.0198   0.0000  -0.0000
  18 H   :2py    0.0000   0.0000   0.0000   0.0198  -0.0005  -0.0000   0.0000
  19 H   :2pz    0.0006   0.0312  -0.0288  -0.0000   0.0000   0.0206  -0.2828



 >>>> Total CPU  time used in SIRIUS :      0.08 seconds
 >>>> Total wall time used in SIRIUS :      0.09 seconds

 
     Date and time (Linux)  : Sun Sep  8 20:43:16 2013
     Host name              : lpqlx131.ups-tlse.fr                    


                     .---------------------------------------.
                     | End of Wave Function Section (SIRIUS) |
                     `---------------------------------------'



                    .------------------------------------------.
                    | Starting in Coupled Cluster Section (CC) |
                    `------------------------------------------'

  

 *******************************************************************************
 *******************************************************************************
 *                                                                             *
 *                                                                             *
 *                    START OF COUPLED CLUSTER CALCULATION                     *
 *                                                                             *
 *                                                                             *
 *******************************************************************************
 *******************************************************************************



 CCR12 ANSATZ =   0

 CCR12 APPROX =   0

   

 *******************************************************************
 *                                                                 *
 *<<<<<<<<<<                                             >>>>>>>>>>*
 *<<<<<<<<<< OUTPUT FROM COUPLED CLUSTER ENERGY PROGRAM  >>>>>>>>>>*
 *<<<<<<<<<<                                             >>>>>>>>>>*
 *                                                                 *
 *******************************************************************


             The Direct Coupled Cluster Energy Program
             -----------------------------------------


          Number of t1 amplitudes                 :        70
          Number of t2 amplitudes                 :      2485
          Total number of amplitudes in ccsd      :      2555



          CCS CALC. - NO WAVEFUNCTION OPTIMIZATION
   

 *******************************************************************
 *                                                                 *
 *<<<<<<<<<<<<< OUTPUT FROM COUPLED CLUSTER RESPONSE  >>>>>>>>>>>>>*
 *                                                                 *
 *******************************************************************



                         +-------------------------------+
                         ! Coupled Cluster model is: CCS !
                         +-------------------------------+

  
     

   *******************************************************************
   *                                                                 *
   *<<<<<<<<   OUTPUT FROM PROPERTY AND SYMMETRY ANALYSIS   >>>>>>>>>*
   *                                                                 *
   *******************************************************************



                         +-------------------------------+
                         ! REQUESTED PROPERTY OPERATORS: !
                         +-------------------------------+

             Index   Oper. Label  Symmetry  Transp.  PDBS  Atom
             --------------------------------------------------
                1     HAM0            1        1      T      0
                2     XDIPLEN         1        1      F      0
                3     XZTHETA         1        1      F      0
                4     YANGMOM         1       -1      F      0
                5     ZDIPLEN         1        1      F      0
             --------------------------------------------------




                         +-------------------------------+
                         ! REQUESTED EXPECTATION VALUES: !
                         +-------------------------------+

                       Index   Oper. Label  Symmetry
                       -----------------------------
                       -----------------------------




                       +------------------------------------+
                       ! REQUESTED EFFECTIVE FOCK MATRICES: !
                       +------------------------------------+

                       Index   Oper. Label  Symmetry
                       -----------------------------
                       -----------------------------




                       +-----------------------------------+
                       ! REQUESTED FIRST ORDER XI VECTORS: !
                       +-----------------------------------+

             Index   Oper. Label  relaxed  Sym.     Frequency
             --------------------------------------------------
                1      XDIPLEN        F     1      0.000000D+00
                2      XZTHETA        F     1      0.000000D+00
                3      YANGMOM        F     1      0.000000D+00
                4      ZDIPLEN        F     1      0.000000D+00
             --------------------------------------------------




                        +----------------------------------+
                        ! REQUESTED FIRST ORDER T VECTORS: !
                        +----------------------------------+

             Index   Oper. Label  relaxed  Sym.     Frequency
             --------------------------------------------------
                1      XDIPLEN        F     1     -6.562487D-02
                2      XDIPLEN        F     1     -4.282270D-02
                3      XDIPLEN        F     1      0.000000D+00
                4      XDIPLEN        F     1      4.282270D-02
                5      XDIPLEN        F     1      6.562487D-02
                6      XZTHETA        F     1     -6.562487D-02
                7      XZTHETA        F     1     -4.282270D-02
                8      XZTHETA        F     1      0.000000D+00
                9      XZTHETA        F     1      4.282270D-02
               10      XZTHETA        F     1      6.562487D-02
               11      YANGMOM        F     1     -6.562487D-02
               12      YANGMOM        F     1     -4.282270D-02
               13      YANGMOM        F     1      0.000000D+00
               14      YANGMOM        F     1      4.282270D-02
               15      YANGMOM        F     1      6.562487D-02
               16      ZDIPLEN        F     1     -6.562487D-02
               17      ZDIPLEN        F     1     -4.282270D-02
               18      ZDIPLEN        F     1      0.000000D+00
               19      ZDIPLEN        F     1      4.282270D-02
               20      ZDIPLEN        F     1      6.562487D-02
             --------------------------------------------------




                  +---------------------------------------------+
                  ! REQUESTED FIRST-ORDER RIGHT CAUCHY VECTORS: !
                  +---------------------------------------------+

               Index   Oper. Label  Symmetry  Cauchy Order
               --------------------------------------------------
                  1      XDIPLEN     1      1
                  2      XZTHETA     1      1
                  3      YANGMOM     1      1
                  4      ZDIPLEN     1      1
                  5      XDIPLEN     1      2
                  6      XZTHETA     1      2
                  7      YANGMOM     1      2
                  8      ZDIPLEN     1      2
                  9      XDIPLEN     1      3
                 10      XZTHETA     1      3
                 11      YANGMOM     1      3
                 12      ZDIPLEN     1      3
                 13      XDIPLEN     1      4
                 14      XZTHETA     1      4
                 15      YANGMOM     1      4
                 16      ZDIPLEN     1      4
                 17      XDIPLEN     1      5
                 18      XZTHETA     1      5
                 19      YANGMOM     1      5
                 20      ZDIPLEN     1      5
                 21      XDIPLEN     1      6
                 22      XZTHETA     1      6
                 23      YANGMOM     1      6
                 24      ZDIPLEN     1      6
                 25      XDIPLEN     1      7
                 26      XZTHETA     1      7
                 27      YANGMOM     1      7
                 28      ZDIPLEN     1      7
               --------------------------------------------------


      

    *******************************************************************
    *          SOLVING COUPLED CLUSTER RESPONSE EQUATIONS             *
    *******************************************************************



 
 +======================================================================+
 !                     RHS & ETA VECTORS TO COMPUTE:                    !
 +======================================================================+
 | TYPE | # VEC. |  NEEDED FOR:                                         |
 +----------------------------------------------------------------------+
 |  O1  |    4   |  first-order amplitude equations                     |
 +======================================================================+



 +======================================================================+
 !                       LINEAR EQUATIONS TO SOLVE:                     !
 +======================================================================+
 | TYPE | # VEC. |  EQUATION:                                           |
 +----------------------------------------------------------------------+
 |  R1  |   20   |  first-order amplitude response                      |
 |  RC  |   28   |  first-order right Cauchy vectors                    |
 +======================================================================+



 +======================================================================+
 !                F MATRIX TRANSFORMATIONS TO COMPUTE:                  !
 +======================================================================+
 | TYPE | # VEC. |  TRANSFORMED:                                        |
 +----------------------------------------------------------------------+
 |  F1  |   20   |  first-order amplitude response (R1) vector          |
 +======================================================================+




 -------------------------------------------------------------------
 |          OUTPUT FROM AMPLITUDE RHS VECTOR SECTION               |
 -------------------------------------------------------------------

@ WARNING: ETA1 VECTOR FOR XDIPLEN ( F, 0.00000D+00) IS NOT AVAILABLE.
@ WARNING: ETA1 VECTOR FOR XZTHETA ( F, 0.00000D+00) IS NOT AVAILABLE.
@ WARNING: ETA1 VECTOR FOR YANGMOM ( F, 0.00000D+00) IS NOT AVAILABLE.
@ WARNING: ETA1 VECTOR FOR ZDIPLEN ( F, 0.00000D+00) IS NOT AVAILABLE.


   For the requested  4 1th.-order amplitude rhs vectors "O1 ".
         -   0 D matrix transformations 
         -   0 C matrix transformations 
         -   0 B matrix transformations 
         -   0 C{O} matrix transformations 
         -   0 B{O} matrix transformations 
         -   0 A{O} matrix transformations 
         -   4Xi{O} vector calculations    
   will be performed.


 RPA: call cceq_str
     R1  start vector nr.  1 of symmetry  1 generated from gradient
     R1  start vector nr.  2 of symmetry  1 generated from gradient
     R1  start vector nr.  3 of symmetry  1 generated from gradient
     R1  start vector nr.  4 of symmetry  1 generated from gradient
     R1  start vector nr.  5 of symmetry  1 generated from gradient
     R1  start vector nr.  6 of symmetry  1 generated from gradient
     R1  start vector nr.  7 of symmetry  1 generated from gradient
     R1  start vector nr.  8 of symmetry  1 generated from gradient
     R1  start vector nr.  9 of symmetry  1 generated from gradient
     R1  start vector nr. 10 of symmetry  1 generated from gradient
     R1  start vector nr. 11 of symmetry  1 generated from gradient
     R1  start vector nr. 12 of symmetry  1 generated from gradient
     R1  start vector nr. 13 of symmetry  1 generated from gradient
     R1  start vector nr. 14 of symmetry  1 generated from gradient
     R1  start vector nr. 15 of symmetry  1 generated from gradient
     R1  start vector nr. 16 of symmetry  1 generated from gradient
     R1  start vector nr. 17 of symmetry  1 generated from gradient
     R1  start vector nr. 18 of symmetry  1 generated from gradient
     R1  start vector nr. 19 of symmetry  1 generated from gradient
     R1  start vector nr. 20 of symmetry  1 generated from gradient
 RPA: exit cceq_str



 >>>>> COUPLED CLUSTER RESPONSE SOLVER <<<<<

    Iter  #Vectors  time (min)   residual
    --------------------------------------
      1      19         0.00     0.23E+00
      2      11         0.00     0.21E-01
      3      19         0.00     0.18E-02
      4       5         0.00     0.14E-05
      5       5         0.00     0.62E-08
      6       5         0.00     0.13E-09
      7       5         0.00     0.17E-11
      8       1         0.00     0.13E-14
    --------------------------------------
    converged in  8 iterations
    threshold:    0.10E-11


         Routine          Time (min)
         ---------------------------
         CC_TRDRV            0.01
         CCRED               0.00
         CCNEX               0.00
         ---------------------------
         Total time          0.01


 >>>> Total CPU  time used in CCEQ_SOLV:   0.73 seconds
 >>>> Total wall time used in CCEQ_SOLV:   0.74 seconds


 >>>>>>>>>>>>>>>>>>>>> <<<<<<<<<<<<<<<<<<<<<

 RPA: call cceq_str
     RC  start vector nr.  1 of symmetry  1 generated from gradient
     RC  start vector nr.  2 of symmetry  1 generated from gradient
     RC  start vector nr.  3 of symmetry  1 generated from gradient
     RC  start vector nr.  4 of symmetry  1 generated from gradient
 RPA: exit cceq_str



 >>>>> COUPLED CLUSTER RESPONSE SOLVER <<<<<

    Iter  #Vectors  time (min)   residual
    --------------------------------------
      1       4         0.00     0.15E+01
      2       4         0.00     0.91E-01
      3       4         0.00     0.62E-02
      4       4         0.00     0.65E-03
      5       4         0.00     0.10E-03
      6       3         0.00     0.12E-04
      7       1         0.00     0.42E-06
      8       1         0.00     0.26E-07
      9       1         0.00     0.34E-08
     10       1         0.00     0.17E-09
     11       1         0.00     0.17E-10
     12       1         0.00     0.42E-11
     13       1         0.00     0.27E-12
    --------------------------------------
    converged in 13 iterations
    threshold:    0.10E-11


         Routine          Time (min)
         ---------------------------
         CC_TRDRV            0.02
         CCRED               0.00
         CCNEX               0.00
         ---------------------------
         Total time          0.02


 >>>> Total CPU  time used in CCEQ_SOLV:   0.99 seconds
 >>>> Total wall time used in CCEQ_SOLV:   1.00 seconds


 >>>>>>>>>>>>>>>>>>>>> <<<<<<<<<<<<<<<<<<<<<

 RPA: call cceq_str
     RC  start vector nr.  5 of symmetry  1 generated from gradient
     RC  start vector nr.  6 of symmetry  1 generated from gradient
     RC  start vector nr.  7 of symmetry  1 generated from gradient
     RC  start vector nr.  8 of symmetry  1 generated from gradient
 RPA: exit cceq_str



 >>>>> COUPLED CLUSTER RESPONSE SOLVER <<<<<

    Iter  #Vectors  time (min)   residual
    --------------------------------------
      1       4         0.00     0.29E+00
      2       4         0.00     0.30E-01
      3       4         0.00     0.25E-02
      4       4         0.00     0.29E-03
      5       4         0.00     0.31E-04
      6       4         0.00     0.38E-05
      7       1         0.00     0.19E-06
      8       1         0.00     0.12E-07
      9       1         0.00     0.13E-08
     10       1         0.00     0.99E-10
     11       1         0.00     0.45E-11
     12       1         0.00     0.28E-12
    --------------------------------------
    converged in 12 iterations
    threshold:    0.10E-11


         Routine          Time (min)
         ---------------------------
         CC_TRDRV            0.02
         CCRED               0.00
         CCNEX               0.00
         ---------------------------
         Total time          0.02


 >>>> Total CPU  time used in CCEQ_SOLV:   0.92 seconds
 >>>> Total wall time used in CCEQ_SOLV:   0.93 seconds


 >>>>>>>>>>>>>>>>>>>>> <<<<<<<<<<<<<<<<<<<<<

 RPA: call cceq_str
     RC  start vector nr.  9 of symmetry  1 generated from gradient
     RC  start vector nr. 10 of symmetry  1 generated from gradient
     RC  start vector nr. 11 of symmetry  1 generated from gradient
     RC  start vector nr. 12 of symmetry  1 generated from gradient
 RPA: exit cceq_str



 >>>>> COUPLED CLUSTER RESPONSE SOLVER <<<<<

    Iter  #Vectors  time (min)   residual
    --------------------------------------
      1       4         0.00     0.11E+00
      2       4         0.00     0.81E-02
      3       4         0.00     0.10E-02
      4       4         0.00     0.10E-03
      5       4         0.00     0.94E-05
      6       4         0.00     0.10E-05
      7       1         0.00     0.47E-07
      8       1         0.00     0.26E-08
      9       1         0.00     0.30E-09
     10       1         0.00     0.32E-10
     11       1         0.00     0.17E-11
     12       1         0.00     0.11E-12
    --------------------------------------
    converged in 12 iterations
    threshold:    0.10E-11


         Routine          Time (min)
         ---------------------------
         CC_TRDRV            0.02
         CCRED               0.00
         CCNEX               0.00
         ---------------------------
         Total time          0.02


 >>>> Total CPU  time used in CCEQ_SOLV:   0.92 seconds
 >>>> Total wall time used in CCEQ_SOLV:   0.93 seconds


 >>>>>>>>>>>>>>>>>>>>> <<<<<<<<<<<<<<<<<<<<<

 RPA: call cceq_str
     RC  start vector nr. 13 of symmetry  1 generated from gradient
     RC  start vector nr. 14 of symmetry  1 generated from gradient
     RC  start vector nr. 15 of symmetry  1 generated from gradient
     RC  start vector nr. 16 of symmetry  1 generated from gradient
 RPA: exit cceq_str



 >>>>> COUPLED CLUSTER RESPONSE SOLVER <<<<<

    Iter  #Vectors  time (min)   residual
    --------------------------------------
      1       4         0.00     0.29E-01
      2       4         0.00     0.27E-02
      3       4         0.00     0.42E-03
      4       4         0.00     0.39E-04
      5       4         0.00     0.41E-05
      6       4         0.00     0.52E-06
      7       1         0.00     0.27E-07
      8       1         0.00     0.17E-08
      9       1         0.00     0.14E-09
     10       1         0.00     0.16E-10
     11       1         0.00     0.59E-12
    --------------------------------------
    converged in 11 iterations
    threshold:    0.10E-11


         Routine          Time (min)
         ---------------------------
         CC_TRDRV            0.01
         CCRED               0.00
         CCNEX               0.00
         ---------------------------
         Total time          0.01


 >>>> Total CPU  time used in CCEQ_SOLV:   0.85 seconds
 >>>> Total wall time used in CCEQ_SOLV:   0.88 seconds


 >>>>>>>>>>>>>>>>>>>>> <<<<<<<<<<<<<<<<<<<<<

 RPA: call cceq_str
     RC  start vector nr. 17 of symmetry  1 generated from gradient
     RC  start vector nr. 18 of symmetry  1 generated from gradient
     RC  start vector nr. 19 of symmetry  1 generated from gradient
     RC  start vector nr. 20 of symmetry  1 generated from gradient
 RPA: exit cceq_str



 >>>>> COUPLED CLUSTER RESPONSE SOLVER <<<<<

    Iter  #Vectors  time (min)   residual
    --------------------------------------
      1       4         0.00     0.91E-02
      2       4         0.00     0.11E-02
      3       4         0.00     0.17E-03
      4       4         0.00     0.16E-04
      5       4         0.00     0.18E-05
      6       4         0.00     0.21E-06
      7       1         0.00     0.11E-07
      8       1         0.00     0.70E-09
      9       1         0.00     0.49E-10
     10       1         0.00     0.60E-11
     11       1         0.00     0.21E-12
    --------------------------------------
    converged in 11 iterations
    threshold:    0.10E-11


         Routine          Time (min)
         ---------------------------
         CC_TRDRV            0.01
         CCRED               0.00
         CCNEX               0.00
         ---------------------------
         Total time          0.01


 >>>> Total CPU  time used in CCEQ_SOLV:   0.85 seconds
 >>>> Total wall time used in CCEQ_SOLV:   0.86 seconds


 >>>>>>>>>>>>>>>>>>>>> <<<<<<<<<<<<<<<<<<<<<

 RPA: call cceq_str
     RC  start vector nr. 21 of symmetry  1 generated from gradient
     RC  start vector nr. 22 of symmetry  1 generated from gradient
     RC  start vector nr. 23 of symmetry  1 generated from gradient
     RC  start vector nr. 24 of symmetry  1 generated from gradient
 RPA: exit cceq_str



 >>>>> COUPLED CLUSTER RESPONSE SOLVER <<<<<

    Iter  #Vectors  time (min)   residual
    --------------------------------------
      1       4         0.00     0.38E-02
      2       4         0.00     0.46E-03
      3       4         0.00     0.73E-04
      4       4         0.00     0.68E-05
      5       4         0.00     0.77E-06
      6       4         0.00     0.79E-07
      7       1         0.00     0.43E-08
      8       1         0.00     0.28E-09
      9       1         0.00     0.18E-10
     10       1         0.00     0.23E-11
     11       1         0.00     0.75E-13
    --------------------------------------
    converged in 11 iterations
    threshold:    0.10E-11


         Routine          Time (min)
         ---------------------------
         CC_TRDRV            0.01
         CCRED               0.00
         CCNEX               0.00
         ---------------------------
         Total time          0.01


 >>>> Total CPU  time used in CCEQ_SOLV:   0.85 seconds
 >>>> Total wall time used in CCEQ_SOLV:   0.86 seconds


 >>>>>>>>>>>>>>>>>>>>> <<<<<<<<<<<<<<<<<<<<<

 RPA: call cceq_str
     RC  start vector nr. 25 of symmetry  1 generated from gradient
     RC  start vector nr. 26 of symmetry  1 generated from gradient
     RC  start vector nr. 27 of symmetry  1 generated from gradient
     RC  start vector nr. 28 of symmetry  1 generated from gradient
 RPA: exit cceq_str



 >>>>> COUPLED CLUSTER RESPONSE SOLVER <<<<<

    Iter  #Vectors  time (min)   residual
    --------------------------------------
      1       4         0.00     0.16E-02
      2       4         0.00     0.20E-03
      3       4         0.00     0.31E-04
      4       4         0.00     0.29E-05
      5       4         0.00     0.32E-06
      6       4         0.00     0.31E-07
      7       1         0.00     0.18E-08
      8       1         0.00     0.12E-09
      9       1         0.00     0.70E-11
     10       1         0.00     0.92E-12
    --------------------------------------
    converged in 10 iterations
    threshold:    0.10E-11


         Routine          Time (min)
         ---------------------------
         CC_TRDRV            0.01
         CCRED               0.00
         CCNEX               0.00
         ---------------------------
         Total time          0.01


 >>>> Total CPU  time used in CCEQ_SOLV:   0.77 seconds
 >>>> Total wall time used in CCEQ_SOLV:   0.78 seconds


 >>>>>>>>>>>>>>>>>>>>> <<<<<<<<<<<<<<<<<<<<<


 Solution of CC response equations completed.

   

 *******************************************************************
 *                                                                 *
 *<<<<<<<<<< OUTPUT FROM COUPLED CLUSTER LINEAR RESPONSE >>>>>>>>>>*
 *                                                                 *
 *******************************************************************



              +------------------------------------------------------+
              ! Calculation of CCS        linear response properties !
              +------------------------------------------------------+



 CCS   linear response properties in atomic units:
 -------------------------------------------------

 <<ZDIPLEN ,ZDIPLEN >>( 0.042823) =    -4.61250816
 <<ZDIPLEN ,ZDIPLEN >>( 0.065625) =    -4.63186816
 <<ZDIPLEN ,ZDIPLEN >>(-0.042823) =    -4.61250816
 <<ZDIPLEN ,ZDIPLEN >>(-0.065625) =    -4.63186816
 <<XDIPLEN ,XDIPLEN >>( 0.042823) =    -1.97385107
 <<XDIPLEN ,XDIPLEN >>( 0.065625) =    -1.97765102
 <<XDIPLEN ,XDIPLEN >>(-0.042823) =    -1.97385107
 <<XDIPLEN ,XDIPLEN >>(-0.065625) =    -1.97765102
 <<XZTHETA ,YANGMOM >>( 0.042823) =    -0.26158109
 <<XZTHETA ,YANGMOM >>( 0.065625) =    -0.40125159
 <<XZTHETA ,YANGMOM >>(-0.042823) =     0.26158109
 <<XZTHETA ,YANGMOM >>(-0.065625) =     0.40125159
 <<YANGMOM ,XZTHETA >>( 0.042823) =     0.26158109
 <<YANGMOM ,XZTHETA >>( 0.065625) =     0.40125159
 <<YANGMOM ,XZTHETA >>(-0.042823) =    -0.26158109
 <<YANGMOM ,XZTHETA >>(-0.065625) =    -0.40125159

 *******************************************************************
 *                                                                 *
 *     COUPLED CLUSTER LINEAR RESPONSE DISPERSION COEFFICIENTS     *
 *                                                                 *
 *******************************************************************



   For the requested  4 Cauchy moments
         -  20 F matrix transformations with Cauchy vectors
         -   4 ETA and XKSI vector calculations 
   will be performed.




             +-------------------------------------------------------+
             !         FINAL CCS RESULTS FOR DISPERSION COEFFICIENTS !
             +-------------------------------------------------------+

    The dispersion coefficients D_AB(n) for n>0 are defined through the expansion:
                          alpha(w) = sum_n w^n D_AB(n) 

    D_AB(-4) corresponds to the S_AB(+2) Cauchy moment,
    D_AB(-2) corresponds to the S_AB( 0) Cauchy moment.

    Note that the sign of dispersion coefficients is here defined opposite to
    the sign of the linear response functions!


 A operator   B operator     n        D_AB
----------------------------------------------------------------------------------------

   ZDIPLEN     ZDIPLEN      -4        388.073697924    
                            -2        9.26443567252    (RPA RESULT:  -8.37564249255    )
                             0        4.59830290737    
                             2        7.71161829440    
                             4        18.8857541496    
                             6        48.7740988871    

   XDIPLEN     XDIPLEN      -4        306.847865821    
                            -2        9.49425813601    (RPA RESULT:  -8.84600714425    )
                             0        1.97108007245    
                             2        1.50041957458    
                             4        5.75974150861    
                             6        29.1464990826    

   XZTHETA     YANGMOM       1        6.10416407935    
                             3        2.33836943041    
                             5        4.62427838630    
                             7        21.0289145274    

   YANGMOM     XZTHETA       1       -6.10416407935    
                             3       -2.33836943041    
                             5       -4.62427838630    
                             7       -21.0289145274    

----------------------------------------------------------------------------------------




 CCR12 ANSATZ =   0

 CCR12 APPROX =   0

   

 *******************************************************************
 *                                                                 *
 *<<<<<<<<<<                                             >>>>>>>>>>*
 *<<<<<<<<<< OUTPUT FROM COUPLED CLUSTER ENERGY PROGRAM  >>>>>>>>>>*
 *<<<<<<<<<<                                             >>>>>>>>>>*
 *                                                                 *
 *******************************************************************


             The Direct Coupled Cluster Energy Program
             -----------------------------------------


          Number of t1 amplitudes                 :        70
          Number of t2 amplitudes                 :      2485
          Total number of amplitudes in ccsd      :      2555

 Iter.  1: Coupled cluster MP2   energy :    -100.1936625719329328
 Iter.  1: Coupled cluster CCSD  energy :    -100.1943060627135935
 Iter.  2: Coupled cluster CCSD  energy :    -100.1971585955470658
 Iter.  3: Coupled cluster CCSD  energy :    -100.1977954467534460
 Iter.  4: Coupled cluster CCSD  energy :    -100.1977970730130636
 Iter.  5: Coupled cluster CCSD  energy :    -100.1977935672087767
 Iter.  6: Coupled cluster CCSD  energy :    -100.1977918794489000
 Iter.  7: Coupled cluster CCSD  energy :    -100.1977908485682036
 Iter.  8: Coupled cluster CCSD  energy :    -100.1977909127266315
 Iter.  9: Coupled cluster CCSD  energy :    -100.1977909096252546
 Iter. 10: Coupled cluster CCSD  energy :    -100.1977909077536140
 Iter. 11: Coupled cluster CCSD  energy :    -100.1977909069589572
 Iter. 12: Coupled cluster CCSD  energy :    -100.1977909068217798
 Iter. 13: Coupled cluster CCSD  energy :    -100.1977909068227035
 Iter. 14: Coupled cluster CCSD  energy :    -100.1977909068143049
 Iter. 15: Coupled cluster CCSD  energy :    -100.1977909068154844
 Iter. 16: Coupled cluster CCSD  energy :    -100.1977909068169197
 Iter. 17: Coupled cluster CCSD  energy :    -100.1977909068172323
 Iter. 18: Coupled cluster CCSD  energy :    -100.1977909068173744
 Iter. 19: Coupled cluster CCSD  energy :    -100.1977909068173460
 Iter. 20: Coupled cluster CCSD  energy :    -100.1977909068173744
 Iter. 21: Coupled cluster CCSD  energy :    -100.1977909068173744

 CCSD  energy converged to within   0.10D-13 is         -100.197790906817
 Final 2-norm of the CC vector function:  1.85632555D-14





             +-------------------------------------------------------+
             ! Final results from the Coupled Cluster energy program !
             +-------------------------------------------------------+



            Total SCF   energy:                  -100.0089198959

            Total MP2   energy:                  -100.1936625719

            Total CCSD  energy:                  -100.1977909068




                   +--------------------------------------------+
                   ! Calculating singlet intermediates for CCLR !
                   +--------------------------------------------+



            E-intermediates calculated 
            Fock-intermediate calculated 
            Gamma-intermediate calculated 
            BF-intermediate calculated 
            C-intermediate calculated 
            D-intermediate calculated 


   

 *******************************************************************
 *                                                                 *
 *<<<<<<<<<<<<< OUTPUT FROM COUPLED CLUSTER RESPONSE  >>>>>>>>>>>>>*
 *                                                                 *
 *******************************************************************



                         +--------------------------------+
                         ! Coupled Cluster model is: CCSD !
                         +--------------------------------+

 RPA: call cceq_str
     Start vector generated from gradient
 RPA: exit cceq_str



 >>>>> COUPLED CLUSTER RESPONSE SOLVER <<<<<

    Iter  #Vectors  time (min)   residual
    --------------------------------------
      1       1         0.00     0.48E+00
      2       1         0.00     0.11E+00
      3       1         0.00     0.22E-01
      4       1         0.00     0.50E-02
      5       1         0.00     0.10E-02
      6       1         0.00     0.29E-03
      7       1         0.00     0.61E-04
      8       1         0.00     0.13E-04
      9       1         0.00     0.20E-05
     10       1         0.00     0.32E-06
     11       1         0.00     0.46E-07
     12       1         0.00     0.74E-08
     13       1         0.00     0.10E-08
     14       1         0.00     0.18E-09
     15       1         0.00     0.31E-10
     16       1         0.00     0.56E-11
     17       1         0.00     0.91E-12
    --------------------------------------
    converged in 17 iterations
    threshold:    0.10E-11


         Routine          Time (min)
         ---------------------------
         CC_TRDRV            0.03
         CCRED               0.00
         CCNEX               0.00
         ---------------------------
         Total time          0.03


 >>>> Total CPU  time used in CCEQ_SOLV:   1.54 seconds
 >>>> Total wall time used in CCEQ_SOLV:   1.62 seconds


 >>>>>>>>>>>>>>>>>>>>> <<<<<<<<<<<<<<<<<<<<<

  
     

   *******************************************************************
   *                                                                 *
   *<<<<<<<<   OUTPUT FROM PROPERTY AND SYMMETRY ANALYSIS   >>>>>>>>>*
   *                                                                 *
   *******************************************************************



                         +-------------------------------+
                         ! REQUESTED PROPERTY OPERATORS: !
                         +-------------------------------+

             Index   Oper. Label  Symmetry  Transp.  PDBS  Atom
             --------------------------------------------------
                1     HAM0            1        1      T      0
                2     XDIPLEN         1        1      F      0
                3     XZTHETA         1        1      F      0
                4     YANGMOM         1       -1      F      0
                5     ZDIPLEN         1        1      F      0
             --------------------------------------------------




                         +-------------------------------+
                         ! REQUESTED EXPECTATION VALUES: !
                         +-------------------------------+

                       Index   Oper. Label  Symmetry
                       -----------------------------
                       -----------------------------




                       +------------------------------------+
                       ! REQUESTED EFFECTIVE FOCK MATRICES: !
                       +------------------------------------+

                       Index   Oper. Label  Symmetry
                       -----------------------------
                       -----------------------------




                       +-----------------------------------+
                       ! REQUESTED FIRST ORDER XI VECTORS: !
                       +-----------------------------------+

             Index   Oper. Label  relaxed  Sym.     Frequency
             --------------------------------------------------
                1      XDIPLEN        F     1      0.000000D+00
                2      XZTHETA        F     1      0.000000D+00
                3      YANGMOM        F     1      0.000000D+00
                4      ZDIPLEN        F     1      0.000000D+00
             --------------------------------------------------




                        +----------------------------------+
                        ! REQUESTED FIRST ORDER T VECTORS: !
                        +----------------------------------+

             Index   Oper. Label  relaxed  Sym.     Frequency
             --------------------------------------------------
                1      XDIPLEN        F     1     -6.562487D-02
                2      XDIPLEN        F     1     -4.282270D-02
                3      XDIPLEN        F     1      0.000000D+00
                4      XDIPLEN        F     1      4.282270D-02
                5      XDIPLEN        F     1      6.562487D-02
                6      XZTHETA        F     1     -6.562487D-02
                7      XZTHETA        F     1     -4.282270D-02
                8      XZTHETA        F     1      0.000000D+00
                9      XZTHETA        F     1      4.282270D-02
               10      XZTHETA        F     1      6.562487D-02
               11      YANGMOM        F     1     -6.562487D-02
               12      YANGMOM        F     1     -4.282270D-02
               13      YANGMOM        F     1      0.000000D+00
               14      YANGMOM        F     1      4.282270D-02
               15      YANGMOM        F     1      6.562487D-02
               16      ZDIPLEN        F     1     -6.562487D-02
               17      ZDIPLEN        F     1     -4.282270D-02
               18      ZDIPLEN        F     1      0.000000D+00
               19      ZDIPLEN        F     1      4.282270D-02
               20      ZDIPLEN        F     1      6.562487D-02
             --------------------------------------------------




                  +---------------------------------------------+
                  ! REQUESTED FIRST-ORDER RIGHT CAUCHY VECTORS: !
                  +---------------------------------------------+

               Index   Oper. Label  Symmetry  Cauchy Order
               --------------------------------------------------
                  1      XDIPLEN     1      1
                  2      XZTHETA     1      1
                  3      YANGMOM     1      1
                  4      ZDIPLEN     1      1
                  5      XDIPLEN     1      2
                  6      XZTHETA     1      2
                  7      YANGMOM     1      2
                  8      ZDIPLEN     1      2
                  9      XDIPLEN     1      3
                 10      XZTHETA     1      3
                 11      YANGMOM     1      3
                 12      ZDIPLEN     1      3
                 13      XDIPLEN     1      4
                 14      XZTHETA     1      4
                 15      YANGMOM     1      4
                 16      ZDIPLEN     1      4
                 17      XDIPLEN     1      5
                 18      XZTHETA     1      5
                 19      YANGMOM     1      5
                 20      ZDIPLEN     1      5
                 21      XDIPLEN     1      6
                 22      XZTHETA     1      6
                 23      YANGMOM     1      6
                 24      ZDIPLEN     1      6
                 25      XDIPLEN     1      7
                 26      XZTHETA     1      7
                 27      YANGMOM     1      7
                 28      ZDIPLEN     1      7
               --------------------------------------------------


      

    *******************************************************************
    *          SOLVING COUPLED CLUSTER RESPONSE EQUATIONS             *
    *******************************************************************



 
 +======================================================================+
 !                     RHS & ETA VECTORS TO COMPUTE:                    !
 +======================================================================+
 | TYPE | # VEC. |  NEEDED FOR:                                         |
 +----------------------------------------------------------------------+
 |  O1  |    4   |  first-order amplitude equations                     |
 +======================================================================+



 +======================================================================+
 !                       LINEAR EQUATIONS TO SOLVE:                     !
 +======================================================================+
 | TYPE | # VEC. |  EQUATION:                                           |
 +----------------------------------------------------------------------+
 |  R1  |   20   |  first-order amplitude response                      |
 |  RC  |   28   |  first-order right Cauchy vectors                    |
 +======================================================================+



 +======================================================================+
 !                F MATRIX TRANSFORMATIONS TO COMPUTE:                  !
 +======================================================================+
 | TYPE | # VEC. |  TRANSFORMED:                                        |
 +----------------------------------------------------------------------+
 |  F1  |   20   |  first-order amplitude response (R1) vector          |
 +======================================================================+




 -------------------------------------------------------------------
 |          OUTPUT FROM AMPLITUDE RHS VECTOR SECTION               |
 -------------------------------------------------------------------

@ WARNING: ETA1 VECTOR FOR XDIPLEN ( F, 0.00000D+00) IS NOT AVAILABLE.
@ WARNING: ETA1 VECTOR FOR XZTHETA ( F, 0.00000D+00) IS NOT AVAILABLE.
@ WARNING: ETA1 VECTOR FOR YANGMOM ( F, 0.00000D+00) IS NOT AVAILABLE.
@ WARNING: ETA1 VECTOR FOR ZDIPLEN ( F, 0.00000D+00) IS NOT AVAILABLE.


   For the requested  4 1th.-order amplitude rhs vectors "O1 ".
         -   0 D matrix transformations 
         -   0 C matrix transformations 
         -   0 B matrix transformations 
         -   0 C{O} matrix transformations 
         -   0 B{O} matrix transformations 
         -   0 A{O} matrix transformations 
         -   4Xi{O} vector calculations    
   will be performed.


 RPA: call cceq_str
     R1  start vector nr.  1 of symmetry  1 generated from gradient
     R1  start vector nr.  2 of symmetry  1 generated from gradient
     R1  start vector nr.  3 of symmetry  1 generated from gradient
     R1  start vector nr.  4 of symmetry  1 generated from gradient
     R1  start vector nr.  5 of symmetry  1 generated from gradient
     R1  start vector nr.  6 of symmetry  1 generated from gradient
     R1  start vector nr.  7 of symmetry  1 generated from gradient
     R1  start vector nr.  8 of symmetry  1 generated from gradient
     R1  start vector nr.  9 of symmetry  1 generated from gradient
     R1  start vector nr. 10 of symmetry  1 generated from gradient
     R1  start vector nr. 11 of symmetry  1 generated from gradient
     R1  start vector nr. 12 of symmetry  1 generated from gradient
     R1  start vector nr. 13 of symmetry  1 generated from gradient
     R1  start vector nr. 14 of symmetry  1 generated from gradient
     R1  start vector nr. 15 of symmetry  1 generated from gradient
     R1  start vector nr. 16 of symmetry  1 generated from gradient
     R1  start vector nr. 17 of symmetry  1 generated from gradient
     R1  start vector nr. 18 of symmetry  1 generated from gradient
     R1  start vector nr. 19 of symmetry  1 generated from gradient
     R1  start vector nr. 20 of symmetry  1 generated from gradient
 RPA: exit cceq_str



 >>>>> COUPLED CLUSTER RESPONSE SOLVER <<<<<

    Iter  #Vectors  time (min)   residual
    --------------------------------------
      1      20         0.01     0.45E+00
      2      20         0.01     0.69E-01
      3      20         0.01     0.16E-01
      4      20         0.01     0.29E-02
      5      20         0.01     0.48E-03
      6      20         0.01     0.72E-04
      7      20         0.01     0.10E-04
      8      20         0.01     0.15E-05
  NREDH :          200
  MXLRV :          199

 ATTENTION!!!! 

 All trial and transformed vectors are skipped and the iterative procedure 
 is continued from the current optimal solution 

 Notice: You asked for it by setting a low MXLRV.

 Vector nr.  1 of symmetry  1 found on file - RESTART SUCCESS
 Start vector is a CCSD      R1  vector
 Vector nr.  2 of symmetry  1 found on file - RESTART SUCCESS
 Start vector is a CCSD      R1  vector
 Vector nr.  3 of symmetry  1 found on file - RESTART SUCCESS
 Start vector is a CCSD      R1  vector
 Vector nr.  4 of symmetry  1 found on file - RESTART SUCCESS
 Start vector is a CCSD      R1  vector
 Vector nr.  5 of symmetry  1 found on file - RESTART SUCCESS
 Start vector is a CCSD      R1  vector
 Vector nr.  6 of symmetry  1 found on file - RESTART SUCCESS
 Start vector is a CCSD      R1  vector
 Vector nr.  7 of symmetry  1 found on file - RESTART SUCCESS
 Start vector is a CCSD      R1  vector
 Vector nr.  8 of symmetry  1 found on file - RESTART SUCCESS
 Start vector is a CCSD      R1  vector
 Vector nr.  9 of symmetry  1 found on file - RESTART SUCCESS
 Start vector is a CCSD      R1  vector
 Vector nr. 10 of symmetry  1 found on file - RESTART SUCCESS
 Start vector is a CCSD      R1  vector
 Vector nr. 11 of symmetry  1 found on file - RESTART SUCCESS
 Start vector is a CCSD      R1  vector
 Vector nr. 12 of symmetry  1 found on file - RESTART SUCCESS
 Start vector is a CCSD      R1  vector
 Vector nr. 13 of symmetry  1 found on file - RESTART SUCCESS
 Start vector is a CCSD      R1  vector
 Vector nr. 14 of symmetry  1 found on file - RESTART SUCCESS
 Start vector is a CCSD      R1  vector
 Vector nr. 15 of symmetry  1 found on file - RESTART SUCCESS
 Start vector is a CCSD      R1  vector
 Vector nr. 16 of symmetry  1 found on file - RESTART SUCCESS
 Start vector is a CCSD      R1  vector
 Vector nr. 17 of symmetry  1 found on file - RESTART SUCCESS
 Start vector is a CCSD      R1  vector
 Vector nr. 18 of symmetry  1 found on file - RESTART SUCCESS
 Start vector is a CCSD      R1  vector
 Vector nr. 19 of symmetry  1 found on file - RESTART SUCCESS
 Start vector is a CCSD      R1  vector
 Vector nr. 20 of symmetry  1 found on file - RESTART SUCCESS
 Start vector is a CCSD      R1  vector
      9      20         0.01     0.19E-06
     10      20         0.01     0.19E-06
     11      20         0.01     0.40E-07
     12      20         0.01     0.49E-08
     13      20         0.01     0.74E-09
     14      20         0.01     0.11E-09
     15      14         0.01     0.14E-10
     16       5         0.00     0.20E-11
     17       3         0.00     0.36E-12
    --------------------------------------
    converged in 17 iterations
    threshold:    0.10E-11


         Routine          Time (min)
         ---------------------------
         CC_TRDRV            0.11
         CCRED               0.01
         CCNEX               0.02
         ---------------------------
         Total time          0.14


 >>>> Total CPU  time used in CCEQ_SOLV:   8.44 seconds
 >>>> Total wall time used in CCEQ_SOLV:   8.63 seconds


 >>>>>>>>>>>>>>>>>>>>> <<<<<<<<<<<<<<<<<<<<<

 RPA: call cceq_str
     RC  start vector nr.  1 of symmetry  1 generated from gradient
     RC  start vector nr.  2 of symmetry  1 generated from gradient
     RC  start vector nr.  3 of symmetry  1 generated from gradient
     RC  start vector nr.  4 of symmetry  1 generated from gradient
 RPA: exit cceq_str



 >>>>> COUPLED CLUSTER RESPONSE SOLVER <<<<<

    Iter  #Vectors  time (min)   residual
    --------------------------------------
      1       4         0.00     0.13E+01
      2       4         0.00     0.18E+00
      3       4         0.00     0.39E-01
      4       4         0.00     0.52E-02
      5       4         0.00     0.83E-03
      6       4         0.00     0.15E-03
      7       4         0.00     0.24E-04
      8       4         0.00     0.39E-05
      9       4         0.00     0.67E-06
     10       4         0.00     0.12E-06
     11       4         0.00     0.18E-07
     12       4         0.00     0.28E-08
     13       4         0.00     0.52E-09
     14       4         0.00     0.10E-09
     15       4         0.00     0.17E-10
     16       2         0.00     0.31E-11
     17       1         0.00     0.49E-12
    --------------------------------------
    converged in 17 iterations
    threshold:    0.10E-11


         Routine          Time (min)
         ---------------------------
         CC_TRDRV            0.04
         CCRED               0.00
         CCNEX               0.00
         ---------------------------
         Total time          0.04


 >>>> Total CPU  time used in CCEQ_SOLV:   2.45 seconds
 >>>> Total wall time used in CCEQ_SOLV:   2.68 seconds


 >>>>>>>>>>>>>>>>>>>>> <<<<<<<<<<<<<<<<<<<<<

 RPA: call cceq_str
     RC  start vector nr.  5 of symmetry  1 generated from gradient
     RC  start vector nr.  6 of symmetry  1 generated from gradient
     RC  start vector nr.  7 of symmetry  1 generated from gradient
     RC  start vector nr.  8 of symmetry  1 generated from gradient
 RPA: exit cceq_str



 >>>>> COUPLED CLUSTER RESPONSE SOLVER <<<<<

    Iter  #Vectors  time (min)   residual
    --------------------------------------
      1       4         0.00     0.53E+00
      2       4         0.00     0.14E+00
      3       4         0.00     0.19E-01
      4       4         0.00     0.29E-02
      5       4         0.00     0.36E-03
      6       4         0.00     0.53E-04
      7       4         0.00     0.82E-05
      8       4         0.00     0.14E-05
      9       4         0.00     0.24E-06
     10       4         0.00     0.39E-07
     11       4         0.00     0.64E-08
     12       4         0.00     0.10E-08
     13       4         0.00     0.19E-09
     14       4         0.00     0.35E-10
     15       2         0.00     0.58E-11
     16       1         0.00     0.99E-12
    --------------------------------------
    converged in 16 iterations
    threshold:    0.10E-11


         Routine          Time (min)
         ---------------------------
         CC_TRDRV            0.04
         CCRED               0.00
         CCNEX               0.00
         ---------------------------
         Total time          0.04


 >>>> Total CPU  time used in CCEQ_SOLV:   2.30 seconds
 >>>> Total wall time used in CCEQ_SOLV:   2.40 seconds


 >>>>>>>>>>>>>>>>>>>>> <<<<<<<<<<<<<<<<<<<<<

 RPA: call cceq_str
     RC  start vector nr.  9 of symmetry  1 generated from gradient
     RC  start vector nr. 10 of symmetry  1 generated from gradient
     RC  start vector nr. 11 of symmetry  1 generated from gradient
     RC  start vector nr. 12 of symmetry  1 generated from gradient
 RPA: exit cceq_str



 >>>>> COUPLED CLUSTER RESPONSE SOLVER <<<<<

    Iter  #Vectors  time (min)   residual
    --------------------------------------
      1       4         0.00     0.27E+00
      2       4         0.00     0.58E-01
      3       4         0.00     0.77E-02
      4       4         0.00     0.11E-02
      5       4         0.00     0.13E-03
      6       4         0.00     0.18E-04
      7       4         0.00     0.30E-05
      8       4         0.00     0.51E-06
      9       4         0.00     0.85E-07
     10       4         0.00     0.15E-07
     11       4         0.00     0.26E-08
     12       4         0.00     0.44E-09
     13       4         0.00     0.76E-10
     14       2         0.00     0.13E-10
     15       2         0.00     0.19E-11
     16       1         0.00     0.76E-12
    --------------------------------------
    converged in 16 iterations
    threshold:    0.10E-11


         Routine          Time (min)
         ---------------------------
         CC_TRDRV            0.04
         CCRED               0.00
         CCNEX               0.00
         ---------------------------
         Total time          0.04


 >>>> Total CPU  time used in CCEQ_SOLV:   2.26 seconds
 >>>> Total wall time used in CCEQ_SOLV:   2.49 seconds


 >>>>>>>>>>>>>>>>>>>>> <<<<<<<<<<<<<<<<<<<<<

 RPA: call cceq_str
     RC  start vector nr. 13 of symmetry  1 generated from gradient
     RC  start vector nr. 14 of symmetry  1 generated from gradient
     RC  start vector nr. 15 of symmetry  1 generated from gradient
     RC  start vector nr. 16 of symmetry  1 generated from gradient
 RPA: exit cceq_str



 >>>>> COUPLED CLUSTER RESPONSE SOLVER <<<<<

    Iter  #Vectors  time (min)   residual
    --------------------------------------
      1       4         0.00     0.70E-01
      2       4         0.00     0.12E-01
      3       4         0.00     0.16E-02
      4       4         0.00     0.23E-03
      5       4         0.00     0.35E-04
      6       4         0.00     0.57E-05
      7       4         0.00     0.12E-05
      8       4         0.00     0.20E-06
      9       4         0.00     0.32E-07
     10       4         0.00     0.57E-08
     11       4         0.00     0.11E-08
     12       4         0.00     0.19E-09
     13       4         0.00     0.30E-10
     14       2         0.00     0.48E-11
     15       1         0.00     0.80E-12
    --------------------------------------
    converged in 15 iterations
    threshold:    0.10E-11


         Routine          Time (min)
         ---------------------------
         CC_TRDRV            0.03
         CCRED               0.00
         CCNEX               0.00
         ---------------------------
         Total time          0.04


 >>>> Total CPU  time used in CCEQ_SOLV:   2.14 seconds
 >>>> Total wall time used in CCEQ_SOLV:   2.23 seconds


 >>>>>>>>>>>>>>>>>>>>> <<<<<<<<<<<<<<<<<<<<<

 RPA: call cceq_str
     RC  start vector nr. 17 of symmetry  1 generated from gradient
     RC  start vector nr. 18 of symmetry  1 generated from gradient
     RC  start vector nr. 19 of symmetry  1 generated from gradient
     RC  start vector nr. 20 of symmetry  1 generated from gradient
 RPA: exit cceq_str



 >>>>> COUPLED CLUSTER RESPONSE SOLVER <<<<<

    Iter  #Vectors  time (min)   residual
    --------------------------------------
      1       4         0.00     0.14E-01
      2       4         0.00     0.26E-02
      3       4         0.00     0.42E-03
      4       4         0.00     0.87E-04
      5       4         0.00     0.14E-04
      6       4         0.00     0.23E-05
      7       4         0.00     0.48E-06
      8       4         0.00     0.78E-07
      9       4         0.00     0.12E-07
     10       4         0.00     0.23E-08
     11       4         0.00     0.45E-09
     12       4         0.00     0.76E-10
     13       2         0.00     0.12E-10
     14       1         0.00     0.19E-11
     15       1         0.00     0.50E-12
    --------------------------------------
    converged in 15 iterations
    threshold:    0.10E-11


         Routine          Time (min)
         ---------------------------
         CC_TRDRV            0.03
         CCRED               0.00
         CCNEX               0.00
         ---------------------------
         Total time          0.03


 >>>> Total CPU  time used in CCEQ_SOLV:   2.09 seconds
 >>>> Total wall time used in CCEQ_SOLV:   2.18 seconds


 >>>>>>>>>>>>>>>>>>>>> <<<<<<<<<<<<<<<<<<<<<

 RPA: call cceq_str
     RC  start vector nr. 21 of symmetry  1 generated from gradient
     RC  start vector nr. 22 of symmetry  1 generated from gradient
     RC  start vector nr. 23 of symmetry  1 generated from gradient
     RC  start vector nr. 24 of symmetry  1 generated from gradient
 RPA: exit cceq_str



 >>>>> COUPLED CLUSTER RESPONSE SOLVER <<<<<

    Iter  #Vectors  time (min)   residual
    --------------------------------------
      1       4         0.00     0.35E-02
      2       4         0.00     0.11E-02
      3       4         0.00     0.18E-03
      4       4         0.00     0.36E-04
      5       4         0.00     0.56E-05
      6       4         0.00     0.97E-06
      7       4         0.00     0.20E-06
      8       4         0.00     0.33E-07
      9       4         0.00     0.51E-08
     10       4         0.00     0.99E-09
     11       4         0.00     0.19E-09
     12       2         0.00     0.32E-10
     13       1         0.00     0.46E-11
     14       1         0.00     0.78E-12
    --------------------------------------
    converged in 14 iterations
    threshold:    0.10E-11


         Routine          Time (min)
         ---------------------------
         CC_TRDRV            0.03
         CCRED               0.00
         CCNEX               0.00
         ---------------------------
         Total time          0.03


 >>>> Total CPU  time used in CCEQ_SOLV:   1.93 seconds
 >>>> Total wall time used in CCEQ_SOLV:   2.10 seconds


 >>>>>>>>>>>>>>>>>>>>> <<<<<<<<<<<<<<<<<<<<<

 RPA: call cceq_str
     RC  start vector nr. 25 of symmetry  1 generated from gradient
     RC  start vector nr. 26 of symmetry  1 generated from gradient
     RC  start vector nr. 27 of symmetry  1 generated from gradient
     RC  start vector nr. 28 of symmetry  1 generated from gradient
 RPA: exit cceq_str



 >>>>> COUPLED CLUSTER RESPONSE SOLVER <<<<<

    Iter  #Vectors  time (min)   residual
    --------------------------------------
      1       4         0.00     0.15E-02
      2       4         0.00     0.51E-03
      3       4         0.00     0.76E-04
      4       4         0.00     0.15E-04
      5       4         0.00     0.24E-05
      6       4         0.00     0.42E-06
      7       4         0.00     0.86E-07
      8       4         0.00     0.14E-07
      9       4         0.00     0.22E-08
     10       4         0.00     0.43E-09
     11       2         0.00     0.85E-10
     12       1         0.00     0.14E-10
     13       1         0.00     0.19E-11
     14       1         0.00     0.10E-11
    --------------------------------------
    converged in 14 iterations
    threshold:    0.10E-11


         Routine          Time (min)
         ---------------------------
         CC_TRDRV            0.03
         CCRED               0.00
         CCNEX               0.00
         ---------------------------
         Total time          0.03


 >>>> Total CPU  time used in CCEQ_SOLV:   1.88 seconds
 >>>> Total wall time used in CCEQ_SOLV:   1.95 seconds


 >>>>>>>>>>>>>>>>>>>>> <<<<<<<<<<<<<<<<<<<<<


 Solution of CC response equations completed.

   

 *******************************************************************
 *                                                                 *
 *<<<<<<<<<< OUTPUT FROM COUPLED CLUSTER LINEAR RESPONSE >>>>>>>>>>*
 *                                                                 *
 *******************************************************************



              +------------------------------------------------------+
              ! Calculation of CCSD       linear response properties !
              +------------------------------------------------------+



 CCSD  linear response properties in atomic units:
 -------------------------------------------------

 <<ZDIPLEN ,ZDIPLEN >>( 0.042823) =    -4.58677862
 <<ZDIPLEN ,ZDIPLEN >>( 0.065625) =    -4.60842775
 <<ZDIPLEN ,ZDIPLEN >>(-0.042823) =    -4.58677862
 <<ZDIPLEN ,ZDIPLEN >>(-0.065625) =    -4.60842775
 <<XDIPLEN ,XDIPLEN >>( 0.042823) =    -1.93429830
 <<XDIPLEN ,XDIPLEN >>( 0.065625) =    -1.93931784
 <<XDIPLEN ,XDIPLEN >>(-0.042823) =    -1.93429830
 <<XDIPLEN ,XDIPLEN >>(-0.065625) =    -1.93931784
 <<XZTHETA ,YANGMOM >>( 0.042823) =    -0.25586377
 <<XZTHETA ,YANGMOM >>( 0.065625) =    -0.39247504
 <<XZTHETA ,YANGMOM >>(-0.042823) =     0.25586377
 <<XZTHETA ,YANGMOM >>(-0.065625) =     0.39247504
 <<YANGMOM ,XZTHETA >>( 0.042823) =     0.25586377
 <<YANGMOM ,XZTHETA >>( 0.065625) =     0.39247504
 <<YANGMOM ,XZTHETA >>(-0.042823) =    -0.25586377
 <<YANGMOM ,XZTHETA >>(-0.065625) =    -0.39247504

 *******************************************************************
 *                                                                 *
 *     COUPLED CLUSTER LINEAR RESPONSE DISPERSION COEFFICIENTS     *
 *                                                                 *
 *******************************************************************



   For the requested  4 Cauchy moments
         -  20 F matrix transformations with Cauchy vectors
         -   4 ETA and XKSI vector calculations 
   will be performed.




             +--------------------------------------------------------+
             !         FINAL CCSD RESULTS FOR DISPERSION COEFFICIENTS !
             +--------------------------------------------------------+

    The dispersion coefficients D_AB(n) for n>0 are defined through the expansion:
                          alpha(w) = sum_n w^n D_AB(n) 

    D_AB(-4) corresponds to the S_AB(+2) Cauchy moment,
    D_AB(-2) corresponds to the S_AB( 0) Cauchy moment.

    Note that the sign of dispersion coefficients is here defined opposite to
    the sign of the linear response functions!


 A operator   B operator     n        D_AB
----------------------------------------------------------------------------------------

   ZDIPLEN     ZDIPLEN      -4        376.136084465    
                            -2        8.47649183325    
                             0        4.57091150015    
                             2        8.60972712594    
                             4        23.2947097308    
                             6        66.2016159823    

   XDIPLEN     XDIPLEN      -4        301.096911201    
                            -2        8.97073932834    
                             0        1.93065698705    
                             2        1.96737012919    
                             4        9.87387343851    
                             6        60.8500497168    

   XZTHETA     YANGMOM       1        5.97082194218    
                             3        2.24593321792    
                             5        4.71696437754    
                             7        25.4474424445    

   YANGMOM     XZTHETA       1       -5.97082194218    
                             3       -2.24593321792    
                             5       -4.71696437754    
                             7       -25.4474424445    

----------------------------------------------------------------------------------------


  

 *******************************************************************************
 *******************************************************************************
 *                                                                             *
 *                                                                             *
 *                   SUMMARY OF COUPLED CLUSTER CALCULATION                    *
 *                                                                             *
 *                                                                             *
 *******************************************************************************
 *******************************************************************************

                                                                                
            Total SCF   energy:                  -100.0089198959                
                                                                                
                                                                                
            Total SCF   energy:                  -100.0089198959                
            Total MP2   energy:                  -100.1936625719                
            Total CCSD  energy:                  -100.1977909068                
  

 *******************************************************************************
 *******************************************************************************
 *                                                                             *
 *                                                                             *
 *                      END OF COUPLED CLUSTER CALCULATION                     *
 *                                                                             *
 *                                                                             *
 *******************************************************************************
 *******************************************************************************


 >>>> CPU and wall time for CC :      37.079      38.873

 
     Date and time (Linux)  : Sun Sep  8 20:43:54 2013
     Host name              : lpqlx131.ups-tlse.fr                    


                      .-------------------------------------.
                      | End of Coupled Cluster Section (CC) |
                      `-------------------------------------'

 >>>> Total CPU  time used in DALTON:  37.18 seconds
 >>>> Total wall time used in DALTON:  38.97 seconds

 
     Date and time (Linux)  : Sun Sep  8 20:43:54 2013
     Host name              : lpqlx131.ups-tlse.fr                    
