

     ************************************************************************
     *************** Dalton - An Electronic Structure Program ***************
     ************************************************************************

    This is output from DALTON 2016.alpha
   ----------------------------------------------------------------------------
    NOTE:
     
    Dalton is an experimental code for the evaluation of molecular
    properties using (MC)SCF, DFT, CI, and CC wave functions.
    The authors accept no responsibility for the performance of
    the code or for the correctness of the results.
     
    The code (in whole or part) is provided under a licence and
    is not to be reproduced for further distribution without
    the written permission of the authors or their representatives.
     
    See the home page "http://daltonprogram.org" for further information.
     
    If results obtained with this code are published,
    the appropriate citations would be both of:
     
       K. Aidas, C. Angeli, K. L. Bak, V. Bakken, R. Bast,
       L. Boman, O. Christiansen, R. Cimiraglia, S. Coriani,
       J. Cukras, P. Dahle, E. K. Dalskov, U. Ekstroem,
       T. Enevoldsen, J. J. Eriksen, P. Ettenhuber, B. Fernandez,
       L. Ferrighi, H. Fliegl, L. Frediani, K. Hald, A. Halkier,
       C. Haettig, H. Heiberg, T. Helgaker, A. C. Hennum,
       H. Hettema, E. Hjertenaes, S. Hoest, I.-M. Hoeyvik,
       M. F. Iozzi, B. Jansik, H. J. Aa. Jensen, D. Jonsson,
       P. Joergensen, M. Kaminski, J. Kauczor, S. Kirpekar,
       T. Kjaergaard, W. Klopper, S. Knecht, R. Kobayashi, H. Koch,
       J. Kongsted, A. Krapp, K. Kristensen, A. Ligabue,
       O. B. Lutnaes, J. I. Melo, K. V. Mikkelsen, R. H. Myhre,
       C. Neiss, C. B. Nielsen, P. Norman, J. Olsen,
       J. M. H. Olsen, A. Osted, M. J. Packer, F. Pawlowski,
       T. B. Pedersen, P. F. Provasi, S. Reine, Z. Rinkevicius,
       T. A. Ruden, K. Ruud, V. Rybkin, P. Salek, C. C. M. Samson,
       A. Sanchez de Meras, T. Saue, S. P. A. Sauer,
       B. Schimmelpfennig, K. Sneskov, A. H. Steindal,
       K. O. Sylvester-Hvid, P. R. Taylor, A. M. Teale,
       E. I. Tellgren, D. P. Tew, A. J. Thorvaldsen, L. Thoegersen,
       O. Vahtras, M. A. Watson, D. J. D. Wilson, M. Ziolkowski
       and H. Agren,
       "The Dalton quantum chemistry program system",
       WIREs Comput. Mol. Sci. 2013. (doi: 10.1002/wcms.1172)
    
    and
    
       Dalton, a Molecular Electronic Structure Program,
       Release Dalton2016.alpha (2015), see http://daltonprogram.org
   ----------------------------------------------------------------------------

    Authors in alphabetical order (major contribution(s) in parenthesis):

  Kestutis Aidas,           Vilnius University,           Lithuania   (QM/MM)
  Celestino Angeli,         University of Ferrara,        Italy       (NEVPT2)
  Keld L. Bak,              UNI-C,                        Denmark     (AOSOPPA, non-adiabatic coupling, magnetic properties)
  Vebjoern Bakken,          University of Oslo,           Norway      (DALTON; geometry optimizer, symmetry detection)
  Radovan Bast,             KTH Stockholm,                Sweden      (DALTON installation and execution frameworks)
  Pablo Baudin,             University of Valencia,       Spain       (Cholesky excitation energies)
  Linus Boman,              NTNU,                         Norway      (Cholesky decomposition and subsystems)
  Ove Christiansen,         Aarhus University,            Denmark     (CC module)
  Renzo Cimiraglia,         University of Ferrara,        Italy       (NEVPT2)
  Sonia Coriani,            University of Trieste,        Italy       (CC module, MCD in RESPONS)
  Janusz Cukras,            University of Trieste,        Italy       (MChD in RESPONS)
  Paal Dahle,               University of Oslo,           Norway      (Parallelization)
  Erik K. Dalskov,          UNI-C,                        Denmark     (SOPPA)
  Thomas Enevoldsen,        Univ. of Southern Denmark,    Denmark     (SOPPA)
  Janus J. Eriksen,         Aarhus University,            Denmark     (Polarizable embedding model, TDA)
  Berta Fernandez,          U. of Santiago de Compostela, Spain       (doublet spin, ESR in RESPONS)
  Lara Ferrighi,            Aarhus University,            Denmark     (PCM Cubic response)
  Heike Fliegl,             University of Oslo,           Norway      (CCSD(R12))
  Luca Frediani,            UiT The Arctic U. of Norway,  Norway      (PCM)
  Bin Gao,                  UiT The Arctic U. of Norway,  Norway      (Gen1Int library)
  Christof Haettig,         Ruhr-University Bochum,       Germany     (CC module)
  Kasper Hald,              Aarhus University,            Denmark     (CC module)
  Asger Halkier,            Aarhus University,            Denmark     (CC module)
  Erik D. Hedegaard,        Univ. of Southern Denmark,    Denmark     (Polarizable embedding model, QM/MM)
  Hanne Heiberg,            University of Oslo,           Norway      (geometry analysis, selected one-electron integrals)
  Trygve Helgaker,          University of Oslo,           Norway      (DALTON; ABACUS, ERI, DFT modules, London, and much more)
  Alf Christian Hennum,     University of Oslo,           Norway      (Parity violation)
  Hinne Hettema,            University of Auckland,       New Zealand (quadratic response in RESPONS; SIRIUS supersymmetry)
  Eirik Hjertenaes,         NTNU,                         Norway      (Cholesky decomposition)
  Maria Francesca Iozzi,    University of Oslo,           Norway      (RPA)
  Brano Jansik              Technical Univ. of Ostrava    Czech Rep.  (DFT cubic response)
  Hans Joergen Aa. Jensen,  Univ. of Southern Denmark,    Denmark     (DALTON; SIRIUS, RESPONS, ABACUS modules, London, and much more)
  Dan Jonsson,              UiT The Arctic U. of Norway,  Norway      (cubic response in RESPONS module)
  Poul Joergensen,          Aarhus University,            Denmark     (RESPONS, ABACUS, and CC modules)
  Maciej Kaminski,          University of Warsaw,         Poland      (CPPh in RESPONS)
  Joanna Kauczor,           Linkoeping University,        Sweden      (Complex polarization propagator (CPP) module)
  Sheela Kirpekar,          Univ. of Southern Denmark,    Denmark     (Mass-velocity & Darwin integrals)
  Wim Klopper,              KIT Karlsruhe,                Germany     (R12 code in CC, SIRIUS, and ABACUS modules)
  Stefan Knecht,            ETH Zurich,                   Switzerland (Parallel CI and MCSCF)
  Rika Kobayashi,           Australian National Univ.,    Australia   (DIIS in CC, London in MCSCF)
  Henrik Koch,              NTNU,                         Norway      (CC module, Cholesky decomposition)
  Jacob Kongsted,           Univ. of Southern Denmark,    Denmark     (Polarizable embedding model, QM/MM)
  Andrea Ligabue,           University of Modena,         Italy       (CTOCD, AOSOPPA)
  Nanna H. List             Univ. of Southern Denmark,    Denmark     (Polarizable embedding model)
  Ola B. Lutnaes,           University of Oslo,           Norway      (DFT Hessian)
  Juan I. Melo,             University of Buenos Aires,   Argentina   (LRESC, Relativistic Effects on NMR Shieldings)
  Kurt V. Mikkelsen,        University of Copenhagen,     Denmark     (MC-SCRF and QM/MM)
  Rolf H. Myhre,            NTNU,                         Norway      (Cholesky, subsystems and ECC2)
  Christian Neiss,          Univ. Erlangen-Nuernberg,     Germany     (CCSD(R12))
  Christian B. Nielsen,     University of Copenhagen,     Denmark     (QM/MM)
  Patrick Norman,           Linkoeping University,        Sweden      (Cubic response and complex response in RESPONS)
  Jeppe Olsen,              Aarhus University,            Denmark     (SIRIUS CI/density modules)
  Jogvan Magnus H. Olsen,   Univ. of Southern Denmark,    Denmark     (Polarizable embedding model, QM/MM)
  Anders Osted,             Copenhagen University,        Denmark     (QM/MM)
  Martin J. Packer,         University of Sheffield,      UK          (SOPPA)
  Filip Pawlowski,          Kazimierz Wielki University,  Poland      (CC3)
  Morten N. Pedersen,       Univ. of Southern Denmark,    Denmark     (Polarizable embedding model)
  Thomas B. Pedersen,       University of Oslo,           Norway      (Cholesky decomposition)
  Patricio F. Provasi,      University of Northeastern,   Argentina   (Analysis of coupling constants in localized orbitals)
  Zilvinas Rinkevicius,     KTH Stockholm,                Sweden      (open-shell DFT, ESR)
  Elias Rudberg,            KTH Stockholm,                Sweden      (DFT grid and basis info)
  Torgeir A. Ruden,         University of Oslo,           Norway      (Numerical derivatives in ABACUS)
  Kenneth Ruud,             UiT The Arctic U. of Norway,  Norway      (DALTON; ABACUS magnetic properties and much more)
  Pawel Salek,              KTH Stockholm,                Sweden      (DALTON; DFT code)
  Claire C. M. Samson       University of Karlsruhe       Germany     (Boys localization, r12 integrals in ERI)
  Alfredo Sanchez de Meras, University of Valencia,       Spain       (CC module, Cholesky decomposition)
  Trond Saue,               Paul Sabatier University,     France      (direct Fock matrix construction)
  Stephan P. A. Sauer,      University of Copenhagen,     Denmark     (SOPPA(CCSD), SOPPA prop., AOSOPPA, vibrational g-factors)
  Bernd Schimmelpfennig,    Forschungszentrum Karlsruhe,  Germany     (AMFI module)
  Kristian Sneskov,         Aarhus University,            Denmark     (Polarizable embedding model, QM/MM)
  Arnfinn H. Steindal,      UiT The Arctic U. of Norway,  Norway      (parallel QM/MM, Polarizable embedding model)
  Casper Steinmann,         Univ. of Southern Denmark,    Denmark     (QFIT, Polarizable embedding model)
  K. O. Sylvester-Hvid,     University of Copenhagen,     Denmark     (MC-SCRF)
  Peter R. Taylor,          VLSCI/Univ. of Melbourne,     Australia   (Symmetry handling ABACUS, integral transformation)
  Andrew M. Teale,          University of Nottingham,     England     (DFT-AC, DFT-D)
  David P. Tew,             University of Bristol,        England     (CCSD(R12))
  Olav Vahtras,             KTH Stockholm,                Sweden      (triplet response, spin-orbit, ESR, TDDFT, open-shell DFT)
  David J. Wilson,          La Trobe University,          Australia   (DFT Hessian and DFT magnetizabilities)
  Hans Agren,               KTH Stockholm,                Sweden      (SIRIUS module, RESPONS, MC-SCRF solvation model)
 --------------------------------------------------------------------------------

     Date and time (Darwin) : Tue Oct  6 11:40:13 2015
     Host name              : adm-106152.local                        

 * Work memory size             :    64000000 =  488.28 megabytes.

 * Directories for basis set searches:
   1) /Users/hjj/progs/gitDalton/build_master_ompi49_openblas/test/dft_disp_d3bj
   2) /Users/hjj/progs/gitDalton/build_master_ompi49_openblas/basis


Compilation information
-----------------------

 Who compiled             | hjj
 Host                     | adm-106152.local
 System                   | Darwin-14.5.0
 CMake generator          | Unix Makefiles
 Processor                | x86_64
 64-bit integers          | OFF
 MPI                      | ON
 Fortran compiler         | /opt/local/bin/mpif90
 C compiler               | /opt/local/bin/mpicc
 C compiler version       | gcc-mp-4.9 (MacPorts gcc49 4.9.3_0) 4.9.3
 C++ compiler             | /opt/local/bin/mpicxx
 C++ compiler version     | unknown
 BLAS                     | /opt/local/lib/libopenblas.dylib
 LAPACK                   | /usr/lib/liblapack.dylib
 Static linking           | OFF
 Last Git revision        | 16a02562c405b499cfc9ac7f34f4da91a0b04bf8
 Git branch               | master
 Configuration time       | 2015-10-06 11:39:42.869489

 * Sequential calculation.


   Content of the .dal input file
 ----------------------------------

**DALTON INPUT                                    
.RUN WAVEFUNCTION                                 
.DIRECT                                           
.OPTIMIZE                                         
**WAVE FUNCTIONS                                  
.DFT                                              
 BLYP                                             
*DFT INPUT                                        
.DFD3BJ                                           
.GRID TYPE                                        
BECKE                                             
*SCF INPUT                                        
.THRESH                                           
 1.0D-08                                          
**END OF INPUT                                    


   Content of the .mol file
 ----------------------------

BASIS                                                                          
STO-3G                                                                         
CH4 Dimer                                                                      
----------                                                                     
Atomtypes=2 Angstrom                                                           
Atoms=2  Charge=6.0                                                            
C   0.000000  -0.000140   1.859161                                             
C   0.000000   0.000140  -1.859161                                             
Atoms=8  Charge=1.0                                                            
H  -0.888551   0.513060   1.494685                                             
H   0.888551   0.513060   1.494685                                             
H   0.000000  -1.026339   1.494868                                             
H   0.000000   0.000089   2.948284                                             
H   0.000000  -0.000089  -2.948284                                             
H  -0.888551  -0.513060  -1.494685                                             
H   0.888551  -0.513060  -1.494685                                             
H   0.000000   1.026339  -1.494868                                             


       *******************************************************************
       *********** Output from DALTON general input processing ***********
       *******************************************************************

 --------------------------------------------------------------------------------
   Overall default print level:    0
   Print level for DALTON.STAT:    1

    AO-direct calculation (in sections where implemented)
    HERMIT 1- and 2-electron integral sections will be executed
    "Old" integral transformation used (limited to max 255 basis functions)
    Wave function sections will be executed (SIRIUS module)
 --------------------------------------------------------------------------------


 Chosen parameters for *OPTIMI :
 -------------------------------

 Default 1st order method will be used:   BFGS update.
 Optimization will be performed in redundant internal coordinates (by default).
 Model Hessian will be used as initial Hessian.
 The model Hessian parameters of Roland Lindh will be used.


 Trust region method will be used to control step (default).

 Convergence threshold for gradient set to :      1.00D-04
 Convergence threshold for energy set to   :      1.00D-06
 Convergence threshold for step set to     :      1.00D-04
 Number of convergence criteria set to     :   2


              >>>>>>>>>>>>>>>>>>>>>>>>>>>>>>>>>>>>>>>>>>>>>>>>>>>>>
              >>>>>>>>>> 1st Order Geometry Optimization >>>>>>>>>>
              >>>>>>>>>>>>>>>>>>>>>>>>>>>>>>>>>>>>>>>>>>>>>>>>>>>>>


 Reading .mol file to determine number of atoms for parallel runs.


                      SYMADD: Requested addition of symmetry
                      --------------------------------------

 Symmetry test threshold:  5.00E-06

@   The molecule is centered at center of mass and rotated
@   so principal axes of inertia are along coordinate axes.

 Symmetry class found: C(2h)          

 The following elements were found:   Z  XY    


   ****************************************************************************
   *************** Output of molecule and basis set information ***************
   ****************************************************************************


    The two title cards from your ".mol" input:
    ------------------------------------------------------------------------
 1: CH4 Dimer                                                               
 2: ----------                                                              
    ------------------------------------------------------------------------

  Coordinates are entered in Angstrom and converted to atomic units.
          - Conversion factor : 1 bohr = 0.52917721 A

  Atomic type no.    1
  --------------------
  Nuclear charge:   6.00000
  Number of symmetry independent centers:    2
  Number of basis sets to read;    2
  Basis set file used for this atomic type with Z =   6 :
     "/Users/hjj/progs/gitDalton/build_master_ompi49_openblas/basis/STO-3G"

  Atomic type no.    2
  --------------------
  Nuclear charge:   1.00000
  Number of symmetry independent centers:    8
  Number of basis sets to read;    2
  Basis set file used for this atomic type with Z =   1 :
     "/Users/hjj/progs/gitDalton/build_master_ompi49_openblas/basis/STO-3G"


                      SYMADD: Requested addition of symmetry
                      --------------------------------------

 Symmetry test threshold:  5.00E-06

@   The molecule is centered at center of mass and rotated
@   so principal axes of inertia are along coordinate axes.

 Symmetry class found: C(2h)          

 Symmetry Independent Centres             
 ----------------------------
       6 :      3.51330512     0.00000000     0.00000000  Isotope  1
       1 :      2.82447228    -0.96975558     1.67911804  Isotope  1
       1 :      2.82503715     1.93928689     0.00000000  Isotope  1
       1 :      5.57144927    -0.00058773     0.00000000  Isotope  1

 The following elements were found:   Z  XY    


                         SYMGRP: Point group information
                         -------------------------------

@    Full point group is: C(2h)          
@    Represented as:      C2h

@  * The irrep name for each symmetry:    1: Ag     2: Au     3: Bu     4: Bg 

   * The point group was generated by:

      Reflection in the xy-plane
      Rotation about the z-axis

   * Group multiplication table

        |  E   C2z   i   Oxy
   -----+--------------------
     E  |  E   C2z   i   Oxy
    C2z | C2z   E   Oxy   i 
     i  |  i   Oxy   E   C2z
    Oxy | Oxy   i   C2z   E 

   * Character table

        |  E   C2z   i   Oxy
   -----+--------------------
    Ag  |   1    1    1    1
    Au  |   1    1   -1   -1
    Bu  |   1   -1   -1    1
    Bg  |   1   -1    1   -1

   * Direct product table

        | Ag   Au   Bu   Bg 
   -----+--------------------
    Ag  | Ag   Au   Bu   Bg 
    Au  | Au   Ag   Bg   Bu 
    Bu  | Bu   Bg   Ag   Au 
    Bg  | Bg   Bu   Au   Ag 


                                 Isotopic Masses
                                 ---------------

                           C   _1     12.000000
                           C   _2     12.000000
                           H   _1      1.007825
                           H   _2      1.007825
                           H   _3      1.007825
                           H   _4      1.007825
                           H   _1      1.007825
                           H   _2      1.007825
                           H   _1      1.007825
                           H   _2      1.007825

                       Total mass:    32.062600 amu
                       Natural abundance:  97.695 %

 Center-of-mass coordinates (a.u.):    0.000000    0.000000    0.000000


  Atoms and basis sets
  --------------------

  Number of atom types :    2
  Total number of atoms:   10

  Basis set used is "STO-3G" from the basis set library.

  label    atoms   charge   prim   cont     basis
  ----------------------------------------------------------------------
  C           2    6.0000    15     5      [6s3p|2s1p]                                        
  H           8    1.0000     3     1      [3s|1s]                                            
  ----------------------------------------------------------------------
  total:     10   20.0000    54    18
  ----------------------------------------------------------------------

  Threshold for neglecting AO integrals:  1.00D-12


  Cartesian Coordinates (a.u.)
  ----------------------------

  Total number of coordinates:   30
  C   / 1 :     1  x   3.5133051222    2  y   0.0000000000    3  z   0.0000000000
  C   / 2 :     4  x  -3.5133051222    5  y  -0.0000000000    6  z   0.0000000000
  H   / 1 :     7  x   2.8244722758    8  y  -0.9697555791    9  z   1.6791180381
  H   / 2 :    10  x   2.8244722758   11  y  -0.9697555791   12  z  -1.6791180381
  H   / 3 :    13  x  -2.8244722758   14  y   0.9697555791   15  z   1.6791180381
  H   / 4 :    16  x  -2.8244722758   17  y   0.9697555791   18  z  -1.6791180381
  H   / 1 :    19  x   2.8250371547   20  y   1.9392868937   21  z   0.0000000000
  H   / 2 :    22  x  -2.8250371547   23  y  -1.9392868937   24  z   0.0000000000
  H   / 1 :    25  x   5.5714492702   26  y  -0.0005877313   27  z   0.0000000000
  H   / 2 :    28  x  -5.5714492702   29  y   0.0005877313   30  z   0.0000000000


  Symmetry Coordinates
  --------------------

  Number of coordinates in each symmetry:     9    6    9    6

  Symmetry  Ag  ( 1)

    1   C     x    [  1  -    4 ]/2
    2   C     y    [  2  -    5 ]/2
    3   H     x    [  7  +   10  -   13  -   16 ]/4
    4   H     y    [  8  +   11  -   14  -   17 ]/4
    5   H     z    [  9  -   12  +   15  -   18 ]/4
    6   H     x    [ 19  -   22 ]/2
    7   H     y    [ 20  -   23 ]/2
    8   H     x    [ 25  -   28 ]/2
    9   H     y    [ 26  -   29 ]/2

  Symmetry  Au  ( 2)

   10   C     z    [  3  +    6 ]/2
   11   H     x    [  7  -   10  -   13  +   16 ]/4
   12   H     y    [  8  -   11  -   14  +   17 ]/4
   13   H     z    [  9  +   12  +   15  +   18 ]/4
   14   H     z    [ 21  +   24 ]/2
   15   H     z    [ 27  +   30 ]/2

  Symmetry  Bu  ( 3)

   16   C     x    [  1  +    4 ]/2
   17   C     y    [  2  +    5 ]/2
   18   H     x    [  7  +   10  +   13  +   16 ]/4
   19   H     y    [  8  +   11  +   14  +   17 ]/4
   20   H     z    [  9  -   12  -   15  +   18 ]/4
   21   H     x    [ 19  +   22 ]/2
   22   H     y    [ 20  +   23 ]/2
   23   H     x    [ 25  +   28 ]/2
   24   H     y    [ 26  +   29 ]/2

  Symmetry  Bg  ( 4)

   25   C     z    [  3  -    6 ]/2
   26   H     x    [  7  -   10  +   13  -   16 ]/4
   27   H     y    [  8  -   11  +   14  -   17 ]/4
   28   H     z    [  9  +   12  -   15  -   18 ]/4
   29   H     z    [ 21  -   24 ]/2
   30   H     z    [ 27  -   30 ]/2


   Interatomic separations (in Angstrom):
   --------------------------------------

            C   _1      C   _2      H   _1      H   _2      H   _3      H   _4
            ------      ------      ------      ------      ------      ------
 C   _1:    0.000000
 C   _2:    3.718322    0.000000
 H   _1:    1.088917    3.507263    0.000000
 H   _2:    1.088917    3.507263    1.777102    0.000000
 H   _3:    3.507263    1.088917    3.160578    3.625927    0.000000
 H   _4:    3.507263    1.088917    3.625927    3.160578    1.777102    0.000000
 H   _1:    1.088942    3.507587    1.777434    1.777434    3.160760    3.160760
 H   _2:    3.507587    1.088942    3.160760    3.160760    1.777434    1.777434
 H   _1:    1.089123    4.807445    1.779217    1.779217    4.559914    4.559914
 H   _2:    4.807445    1.089123    4.559914    4.559914    1.779217    1.779217

            H   _1      H   _2      H   _1      H   _2
            ------      ------      ------      ------
 H   _1:    0.000000
 H   _2:    3.626570    0.000000
 H   _1:    1.779318    4.560130    0.000000
 H   _2:    4.560130    1.779318    5.896568    0.000000


  Max    interatomic separation is    5.8966 Angstrom (   11.1429 Bohr)
  between atoms   10 and    9, "H   _2" and "H   _1".

  Min HX interatomic separation is    1.0889 Angstrom (    2.0578 Bohr)

  Min YX interatomic separation is    3.7183 Angstrom (    7.0266 Bohr)


  Bond distances (Angstrom):
  --------------------------

                  atom 1     atom 2       distance
                  ------     ------       --------
  bond distance:  H   _1     C   _1       1.088917
  bond distance:  H   _2     C   _1       1.088917
  bond distance:  H   _3     C   _2       1.088917
  bond distance:  H   _4     C   _2       1.088917
  bond distance:  H   _1     C   _1       1.088942
  bond distance:  H   _2     C   _2       1.088942
  bond distance:  H   _1     C   _1       1.089123
  bond distance:  H   _2     C   _2       1.089123


  Bond angles (degrees):
  ----------------------

                  atom 1     atom 2     atom 3         angle
                  ------     ------     ------         -----
  bond angle:     H   _1     C   _1     H   _2       109.372
  bond angle:     H   _1     C   _1     H   _1       109.400
  bond angle:     H   _1     C   _1     H   _1       109.549
  bond angle:     H   _2     C   _1     H   _1       109.400
  bond angle:     H   _2     C   _1     H   _1       109.549
  bond angle:     H   _1     C   _1     H   _1       109.557
  bond angle:     H   _3     C   _2     H   _4       109.372
  bond angle:     H   _3     C   _2     H   _2       109.400
  bond angle:     H   _3     C   _2     H   _2       109.549
  bond angle:     H   _4     C   _2     H   _2       109.400
  bond angle:     H   _4     C   _2     H   _2       109.549
  bond angle:     H   _2     C   _2     H   _2       109.557




 Principal moments of inertia (u*A**2) and principal axes
 --------------------------------------------------------

   IA       6.367194          1.000000   -0.000014    0.000000
   IB     117.169600          0.000014    1.000000    0.000000
   IC     117.171187          0.000000    0.000000    1.000000


 Rotational constants
 --------------------

               A                   B                   C

          79372.3300           4313.2263           4313.1679 MHz
            2.647576            0.143874            0.143872 cm-1


@  Nuclear repulsion energy :   41.000263966493 Hartree


  Symmetry Orbitals
  -----------------

  Number of orbitals in each symmetry:           7    2    7    2


  Symmetry  Ag ( 1)

    1     C        1s         1 +    2
    2     C        1s         3 +    4
    3     C        2px        5 -    6
    4     C        2py        7 -    8
    5     H        1s        11 +   12 +   13 +   14
    6     H        1s        15 +   16
    7     H        1s        17 +   18


  Symmetry  Au ( 2)

    8     C        2pz        9 +   10
    9     H        1s        11 -   12 +   13 -   14


  Symmetry  Bu ( 3)

   10     C        1s         1 -    2
   11     C        1s         3 -    4
   12     C        2px        5 +    6
   13     C        2py        7 +    8
   14     H        1s        11 +   12 -   13 -   14
   15     H        1s        15 -   16
   16     H        1s        17 -   18


  Symmetry  Bg ( 4)

   17     C        2pz        9 -   10
   18     H        1s        11 -   12 -   13 +   14

  Symmetries of electric field:  Bu (3)  Bu (3)  Au (2)

  Symmetries of magnetic field:  Bg (4)  Bg (4)  Ag (1)


                     .---------------------------------------.
                     | Starting in Integral Section (HERMIT) |
                     `---------------------------------------'



 ***************************************************************************************
 ****************** Output from **INTEGRALS input processing (HERMIT) ******************
 ***************************************************************************************


 - Using defaults, no **INTEGRALS input found

 Default print level:        1

 * Nuclear model: Point charge

 Calculation of one-electron Hamiltonian integrals.

 Center of mass  (bohr):      0.000000000000      0.000000000000      0.000000000000
 Operator center (bohr):      0.000000000000      0.000000000000      0.000000000000
 Gauge origin    (bohr):      0.000000000000      0.000000000000      0.000000000000
 Dipole origin   (bohr):      0.000000000000      0.000000000000      0.000000000000


     ************************************************************************
     ************************** Output from HERINT **************************
     ************************************************************************

 >>>> Total CPU  time used in HERMIT:   0.06 seconds
 >>>> Total wall time used in HERMIT:   0.02 seconds


                        .----------------------------------.
                        | End of Integral Section (HERMIT) |
                        `----------------------------------'



                   .--------------------------------------------.
                   | Starting in Wave Function Section (SIRIUS) |
                   `--------------------------------------------'



 Settings for DFT calculation:
 -----------------------------

     Default thresholds:                                       1.00D-09    1.00D-10    2.00D-12
     Default threshold for number of electrons:                1.00D-03
     DFT radial quadrature accuracy and ang. expansion order:              1.00D-13  35

 *** Output from Huckel module :

     Using EWMO model:          F
     Using EHT  model:          T
     Number of Huckel orbitals each symmetry:    7    2    7    2

 Huckel EHT eigenvalues for symmetry :  1
          -11.382326      -1.263513      -0.636550      -0.594308      -0.228049
           -0.204960      -0.204409

 Huckel EHT eigenvalues for symmetry :  2
           -0.624217      -0.203374

 Huckel EHT eigenvalues for symmetry :  3
          -11.380254      -1.192708      -0.624288      -0.579063      -0.221188
           -0.203352      -0.201174

 Huckel EHT eigenvalues for symmetry :  4
           -0.594237      -0.204430

 **********************************************************************
 *SIRIUS* a direct, restricted step, second order MCSCF program       *
 **********************************************************************

 
     Date and time (Darwin) : Tue Oct  6 11:40:13 2015
     Host name              : adm-106152.local                        

 Title lines from ".mol" input file:
     CH4 Dimer                                                               
     ----------                                                              

 Print level on unit LUPRI =   2 is   0
 Print level on unit LUW4  =   2 is   5

@    Restricted, closed shell Kohn-Sham DFT calculation.
 Fock matrices are calculated directly without use of integrals on disk.

 Initial molecular orbitals are obtained according to
 ".MOSTART EHT   " input option

     Wave function specification
     ============================
@    Wave function type        >>> KS-DFT <<<
@    Number of closed shell electrons          20
@    Number of electrons in active shells       0
@    Total charge of the molecule               0

@    Spin multiplicity and 2 M_S                1         0
@    Total number of symmetries                 4 (point group: C2h)
@    Reference state symmetry                   1 (irrep name : Ag )
 
     This is a DFT calculation of type: BLYP
 Weighted mixed functional:
                       LYP:    1.00000
                     Becke:    1.00000
                    Slater:    1.00000

     Orbital specifications
     ======================
@    Abelian symmetry species          All |    1    2    3    4
@                                          |  Ag   Au   Bu   Bg 
                                       --- |  ---  ---  ---  ---
@    Total number of orbitals           18 |    7    2    7    2
@    Number of basis functions          18 |    7    2    7    2

      ** Automatic occupation of RKS orbitals **

      -- Initial occupation of symmetries is determined from extended Huckel guess.           
      -- Initial occupation of symmetries is :
@    Occupied SCF orbitals              10 |    4    1    4    1

     Maximum number of Fock   iterations      0
     Maximum number of DIIS   iterations     60
     Maximum number of QC-SCF iterations     60
     Threshold for SCF convergence     1.00D-08
 
     This is a DFT calculation of type: BLYP
 Weighted mixed functional:
                       LYP:    1.00000
                     Becke:    1.00000
                    Slater:    1.00000


 ***********************************************
 ***** DIIS acceleration of SCF iterations *****
 ***********************************************

 C1-DIIS algorithm; max error vectors =    8


                      DFT-D Empirical Dispersion Correction
                      -------------------------------------

       Running DFT-D Version :     3
                   Reference : S. Grimme, J. Antony, S. Ehrlich and H. Krieg, 
                               J. Chem. Phys. 132 (2010), 154104
                   Reference : S. Grimme, S. Ehrlich and L. Goerigk, 
                               J. Comput. Chem. 32 (2011), 1456-1465
       Becke-Johnson Damping :    T
                3-body terms :    F


                      DFT-D3 Functional Dependent Parameters
                      --------------------------------------

      s_6 =       1.000000000000     sr_6 =       0.429800000000
      s_8 =       2.699600000000     sr_8 =       4.235900000000
      alp =      14.000000000000


                          +------------------------------+
                          ! Dispersion Energy Correction !
                          +------------------------------+

                      E_disp :         -0.006432075414

 Automatic occupation of symmetries with  20 electrons.

 Iter     Total energy    Error norm  Delta(E)    SCF occupation
 -----------------------------------------------------------------------------
   1  Screening settings (-IFTHRS, JTDIIS, DIFDEN, times)   -6    1    F  6.44D-02  1.70D-02
      K-S energy, electrons, error :    -13.692627433244  20.0000258231    2.58D-05
@  1  -79.8478342378       2.03D+00  -7.98D+01     4   1   4   1
      Virial theorem: -V/T =      2.015570
@      MULPOP C   _1  0.37; C   _2  0.37; H   _1 -0.09; H   _2 -0.09; H   _3 -0.09; H   _4 -0.09; H   _1 -0.09; H   _2 -0.09; H   _1 -0.10; H   _2 -0.10; 
@
   1  Level shift: doubly occupied orbital energies shifted by -2.00D-01
 -----------------------------------------------------------------------------
   2  Screening settings (-IFTHRS, JTDIIS, DIFDEN, times)   -6    2    F  6.61D-02  1.70D-02
      K-S energy, electrons, error :    -13.856926455431  20.0000210870    2.11D-05
@  2  -79.9571284157       6.96D-01  -1.09D-01     4   1   4   1
      Virial theorem: -V/T =      2.006707
@      MULPOP C   _1 -0.71; C   _2 -0.71; H   _1  0.18; H   _2  0.18; H   _3  0.18; H   _4  0.18; H   _1  0.18; H   _2  0.18; H   _1  0.18; H   _2  0.18; 
@
   2  Level shift: doubly occupied orbital energies shifted by -1.00D-01
 -----------------------------------------------------------------------------
   3  Screening settings (-IFTHRS, JTDIIS, DIFDEN, times)   -7    3    F  2.02D-02  2.00D-02
      K-S energy, electrons, error :    -13.735191738007  20.0000233620    2.34D-05
@  3  -79.9893443903       2.72D-01  -3.22D-02     4   1   4   1
      Virial theorem: -V/T =      2.018181
@      MULPOP C   _1 -0.16; C   _2 -0.16; H   _1  0.04; H   _2  0.04; H   _3  0.04; H   _4  0.04; H   _1  0.04; H   _2  0.04; H   _1  0.04; H   _2  0.04; 
@
   3  Level shift: doubly occupied orbital energies shifted by -5.00D-02
 -----------------------------------------------------------------------------
   4  Screening settings (-IFTHRS, JTDIIS, DIFDEN, times)   -7    4    F  1.64D-02  1.70D-02
      K-S energy, electrons, error :    -13.765404416220  20.0000227460    2.27D-05
@  4  -79.9948600113       1.90D-02  -5.52D-03     4   1   4   1
      Virial theorem: -V/T =      2.015241
@      MULPOP C   _1 -0.31; C   _2 -0.31; H   _1  0.08; H   _2  0.08; H   _3  0.08; H   _4  0.08; H   _1  0.08; H   _2  0.08; H   _1  0.08; H   _2  0.08; 
@
   4  Level shift: doubly occupied orbital energies shifted by -1.25D-02
 -----------------------------------------------------------------------------
   5  Screening settings (-IFTHRS, JTDIIS, DIFDEN, times)   -8    5    F  1.79D-02  1.80D-02
      K-S energy, electrons, error :    -13.767602020824  20.0000227005    2.27D-05
@  5  -79.9948877234       2.96D-04  -2.77D-05     4   1   4   1
      Virial theorem: -V/T =      2.015039
@      MULPOP C   _1 -0.32; C   _2 -0.32; H   _1  0.08; H   _2  0.08; H   _3  0.08; H   _4  0.08; H   _1  0.08; H   _2  0.08; H   _1  0.08; H   _2  0.08; 
@
 -----------------------------------------------------------------------------
   6  Screening settings (-IFTHRS, JTDIIS, DIFDEN, times)  -10    6    F  3.86D-02  2.10D-02
      K-S energy, electrons, error :    -13.767636068234  20.0000226998    2.27D-05
@  6  -79.9948877367       5.48D-06  -1.33D-08     4   1   4   1
      Virial theorem: -V/T =      2.015036
@      MULPOP C   _1 -0.32; C   _2 -0.32; H   _1  0.08; H   _2  0.08; H   _3  0.08; H   _4  0.08; H   _1  0.08; H   _2  0.08; H   _1  0.08; H   _2  0.08; 
@
 -----------------------------------------------------------------------------
   7  Screening settings (-IFTHRS, JTDIIS, DIFDEN, times)  -12    7    F  3.75D-02  1.90D-02
      K-S energy, electrons, error :    -13.767635996062  20.0000226998    2.27D-05
@  7  -79.9948877367       9.47D-07   1.30D-11     4   1   4   1
      Virial theorem: -V/T =      2.015036
@      MULPOP C   _1 -0.32; C   _2 -0.32; H   _1  0.08; H   _2  0.08; H   _3  0.08; H   _4  0.08; H   _1  0.08; H   _2  0.08; H   _1  0.08; H   _2  0.08; 
@
 -----------------------------------------------------------------------------
   8  Screening settings (-IFTHRS, JTDIIS, DIFDEN, times)  -13    8    F  5.79D-02  2.00D-02
      K-S energy, electrons, error :    -13.767635990660  20.0000226998    2.27D-05
@  8  -79.9948877367       1.07D-07  -2.27D-13     4   1   4   1
      Virial theorem: -V/T =      2.015036
@      MULPOP C   _1 -0.32; C   _2 -0.32; H   _1  0.08; H   _2  0.08; H   _3  0.08; H   _4  0.08; H   _1  0.08; H   _2  0.08; H   _1  0.08; H   _2  0.08; 
@
 -----------------------------------------------------------------------------
   9  Screening settings (-IFTHRS, JTDIIS, DIFDEN, times)  -13    9    F  5.85D-02  2.00D-02
      K-S energy, electrons, error :    -13.767635989902  20.0000226998    2.27D-05
@  9  -79.9948877367       6.07D-09  -2.27D-13     4   1   4   1

@ *** DIIS converged in   9 iterations !
@     Converged SCF energy, gradient:    -79.994887736700    6.07D-09
    - total time used in SIRFCK :              0.00 seconds


 *** SCF orbital energy analysis ***

 Number of electrons :   20
 Orbital occupations :    4    1    4    1

 Sym       Kohn-Sham orbital energies

1 Ag     -9.73344703    -0.58892054    -0.31223335    -0.30523826     0.41309295
          0.41833689     0.43908107

2 Au     -0.30951138     0.40962367

3 Bu     -9.73344879    -0.58446414    -0.30957025    -0.30304046     0.40971767
          0.41579998     0.46282656

4 Bg     -0.30517789     0.41824309

    E(LUMO) :     0.40962367 au (symmetry 2)
  - E(HOMO) :    -0.30304046 au (symmetry 3)
  ------------------------------------------
    gap     :     0.71266413 au

 >>> Writing SIRIFC interface file

 >>>> CPU and wall time for SCF :       3.471       2.291


                       .-----------------------------------.
                       | >>> Final results from SIRIUS <<< |
                       `-----------------------------------'


@    Spin multiplicity:           1
@    Spatial symmetry:            1 ( irrep  Ag  in C2h )
@    Total charge of molecule:    0

@    Final DFT energy:            -79.994887736700                 
@    Nuclear repulsion:            41.000263966493
@    Electronic energy:          -120.995151703193

@    Final gradient norm:           0.000000006069

 
     Date and time (Darwin) : Tue Oct  6 11:40:16 2015
     Host name              : adm-106152.local                        

File label for MO orbitals:   6Oct15   FOCKDIIS

 (Only coefficients >0.0100 are printed.)

 Molecular orbitals for symmetry species 1  (Ag )
 ------------------------------------------------

    Orbital         1        2        3        4        5        6        7
   1 C   :1s     0.7000  -0.1584  -0.0033  -0.0000  -0.0001   0.0005   0.1817
   2 C   :1s     0.0342   0.4456   0.0121   0.0001   0.0010  -0.0031  -1.1395
   3 C   :2px   -0.0000  -0.0034   0.4076  -0.0002  -0.7765  -0.0023   0.0057
   4 C   :2py   -0.0000  -0.0000   0.0002   0.4121   0.0023  -0.7752   0.0022
   5 H   :1s    -0.0069   0.1271  -0.1207  -0.1712  -0.2494  -0.3557   0.4637
   6 H   :1s    -0.0069   0.1271  -0.1203   0.3427  -0.2523   0.7130   0.4607
   7 H   :1s    -0.0069   0.1241   0.3618  -0.0002   0.7500   0.0034   0.4721

 Molecular orbitals for symmetry species 2  (Au )
 ------------------------------------------------

    Orbital         1        2
   1 C   :2pz    0.4064  -0.7777
   2 H   :1s     0.2979   0.6089

 Molecular orbitals for symmetry species 3  (Bu )
 ------------------------------------------------

    Orbital         1        2        3        4        5        6        7
   1 C   :1s     0.7000  -0.1599  -0.0000   0.0033   0.0002   0.0053   0.1805
   2 C   :1s     0.0343   0.4511   0.0001  -0.0121  -0.0012  -0.0333  -1.1442
   3 C   :2px    0.0000   0.0036   0.0002   0.4100   0.0008  -0.7776   0.0182
   4 C   :2py   -0.0000  -0.0000   0.4064  -0.0002  -0.7778  -0.0008   0.0010
   5 H   :1s    -0.0070   0.1255  -0.1720  -0.1222  -0.3507  -0.2370   0.4844
   6 H   :1s    -0.0070   0.1255   0.3440  -0.1224   0.7039  -0.2357   0.4832
   7 H   :1s    -0.0069   0.1289   0.0001   0.3668  -0.0004   0.7640   0.4453

 Molecular orbitals for symmetry species 4  (Bg )
 ------------------------------------------------

    Orbital         1        2
   1 C   :2pz    0.4122  -0.7751
   2 H   :1s     0.2967   0.6170



 >>>> Total CPU  time used in SIRIUS :      3.52 seconds
 >>>> Total wall time used in SIRIUS :      2.31 seconds

 
     Date and time (Darwin) : Tue Oct  6 11:40:16 2015
     Host name              : adm-106152.local                        


                     .---------------------------------------.
                     | End of Wave Function Section (SIRIUS) |
                     `---------------------------------------'


     Order of analytical energy-derivatives available:   1
     This will be the default.

 Center of mass dipole origin  :    0.000000    0.000000    0.000000

 Center of mass gauge origin   :    0.000000    0.000000    0.000000


                 .------------------------------------------------.
                 | Starting in Static Property Section (ABACUS) - |
                 `------------------------------------------------'


 
     Date and time (Darwin) : Tue Oct  6 11:40:16 2015
     Host name              : adm-106152.local                        


                      DFT-D Empirical Dispersion Correction
                      -------------------------------------

       Running DFT-D Version :     3
                   Reference : S. Grimme, J. Antony, S. Ehrlich and H. Krieg, 
                               J. Chem. Phys. 132 (2010), 154104
                   Reference : S. Grimme, S. Ehrlich and L. Goerigk, 
                               J. Comput. Chem. 32 (2011), 1456-1465
       Becke-Johnson Damping :    T
                3-body terms :    F


                      DFT-D3 Functional Dependent Parameters
                      --------------------------------------

      s_6 =       1.000000000000     sr_6 =       0.429800000000
      s_8 =       2.699600000000     sr_8 =       4.235900000000
      alp =      14.000000000000


                          +------------------------------+
                          ! Dispersion Energy Correction !
                          +------------------------------+

                      E_disp :         -0.006432075414


  Symmetry Coordinates
  --------------------

  Number of coordinates in each symmetry:     9    6    9    6

  Symmetry  Ag  ( 1)

    1   C     x    [  1  -    4 ]/2
    2   C     y    [  2  -    5 ]/2
    3   H     x    [  7  +   10  -   13  -   16 ]/4
    4   H     y    [  8  +   11  -   14  -   17 ]/4
    5   H     z    [  9  -   12  +   15  -   18 ]/4
    6   H     x    [ 19  -   22 ]/2
    7   H     y    [ 20  -   23 ]/2
    8   H     x    [ 25  -   28 ]/2
    9   H     y    [ 26  -   29 ]/2

  Symmetry  Au  ( 2)

   10   C     z    [  3  +    6 ]/2
   11   H     x    [  7  -   10  -   13  +   16 ]/4
   12   H     y    [  8  -   11  -   14  +   17 ]/4
   13   H     z    [  9  +   12  +   15  +   18 ]/4
   14   H     z    [ 21  +   24 ]/2
   15   H     z    [ 27  +   30 ]/2

  Symmetry  Bu  ( 3)

   16   C     x    [  1  +    4 ]/2
   17   C     y    [  2  +    5 ]/2
   18   H     x    [  7  +   10  +   13  +   16 ]/4
   19   H     y    [  8  +   11  +   14  +   17 ]/4
   20   H     z    [  9  -   12  -   15  +   18 ]/4
   21   H     x    [ 19  +   22 ]/2
   22   H     y    [ 20  +   23 ]/2
   23   H     x    [ 25  +   28 ]/2
   24   H     y    [ 26  +   29 ]/2

  Symmetry  Bg  ( 4)

   25   C     z    [  3  -    6 ]/2
   26   H     x    [  7  -   10  +   13  -   16 ]/4
   27   H     y    [  8  -   11  +   14  -   17 ]/4
   28   H     z    [  9  +   12  -   15  -   18 ]/4
   29   H     z    [ 21  -   24 ]/2
   30   H     z    [ 27  -   30 ]/2


   ***************************************************************************
   ************************ FINAL RESULTS from ABACUS ************************
   ***************************************************************************


 
     Date and time (Darwin) : Tue Oct  6 11:40:16 2015
     Host name              : adm-106152.local                        


                             Molecular geometry (au)
                             -----------------------

 C   _1     3.5133051222            0.0000000000            0.0000000000
 C   _2    -3.5133051222           -0.0000000000            0.0000000000
 H   _1     2.8244722758           -0.9697555791            1.6791180381
 H   _2     2.8244722758           -0.9697555791           -1.6791180381
 H   _3    -2.8244722758            0.9697555791            1.6791180381
 H   _4    -2.8244722758            0.9697555791           -1.6791180381
 H   _1     2.8250371547            1.9392868937            0.0000000000
 H   _2    -2.8250371547           -1.9392868937            0.0000000000
 H   _1     5.5714492702           -0.0005877313            0.0000000000
 H   _2    -5.5714492702            0.0005877313            0.0000000000





                        Molecular wave function and energy
                        ----------------------------------

     Spatial symmetry   1 ( Ag  )
     Spin multiplicity  1
     2 * M_S            0
     State number       1
     Total charge       0

     Total energy        -79.9948877367 au (Hartrees)
                         -2176.77162504 eV
                           -210026.5454 kJ/mol
                            -50197.5491 kcal/mol


                   Scalar Breit-Pauli relativistic corrections
                   -------------------------------------------

     Darwin correction:                          0.0775849076 au
     Mass-velocity correction:                  -0.0978097492 au

     Total relativistic correction:             -0.0202248416 au (0.0253%)
     Non-relativistic + relativistic energy:   -80.0151125783 au



      (Note that these corrections are NOT included in the results below.)


                             Molecular gradient (au)
                             -----------------------

                         C   x      0.0003847112
                         C   y      0.0000616657
                         H   x      0.0154856833
                         H   y      0.0220018428
                         H   z     -0.0383686060
                         H   x      0.0077322347
                         H   y     -0.0220519029
                         H   x     -0.0232716290
                         H   y     -0.0000120040



 C   _1     0.0001923556            0.0000308328            0.0000000000
 C   _2    -0.0001923556           -0.0000308328            0.0000000000
 H   _1     0.0038714208            0.0055004607           -0.0095921515
 H   _2     0.0038714208            0.0055004607            0.0095921515
 H   _3    -0.0038714208           -0.0055004607           -0.0095921515
 H   _4    -0.0038714208           -0.0055004607            0.0095921515
 H   _1     0.0038661173           -0.0110259515            0.0000000000
 H   _2    -0.0038661173            0.0110259515            0.0000000000
 H   _1    -0.0116358145           -0.0000060020            0.0000000000
 H   _2     0.0116358145            0.0000060020            0.0000000000





                                  Dipole moment
                                  -------------

                 au               Debye          C m (/(10**-30)
              0.000000           0.000000           0.000000


                             Dipole moment components
                             ------------------------

                    All dipole components are zero by symmetry


   Units:   1 a.u. =   2.54175 Debye 
            1 a.u. =   8.47835 (10**-30) C m (SI)




   Interatomic separations (in Angstrom):
   --------------------------------------

            C   _1      C   _2      H   _1      H   _2      H   _3      H   _4
            ------      ------      ------      ------      ------      ------
 C   _1:    0.000000
 C   _2:    3.718322    0.000000
 H   _1:    1.088917    3.507263    0.000000
 H   _2:    1.088917    3.507263    1.777102    0.000000
 H   _3:    3.507263    1.088917    3.160578    3.625927    0.000000
 H   _4:    3.507263    1.088917    3.625927    3.160578    1.777102    0.000000
 H   _1:    1.088942    3.507587    1.777434    1.777434    3.160760    3.160760
 H   _2:    3.507587    1.088942    3.160760    3.160760    1.777434    1.777434
 H   _1:    1.089123    4.807445    1.779217    1.779217    4.559914    4.559914
 H   _2:    4.807445    1.089123    4.559914    4.559914    1.779217    1.779217

            H   _1      H   _2      H   _1      H   _2
            ------      ------      ------      ------
 H   _1:    0.000000
 H   _2:    3.626570    0.000000
 H   _1:    1.779318    4.560130    0.000000
 H   _2:    4.560130    1.779318    5.896568    0.000000


  Max    interatomic separation is    5.8966 Angstrom (   11.1429 Bohr)
  between atoms   10 and    9, "H   _2" and "H   _1".

  Min HX interatomic separation is    1.0889 Angstrom (    2.0578 Bohr)

  Min YX interatomic separation is    3.7183 Angstrom (    7.0266 Bohr)


  Bond distances (Angstrom):
  --------------------------

                  atom 1     atom 2       distance
                  ------     ------       --------
  bond distance:  H   _1     C   _1       1.088917
  bond distance:  H   _2     C   _1       1.088917
  bond distance:  H   _3     C   _2       1.088917
  bond distance:  H   _4     C   _2       1.088917
  bond distance:  H   _1     C   _1       1.088942
  bond distance:  H   _2     C   _2       1.088942
  bond distance:  H   _1     C   _1       1.089123
  bond distance:  H   _2     C   _2       1.089123


  Bond angles (degrees):
  ----------------------

                  atom 1     atom 2     atom 3         angle
                  ------     ------     ------         -----
  bond angle:     H   _1     C   _1     H   _2       109.372
  bond angle:     H   _1     C   _1     H   _1       109.400
  bond angle:     H   _1     C   _1     H   _1       109.549
  bond angle:     H   _2     C   _1     H   _1       109.400
  bond angle:     H   _2     C   _1     H   _1       109.549
  bond angle:     H   _1     C   _1     H   _1       109.557
  bond angle:     H   _3     C   _2     H   _4       109.372
  bond angle:     H   _3     C   _2     H   _2       109.400
  bond angle:     H   _3     C   _2     H   _2       109.549
  bond angle:     H   _4     C   _2     H   _2       109.400
  bond angle:     H   _4     C   _2     H   _2       109.549
  bond angle:     H   _2     C   _2     H   _2       109.557




 CPU time statistics for ABACUS
 ------------------------------




 >>>> Total CPU  time used in ABACUS:   0.64 seconds
 >>>> Total wall time used in ABACUS:   0.65 seconds


                   .-------------------------------------------.
                   | End of Static Property Section (ABACUS) - |
                   `-------------------------------------------'


Building simple model Hessian by Roland Lindh ...


           :::::::::::::::::::::::::::::::::::::::::::::::::::::::::::
           ::::::::::::::: Optimization Control Center :::::::::::::::
           :::::::::::::::::::::::::::::::::::::::::::::::::::::::::::



                                Next geometry (au)
                                ------------------

 C   _1     3.2896256688           -0.0180391518            0.0000000000
 C   _2    -3.2896256688            0.0180391518            0.0000000000
 H   _1     2.6203241657           -1.0181949055            1.6992239034
 H   _2     2.6203241657           -1.0181949055           -1.6992239034
 H   _3    -2.6203241657            1.0181949055            1.6992239034
 H   _4    -2.6203241657            1.0181949055           -1.6992239034
 H   _1     2.5397689296            1.9250034575            0.0000000000
 H   _2    -2.5397689296           -1.9250034575            0.0000000000
 H   _1     5.3718390731            0.0389365049            0.0000000000
 H   _2    -5.3718390731           -0.0389365049            0.0000000000





                             Optimization information
                             ------------------------

 Iteration number               :       0
 End of optimization            :       F 
 Energy at this geometry is     :     -79.994888
 Norm of gradient               :       0.033059
 Norm of step                   :       0.500023
 Updated trust radius           :       0.500000
 Total Hessian index            :       0




 **************************************************************************************
 ****************** Output of molecule and basis set info suppressed ******************
 **************************************************************************************



                     .---------------------------------------.
                     | Starting in Integral Section (HERMIT) |
                     `---------------------------------------'



 ***************************************************************************************
 ****************** Output from **INTEGRALS input processing (HERMIT) ******************
 ***************************************************************************************


 - Using defaults, no **INTEGRALS input found

 Default print level:       -1

 * Nuclear model: Point charge

 Calculation of one-electron Hamiltonian integrals.

 Center of mass  (bohr):      0.000000000000      0.000000000000      0.000000000000
 Operator center (bohr):      0.000000000000      0.000000000000      0.000000000000
 Gauge origin    (bohr):      0.000000000000      0.000000000000      0.000000000000
 Dipole origin   (bohr):      0.000000000000      0.000000000000      0.000000000000
 >>>> Total CPU  time used in HERMIT:   0.02 seconds
 >>>> Total wall time used in HERMIT:   0.00 seconds


                        .----------------------------------.
                        | End of Integral Section (HERMIT) |
                        `----------------------------------'



                   .--------------------------------------------.
                   | Starting in Wave Function Section (SIRIUS) |
                   `--------------------------------------------'


 **********************************************************************
 *SIRIUS* a direct, restricted step, second order MCSCF program       *
 **********************************************************************

 (Wave function specification suppressed here, see output above for initial geometry.)


 ***********************************************
 ***** DIIS acceleration of SCF iterations *****
 ***********************************************

 C1-DIIS algorithm; max error vectors =    8


                      DFT-D Empirical Dispersion Correction
                      -------------------------------------

       Running DFT-D Version :     3
                   Reference : S. Grimme, J. Antony, S. Ehrlich and H. Krieg, 
                               J. Chem. Phys. 132 (2010), 154104
                   Reference : S. Grimme, S. Ehrlich and L. Goerigk, 
                               J. Comput. Chem. 32 (2011), 1456-1465
       Becke-Johnson Damping :    T
                3-body terms :    F


                      DFT-D3 Functional Dependent Parameters
                      --------------------------------------

      s_6 =       1.000000000000     sr_6 =       0.429800000000
      s_8 =       2.699600000000     sr_8 =       4.235900000000
      alp =      14.000000000000


                          +------------------------------+
                          ! Dispersion Energy Correction !
                          +------------------------------+

                      E_disp :         -0.006950222300

 Iter      Total energy        Error norm    Delta(E)  DIIS dim.
 -----------------------------------------------------------------------------
   1  Screening settings (-IFTHRS, JTDIIS, DIFDEN, times)  -13    1    F  8.05D-02  2.20D-02
      K-S energy, electrons, error :    -13.745098735106  19.9999988270   -1.17D-06
@  1    -79.9957536699        5.27086D-02   -8.66D-04    1
      Virial theorem: -V/T =      2.015989
@      MULPOP C   _1 -0.32; C   _2 -0.32; H   _1  0.08; H   _2  0.08; H   _3  0.08; H   _4  0.08; H   _1  0.08; H   _2  0.08; H   _1  0.08; H   _2  0.08; 
@
 -----------------------------------------------------------------------------
   2  Screening settings (-IFTHRS, JTDIIS, DIFDEN, times)   -8    2    F  1.82D-02  1.80D-02
      K-S energy, electrons, error :    -13.740850324890  19.9999987717   -1.23D-06
@  2    -79.9960719819        2.55247D-02   -3.18D-04    2
      Virial theorem: -V/T =      2.016246
@      MULPOP C   _1 -0.29; C   _2 -0.29; H   _1  0.07; H   _2  0.07; H   _3  0.07; H   _4  0.07; H   _1  0.07; H   _2  0.07; H   _1  0.07; H   _2  0.07; 
@
 -----------------------------------------------------------------------------
   3  Screening settings (-IFTHRS, JTDIIS, DIFDEN, times)   -8    3    F  1.95D-02  2.00D-02
      K-S energy, electrons, error :    -13.745597268059  19.9999987700   -1.23D-06
@  3    -79.9961066801        1.42345D-02   -3.47D-05    3
      Virial theorem: -V/T =      2.015800
@      MULPOP C   _1 -0.31; C   _2 -0.31; H   _1  0.08; H   _2  0.08; H   _3  0.08; H   _4  0.08; H   _1  0.08; H   _2  0.08; H   _1  0.08; H   _2  0.08; 
@
 -----------------------------------------------------------------------------
   4  Screening settings (-IFTHRS, JTDIIS, DIFDEN, times)   -8    4    F  1.91D-02  1.90D-02
      K-S energy, electrons, error :    -13.743885340871  19.9999987705   -1.23D-06
@  4    -79.9961222141        4.34201D-05   -1.55D-05    4
      Virial theorem: -V/T =      2.015962
@      MULPOP C   _1 -0.30; C   _2 -0.30; H   _1  0.08; H   _2  0.08; H   _3  0.08; H   _4  0.08; H   _1  0.08; H   _2  0.08; H   _1  0.08; H   _2  0.08; 
@
 -----------------------------------------------------------------------------
   5  Screening settings (-IFTHRS, JTDIIS, DIFDEN, times)  -11    5    F  1.87D-02  1.90D-02
      K-S energy, electrons, error :    -13.743884026636  19.9999987705   -1.23D-06
@  5    -79.9961222164        8.92339D-06   -2.23D-09    5
      Virial theorem: -V/T =      2.015962
@      MULPOP C   _1 -0.30; C   _2 -0.30; H   _1  0.08; H   _2  0.08; H   _3  0.08; H   _4  0.08; H   _1  0.08; H   _2  0.08; H   _1  0.08; H   _2  0.08; 
@
 -----------------------------------------------------------------------------
   6  Screening settings (-IFTHRS, JTDIIS, DIFDEN, times)  -12    6    F  4.03D-02  2.20D-02
      K-S energy, electrons, error :    -13.743883904850  19.9999987705   -1.23D-06
@  6    -79.9961222164        1.33287D-06   -9.95D-12    6
      Virial theorem: -V/T =      2.015962
@      MULPOP C   _1 -0.30; C   _2 -0.30; H   _1  0.08; H   _2  0.08; H   _3  0.08; H   _4  0.08; H   _1  0.08; H   _2  0.08; H   _1  0.08; H   _2  0.08; 
@
 -----------------------------------------------------------------------------
   7  Screening settings (-IFTHRS, JTDIIS, DIFDEN, times)  -12    7    F  3.84D-02  1.90D-02
      K-S energy, electrons, error :    -13.743883915639  19.9999987705   -1.23D-06
@  7    -79.9961222164        7.52064D-08   -2.98D-13    7
      Virial theorem: -V/T =      2.015962
@      MULPOP C   _1 -0.30; C   _2 -0.30; H   _1  0.08; H   _2  0.08; H   _3  0.08; H   _4  0.08; H   _1  0.08; H   _2  0.08; H   _1  0.08; H   _2  0.08; 
@
 -----------------------------------------------------------------------------
   8  Screening settings (-IFTHRS, JTDIIS, DIFDEN, times)  -13    8    F  5.86D-02  2.00D-02
      K-S energy, electrons, error :    -13.743883915872  19.9999987705   -1.23D-06
@  8    -79.9961222164        7.38284D-09    2.27D-13    8

@ *** DIIS converged in   8 iterations !
@     Converged SCF energy, gradient:    -79.996122216387    7.38D-09
    - total time used in SIRFCK :              0.00 seconds


 *** SCF orbital energy analysis ***

 Number of electrons :   20
 Orbital occupations :    4    1    4    1

 Sym       Kohn-Sham orbital energies

1 Ag     -9.73405390    -0.58498679    -0.31068133    -0.29966179     0.40133593
          0.41057083     0.41827166

2 Au     -0.30689876     0.39905020

3 Bu     -9.73406004    -0.57771399    -0.30726919    -0.29623454     0.39736720
          0.40710170     0.45056601

4 Bg     -0.30001338     0.40888417

    E(LUMO) :     0.39736720 au (symmetry 3)
  - E(HOMO) :    -0.29623454 au (symmetry 3)
  ------------------------------------------
    gap     :     0.69360174 au

 >>> Writing SIRIFC interface file

 >>>> CPU and wall time for SCF :       2.676       1.985


                       .-----------------------------------.
                       | >>> Final results from SIRIUS <<< |
                       `-----------------------------------'


@    Spin multiplicity:           1
@    Spatial symmetry:            1 ( irrep  Ag  in C2h )
@    Total charge of molecule:    0

@    Final DFT energy:            -79.996122216387                 
@    Nuclear repulsion:            41.607395011755
@    Electronic energy:          -121.603517228142

@    Final gradient norm:           0.000000007383

 
     Date and time (Darwin) : Tue Oct  6 11:40:18 2015
     Host name              : adm-106152.local                        



 >>>> Total CPU  time used in SIRIUS :      2.68 seconds
 >>>> Total wall time used in SIRIUS :      1.99 seconds

 
     Date and time (Darwin) : Tue Oct  6 11:40:18 2015
     Host name              : adm-106152.local                        


                     .---------------------------------------.
                     | End of Wave Function Section (SIRIUS) |
                     `---------------------------------------'

 Trust radius squarely increased due to very good ratio.
 Updated trust radius   0.72003

     Order of analytical energy-derivatives available:   1
     This will be the default.

 Center of mass dipole origin  :    0.000000    0.000000    0.000000

 Center of mass gauge origin   :    0.000000    0.000000    0.000000


                 .------------------------------------------------.
                 | Starting in Static Property Section (ABACUS) - |
                 `------------------------------------------------'


 
     Date and time (Darwin) : Tue Oct  6 11:40:18 2015
     Host name              : adm-106152.local                        


                      DFT-D Empirical Dispersion Correction
                      -------------------------------------

       Running DFT-D Version :     3
                   Reference : S. Grimme, J. Antony, S. Ehrlich and H. Krieg, 
                               J. Chem. Phys. 132 (2010), 154104
                   Reference : S. Grimme, S. Ehrlich and L. Goerigk, 
                               J. Comput. Chem. 32 (2011), 1456-1465
       Becke-Johnson Damping :    T
                3-body terms :    F


                      DFT-D3 Functional Dependent Parameters
                      --------------------------------------

      s_6 =       1.000000000000     sr_6 =       0.429800000000
      s_8 =       2.699600000000     sr_8 =       4.235900000000
      alp =      14.000000000000


                          +------------------------------+
                          ! Dispersion Energy Correction !
                          +------------------------------+

                      E_disp :         -0.006950222300


  Symmetry Coordinates
  --------------------

  Number of coordinates in each symmetry:     9    6    9    6

  Symmetry  Ag  ( 1)

    1   C     x    [  1  -    4 ]/2
    2   C     y    [  2  -    5 ]/2
    3   H     x    [  7  +   10  -   13  -   16 ]/4
    4   H     y    [  8  +   11  -   14  -   17 ]/4
    5   H     z    [  9  -   12  +   15  -   18 ]/4
    6   H     x    [ 19  -   22 ]/2
    7   H     y    [ 20  -   23 ]/2
    8   H     x    [ 25  -   28 ]/2
    9   H     y    [ 26  -   29 ]/2

  Symmetry  Au  ( 2)

   10   C     z    [  3  +    6 ]/2
   11   H     x    [  7  -   10  -   13  +   16 ]/4
   12   H     y    [  8  -   11  -   14  +   17 ]/4
   13   H     z    [  9  +   12  +   15  +   18 ]/4
   14   H     z    [ 21  +   24 ]/2
   15   H     z    [ 27  +   30 ]/2

  Symmetry  Bu  ( 3)

   16   C     x    [  1  +    4 ]/2
   17   C     y    [  2  +    5 ]/2
   18   H     x    [  7  +   10  +   13  +   16 ]/4
   19   H     y    [  8  +   11  +   14  +   17 ]/4
   20   H     z    [  9  -   12  -   15  +   18 ]/4
   21   H     x    [ 19  +   22 ]/2
   22   H     y    [ 20  +   23 ]/2
   23   H     x    [ 25  +   28 ]/2
   24   H     y    [ 26  +   29 ]/2

  Symmetry  Bg  ( 4)

   25   C     z    [  3  -    6 ]/2
   26   H     x    [  7  -   10  +   13  -   16 ]/4
   27   H     y    [  8  -   11  +   14  -   17 ]/4
   28   H     z    [  9  +   12  -   15  -   18 ]/4
   29   H     z    [ 21  -   24 ]/2
   30   H     z    [ 27  -   30 ]/2


   ***************************************************************************
   ************************ FINAL RESULTS from ABACUS ************************
   ***************************************************************************


 
     Date and time (Darwin) : Tue Oct  6 11:40:19 2015
     Host name              : adm-106152.local                        


 CPU time statistics for ABACUS
 ------------------------------

 REST       00:00:02     274 %



 >>>> Total CPU  time used in ABACUS:   0.73 seconds
 >>>> Total wall time used in ABACUS:   0.75 seconds


                   .-------------------------------------------.
                   | End of Static Property Section (ABACUS) - |
                   `-------------------------------------------'



           :::::::::::::::::::::::::::::::::::::::::::::::::::::::::::
           ::::::::::::::: Optimization Control Center :::::::::::::::
           :::::::::::::::::::::::::::::::::::::::::::::::::::::::::::



                                Next geometry (au)
                                ------------------

 C   _1     3.6281418312            0.0209855897            0.0000000000
 C   _2    -3.6281418312           -0.0209855897            0.0000000000
 H   _1     2.8974755664           -0.9448321848            1.7112194770
 H   _2     2.8974755664           -0.9448321848           -1.7112194770
 H   _3    -2.8974755664            0.9448321848            1.7112194770
 H   _4    -2.8974755664            0.9448321848           -1.7112194770
 H   _1     2.9872463551            2.0178196005            0.0000000000
 H   _2    -2.9872463551           -2.0178196005            0.0000000000
 H   _1     5.7276577754           -0.0436835191            0.0000000000
 H   _2    -5.7276577754            0.0436835191            0.0000000000





                             Optimization information
                             ------------------------

 Iteration number               :       1
 End of optimization            :       F 
 Energy at this geometry is     :     -79.996122
 Energy change from last geom.  :      -0.001234
 Predicted change               :      -0.001206
 Ratio, actual/predicted change :       1.023392
 Norm of gradient               :       0.004557
 Norm of step                   :       0.720812
 Updated trust radius           :       0.720034
 Total Hessian index            :       0




 **************************************************************************************
 ****************** Output of molecule and basis set info suppressed ******************
 **************************************************************************************



                     .---------------------------------------.
                     | Starting in Integral Section (HERMIT) |
                     `---------------------------------------'



 ***************************************************************************************
 ****************** Output from **INTEGRALS input processing (HERMIT) ******************
 ***************************************************************************************


 - Using defaults, no **INTEGRALS input found

 Default print level:       -1

 * Nuclear model: Point charge

 Calculation of one-electron Hamiltonian integrals.

 Center of mass  (bohr):      0.000000000000      0.000000000000      0.000000000000
 Operator center (bohr):      0.000000000000      0.000000000000      0.000000000000
 Gauge origin    (bohr):      0.000000000000      0.000000000000      0.000000000000
 Dipole origin   (bohr):      0.000000000000      0.000000000000      0.000000000000
 >>>> Total CPU  time used in HERMIT:   0.02 seconds
 >>>> Total wall time used in HERMIT:   0.00 seconds


                        .----------------------------------.
                        | End of Integral Section (HERMIT) |
                        `----------------------------------'



                   .--------------------------------------------.
                   | Starting in Wave Function Section (SIRIUS) |
                   `--------------------------------------------'


 **********************************************************************
 *SIRIUS* a direct, restricted step, second order MCSCF program       *
 **********************************************************************

 (Wave function specification suppressed here, see output above for initial geometry.)


 ***********************************************
 ***** DIIS acceleration of SCF iterations *****
 ***********************************************

 C1-DIIS algorithm; max error vectors =    8


                      DFT-D Empirical Dispersion Correction
                      -------------------------------------

       Running DFT-D Version :     3
                   Reference : S. Grimme, J. Antony, S. Ehrlich and H. Krieg, 
                               J. Chem. Phys. 132 (2010), 154104
                   Reference : S. Grimme, S. Ehrlich and L. Goerigk, 
                               J. Comput. Chem. 32 (2011), 1456-1465
       Becke-Johnson Damping :    T
                3-body terms :    F


                      DFT-D3 Functional Dependent Parameters
                      --------------------------------------

      s_6 =       1.000000000000     sr_6 =       0.429800000000
      s_8 =       2.699600000000     sr_8 =       4.235900000000
      alp =      14.000000000000


                          +------------------------------+
                          ! Dispersion Energy Correction !
                          +------------------------------+

                      E_disp :         -0.006195157638

 Iter      Total energy        Error norm    Delta(E)  DIIS dim.
 -----------------------------------------------------------------------------
   1  Screening settings (-IFTHRS, JTDIIS, DIFDEN, times)  -13    1    F  8.19D-02  2.30D-02
      K-S energy, electrons, error :    -13.728868954735  20.0000061899    6.19D-06
@  1    -79.9946898410        8.67739D-02    1.43D-03    1
      Virial theorem: -V/T =      2.016563
@      MULPOP C   _1 -0.30; C   _2 -0.30; H   _1  0.08; H   _2  0.08; H   _3  0.08; H   _4  0.08; H   _1  0.08; H   _2  0.08; H   _1  0.07; H   _2  0.07; 
@
 -----------------------------------------------------------------------------
   2  Screening settings (-IFTHRS, JTDIIS, DIFDEN, times)   -8    2    F  1.71D-02  1.70D-02
      K-S energy, electrons, error :    -13.726757355195  20.0000061881    6.19D-06
@  2    -79.9959761161        1.37412D-02   -1.29D-03    2
      Virial theorem: -V/T =      2.016716
@      MULPOP C   _1 -0.29; C   _2 -0.29; H   _1  0.07; H   _2  0.07; H   _3  0.07; H   _4  0.07; H   _1  0.07; H   _2  0.07; H   _1  0.07; H   _2  0.07; 
@
 -----------------------------------------------------------------------------
   3  Screening settings (-IFTHRS, JTDIIS, DIFDEN, times)   -8    3    F  2.12D-02  2.10D-02
      K-S energy, electrons, error :    -13.730103078474  20.0000061852    6.19D-06
@  3    -79.9959751202        1.42307D-02    9.96D-07    3
      Virial theorem: -V/T =      2.016402
@      MULPOP C   _1 -0.30; C   _2 -0.30; H   _1  0.08; H   _2  0.08; H   _3  0.08; H   _4  0.08; H   _1  0.08; H   _2  0.08; H   _1  0.08; H   _2  0.08; 
@
 -----------------------------------------------------------------------------
   4  Screening settings (-IFTHRS, JTDIIS, DIFDEN, times)   -8    4    F  1.89D-02  1.90D-02
      K-S energy, electrons, error :    -13.728394104909  20.0000061867    6.19D-06
@  4    -79.9959907311        4.90750D-05   -1.56D-05    4
      Virial theorem: -V/T =      2.016563
@      MULPOP C   _1 -0.30; C   _2 -0.30; H   _1  0.07; H   _2  0.07; H   _3  0.07; H   _4  0.07; H   _1  0.07; H   _2  0.07; H   _1  0.07; H   _2  0.07; 
@
 -----------------------------------------------------------------------------
   5  Screening settings (-IFTHRS, JTDIIS, DIFDEN, times)  -11    5    F  1.86D-02  1.80D-02
      K-S energy, electrons, error :    -13.728393267147  20.0000061867    6.19D-06
@  5    -79.9959907323        6.17428D-06   -1.17D-09    5
      Virial theorem: -V/T =      2.016563
@      MULPOP C   _1 -0.30; C   _2 -0.30; H   _1  0.07; H   _2  0.07; H   _3  0.07; H   _4  0.07; H   _1  0.07; H   _2  0.07; H   _1  0.07; H   _2  0.07; 
@
 -----------------------------------------------------------------------------
   6  Screening settings (-IFTHRS, JTDIIS, DIFDEN, times)  -12    6    F  2.57D-02  2.60D-02
      K-S energy, electrons, error :    -13.728393085740  20.0000061867    6.19D-06
@  6    -79.9959907323        9.47156D-07   -4.46D-12    6
      Virial theorem: -V/T =      2.016563
@      MULPOP C   _1 -0.30; C   _2 -0.30; H   _1  0.07; H   _2  0.07; H   _3  0.07; H   _4  0.07; H   _1  0.07; H   _2  0.07; H   _1  0.07; H   _2  0.07; 
@
 -----------------------------------------------------------------------------
   7  Screening settings (-IFTHRS, JTDIIS, DIFDEN, times)  -13    7    F  3.82D-02  1.90D-02
      K-S energy, electrons, error :    -13.728393099364  20.0000061867    6.19D-06
@  7    -79.9959907323        8.21504D-08   -5.68D-14    7
      Virial theorem: -V/T =      2.016563
@      MULPOP C   _1 -0.30; C   _2 -0.30; H   _1  0.07; H   _2  0.07; H   _3  0.07; H   _4  0.07; H   _1  0.07; H   _2  0.07; H   _1  0.07; H   _2  0.07; 
@
 -----------------------------------------------------------------------------
   8  Screening settings (-IFTHRS, JTDIIS, DIFDEN, times)  -13    8    F  5.87D-02  1.90D-02
      K-S energy, electrons, error :    -13.728393099908  20.0000061867    6.19D-06
@  8    -79.9959907323        8.28299D-09   -2.70D-13    8

@ *** DIIS converged in   8 iterations !
@     Converged SCF energy, gradient:    -79.995990732271    8.28D-09
    - total time used in SIRFCK :              0.00 seconds


 *** SCF orbital energy analysis ***

 Number of electrons :   20
 Orbital occupations :    4    1    4    1

 Sym       Kohn-Sham orbital energies

1 Ag     -9.73509041    -0.58034540    -0.30518531    -0.29991600     0.39597538
          0.40055199     0.41353060

2 Au     -0.30352944     0.39384372

3 Bu     -9.73509193    -0.57673232    -0.30320876    -0.29778868     0.39461376
          0.39775042     0.43287453

4 Bg     -0.29979820     0.40208070

    E(LUMO) :     0.39384372 au (symmetry 2)
  - E(HOMO) :    -0.29778868 au (symmetry 3)
  ------------------------------------------
    gap     :     0.69163240 au

 >>> Writing SIRIFC interface file

 >>>> CPU and wall time for SCF :       2.573       1.983


                       .-----------------------------------.
                       | >>> Final results from SIRIUS <<< |
                       `-----------------------------------'


@    Spin multiplicity:           1
@    Spatial symmetry:            1 ( irrep  Ag  in C2h )
@    Total charge of molecule:    0

@    Final DFT energy:            -79.995990732271                 
@    Nuclear repulsion:            40.047158220107
@    Electronic energy:          -120.043148952378

@    Final gradient norm:           0.000000008283

 
     Date and time (Darwin) : Tue Oct  6 11:40:21 2015
     Host name              : adm-106152.local                        



 >>>> Total CPU  time used in SIRIUS :      2.58 seconds
 >>>> Total wall time used in SIRIUS :      1.99 seconds

 
     Date and time (Darwin) : Tue Oct  6 11:40:21 2015
     Host name              : adm-106152.local                        


                     .---------------------------------------.
                     | End of Wave Function Section (SIRIUS) |
                     `---------------------------------------'


 Step rejected because ratio between
        actual energy change :    0.00013148
 and predicted energy change :   -0.00061954
                          is :         -0.21
 Minimum for quadratic model :     0.436298
 Norm of new step            :     0.314488


 **************************************************************************************
 ****************** Output of molecule and basis set info suppressed ******************
 **************************************************************************************



                     .---------------------------------------.
                     | Starting in Integral Section (HERMIT) |
                     `---------------------------------------'



 ***************************************************************************************
 ****************** Output from **INTEGRALS input processing (HERMIT) ******************
 ***************************************************************************************


 - Using defaults, no **INTEGRALS input found

 Default print level:       -1

 * Nuclear model: Point charge

 Calculation of one-electron Hamiltonian integrals.

[...]
          0.40399123     0.44364287

4 Bg     -0.30041767     0.40666209

    E(LUMO) :     0.39739807 au (symmetry 2)
  - E(HOMO) :    -0.29785157 au (symmetry 3)
  ------------------------------------------
    gap     :     0.69524964 au

 >>> Writing SIRIFC interface file

 >>>> CPU and wall time for SCF :       1.574       1.304


                       .-----------------------------------.
                       | >>> Final results from SIRIUS <<< |
                       `-----------------------------------'


@    Spin multiplicity:           1
@    Spatial symmetry:            1 ( irrep  Ag  in C2h )
@    Total charge of molecule:    0

@    Final DFT energy:            -79.996236329721                 
@    Nuclear repulsion:            40.861111574457
@    Electronic energy:          -120.857347904178

@    Final gradient norm:           0.000000008497

 
     Date and time (Darwin) : Tue Oct  6 11:40:56 2015
     Host name              : adm-106152.local                        



 >>>> Total CPU  time used in SIRIUS :      1.58 seconds
 >>>> Total wall time used in SIRIUS :      1.31 seconds

 
     Date and time (Darwin) : Tue Oct  6 11:40:56 2015
     Host name              : adm-106152.local                        


                     .---------------------------------------.
                     | End of Wave Function Section (SIRIUS) |
                     `---------------------------------------'


Acceptable step has been found.

     Order of analytical energy-derivatives available:   1
     This will be the default.

 Center of mass dipole origin  :    0.000000    0.000000    0.000000

 Center of mass gauge origin   :    0.000000    0.000000    0.000000


                 .------------------------------------------------.
                 | Starting in Static Property Section (ABACUS) - |
                 `------------------------------------------------'


 
     Date and time (Darwin) : Tue Oct  6 11:40:56 2015
     Host name              : adm-106152.local                        


                      DFT-D Empirical Dispersion Correction
                      -------------------------------------

       Running DFT-D Version :     3
                   Reference : S. Grimme, J. Antony, S. Ehrlich and H. Krieg, 
                               J. Chem. Phys. 132 (2010), 154104
                   Reference : S. Grimme, S. Ehrlich and L. Goerigk, 
                               J. Comput. Chem. 32 (2011), 1456-1465
       Becke-Johnson Damping :    T
                3-body terms :    F


                      DFT-D3 Functional Dependent Parameters
                      --------------------------------------

      s_6 =       1.000000000000     sr_6 =       0.429800000000
      s_8 =       2.699600000000     sr_8 =       4.235900000000
      alp =      14.000000000000


                          +------------------------------+
                          ! Dispersion Energy Correction !
                          +------------------------------+

                      E_disp :         -0.006561323942


  Symmetry Coordinates
  --------------------

  Number of coordinates in each symmetry:     9    6    9    6

  Symmetry  Ag  ( 1)

    1   C     x    [  1  -    4 ]/2
    2   C     y    [  2  -    5 ]/2
    3   H     x    [  7  +   10  -   13  -   16 ]/4
    4   H     y    [  8  +   11  -   14  -   17 ]/4
    5   H     z    [  9  -   12  +   15  -   18 ]/4
    6   H     x    [ 19  -   22 ]/2
    7   H     y    [ 20  -   23 ]/2
    8   H     x    [ 25  -   28 ]/2
    9   H     y    [ 26  -   29 ]/2

  Symmetry  Au  ( 2)

   10   C     z    [  3  +    6 ]/2
   11   H     x    [  7  -   10  -   13  +   16 ]/4
   12   H     y    [  8  -   11  -   14  +   17 ]/4
   13   H     z    [  9  +   12  +   15  +   18 ]/4
   14   H     z    [ 21  +   24 ]/2
   15   H     z    [ 27  +   30 ]/2

  Symmetry  Bu  ( 3)

   16   C     x    [  1  +    4 ]/2
   17   C     y    [  2  +    5 ]/2
   18   H     x    [  7  +   10  +   13  +   16 ]/4
   19   H     y    [  8  +   11  +   14  +   17 ]/4
   20   H     z    [  9  -   12  -   15  +   18 ]/4
   21   H     x    [ 19  +   22 ]/2
   22   H     y    [ 20  +   23 ]/2
   23   H     x    [ 25  +   28 ]/2
   24   H     y    [ 26  +   29 ]/2

  Symmetry  Bg  ( 4)

   25   C     z    [  3  -    6 ]/2
   26   H     x    [  7  -   10  +   13  -   16 ]/4
   27   H     y    [  8  -   11  +   14  -   17 ]/4
   28   H     z    [  9  +   12  -   15  -   18 ]/4
   29   H     z    [ 21  -   24 ]/2
   30   H     z    [ 27  -   30 ]/2


   ***************************************************************************
   ************************ FINAL RESULTS from ABACUS ************************
   ***************************************************************************


 
     Date and time (Darwin) : Tue Oct  6 11:40:57 2015
     Host name              : adm-106152.local                        


 CPU time statistics for ABACUS
 ------------------------------

 REST       00:00:01     202 %



 >>>> Total CPU  time used in ABACUS:   0.70 seconds
 >>>> Total wall time used in ABACUS:   0.71 seconds


                   .-------------------------------------------.
                   | End of Static Property Section (ABACUS) - |
                   `-------------------------------------------'



            *********************************************************
            *** Output from geometry convergence control (MINEND) ***
            *********************************************************


 Energy converged       yes 
 Gradient converged     yes 
 Step converged         no  
 Conditions fullfilled   2
 Required conditions     2
 Totally sym. index      0
 Hessian index           0
 End of optimization    yes 


           :::::::::::::::::::::::::::::::::::::::::::::::::::::::::::
           ::::::::::::::: Optimization Control Center :::::::::::::::
           :::::::::::::::::::::::::::::::::::::::::::::::::::::::::::



                               Final geometry (au)
                               -------------------

 C   _1     3.4530201135            0.0006755619            0.0000000000
 C   _2    -3.4530201135           -0.0006755619            0.0000000000
 H   _1     2.7549351538           -0.9822996853            1.7031246961
 H   _2     2.7549351538           -0.9822996853           -1.7031246961
 H   _3    -2.7549351538            0.9822996853            1.7031246961
 H   _4    -2.7549351538            0.9822996853           -1.7031246961
 H   _1     2.7563606727            1.9676093945            0.0000000000
 H   _2    -2.7563606727           -1.9676093945            0.0000000000
 H   _1     5.5400964662           -0.0003484868            0.0000000000
 H   _2    -5.5400964662            0.0003484868            0.0000000000





                             Optimization information
                             ------------------------

 Iteration number               :       8
 End of optimization            :       T 
 Energy at this geometry is     :     -79.996236
 Energy change from last geom.  :      -0.000000
 Predicted change               :      -0.000000
 Ratio, actual/predicted change :       6.992474
 Norm of gradient               :       0.000020
 Norm of step                   :       0.002978
 Updated trust radius           :       0.005517
 Total Hessian index            :       0



 Center of mass dipole origin  :    0.000000    0.000000    0.000000

 Center of mass gauge origin   :    0.000000    0.000000    0.000000


                 .------------------------------------------------.
                 | Starting in Static Property Section (ABACUS) - |
                 `------------------------------------------------'


 
     Date and time (Darwin) : Tue Oct  6 11:40:57 2015
     Host name              : adm-106152.local                        


   ***************************************************************************
   ************************ FINAL RESULTS from ABACUS ************************
   ***************************************************************************


 
     Date and time (Darwin) : Tue Oct  6 11:40:57 2015
     Host name              : adm-106152.local                        


                             Molecular geometry (au)
                             -----------------------

 C   _1     3.4530201135            0.0006755619            0.0000000000
 C   _2    -3.4530201135           -0.0006755619            0.0000000000
 H   _1     2.7549351538           -0.9822996853            1.7031246961
 H   _2     2.7549351538           -0.9822996853           -1.7031246961
 H   _3    -2.7549351538            0.9822996853            1.7031246961
 H   _4    -2.7549351538            0.9822996853           -1.7031246961
 H   _1     2.7563606727            1.9676093945            0.0000000000
 H   _2    -2.7563606727           -1.9676093945            0.0000000000
 H   _1     5.5400964662           -0.0003484868            0.0000000000
 H   _2    -5.5400964662            0.0003484868            0.0000000000





                        Molecular wave function and energy
                        ----------------------------------

     Spatial symmetry   1 ( Ag  )
     Spin multiplicity  1
     2 * M_S            0
     State number       1
     Total charge       0

     Total energy        -79.9962363297 au (Hartrees)
                         -2176.80832212 eV
                           -210030.0861 kJ/mol
                            -50198.3953 kcal/mol


                   Scalar Breit-Pauli relativistic corrections
                   -------------------------------------------

     Darwin correction:                          0.0775853898 au
     Mass-velocity correction:                  -0.0978063395 au

     Total relativistic correction:             -0.0202209497 au (0.0253%)
     Non-relativistic + relativistic energy:   -80.0164572794 au



      (Note that these corrections are NOT included in the results below.)


                                  Dipole moment
                                  -------------

                 au               Debye          C m (/(10**-30)
              0.000000           0.000000           0.000000


                             Dipole moment components
                             ------------------------

                    All dipole components are zero by symmetry


   Units:   1 a.u. =   2.54175 Debye 
            1 a.u. =   8.47835 (10**-30) C m (SI)




   Interatomic separations (in Angstrom):
   --------------------------------------

            C   _1      C   _2      H   _1      H   _2      H   _3      H   _4
            ------      ------      ------      ------      ------      ------
 C   _1:    0.000000
 C   _2:    3.654519    0.000000
 H   _1:    1.104219    3.445871    0.000000
 H   _2:    1.104219    3.445871    1.802510    0.000000
 H   _3:    3.445871    1.104219    3.095498    3.582059    0.000000
 H   _4:    3.445871    1.104219    3.582059    3.095498    1.802510    0.000000
 H   _1:    1.104215    3.446994    1.802515    1.802515    3.096743    3.096743
 H   _2:    3.446994    1.104215    3.096743    3.096743    1.802515    1.802515
 H   _1:    1.104433    4.758952    1.804020    1.804020    4.511178    4.511178
 H   _2:    4.758952    1.104433    4.511178    4.511178    1.804020    1.804020

            H   _1      H   _2      H   _1      H   _2
            ------      ------      ------      ------
 H   _1:    0.000000
 H   _2:    3.584215    0.000000
 H   _1:    1.804024    4.512033    0.000000
 H   _2:    4.512033    1.804024    5.863386    0.000000


  Max    interatomic separation is    5.8634 Angstrom (   11.0802 Bohr)
  between atoms   10 and    9, "H   _2" and "H   _1".

  Min HX interatomic separation is    1.1042 Angstrom (    2.0867 Bohr)

  Min YX interatomic separation is    3.6545 Angstrom (    6.9060 Bohr)


  Bond distances (Angstrom):
  --------------------------

                  atom 1     atom 2       distance
                  ------     ------       --------
  bond distance:  H   _1     C   _1       1.104219
  bond distance:  H   _2     C   _1       1.104219
  bond distance:  H   _3     C   _2       1.104219
  bond distance:  H   _4     C   _2       1.104219
  bond distance:  H   _1     C   _1       1.104215
  bond distance:  H   _2     C   _2       1.104215
  bond distance:  H   _1     C   _1       1.104433
  bond distance:  H   _2     C   _2       1.104433


  Bond angles (degrees):
  ----------------------

                  atom 1     atom 2     atom 3         angle
                  ------     ------     ------         -----
  bond angle:     H   _1     C   _1     H   _2       109.411
  bond angle:     H   _1     C   _1     H   _1       109.412
  bond angle:     H   _1     C   _1     H   _1       109.531
  bond angle:     H   _2     C   _1     H   _1       109.412
  bond angle:     H   _2     C   _1     H   _1       109.531
  bond angle:     H   _1     C   _1     H   _1       109.532
  bond angle:     H   _3     C   _2     H   _4       109.411
  bond angle:     H   _3     C   _2     H   _2       109.412
  bond angle:     H   _3     C   _2     H   _2       109.531
  bond angle:     H   _4     C   _2     H   _2       109.412
  bond angle:     H   _4     C   _2     H   _2       109.531
  bond angle:     H   _2     C   _2     H   _2       109.532




 CPU time statistics for ABACUS
 ------------------------------




 >>>> Total CPU  time used in ABACUS:   0.02 seconds
 >>>> Total wall time used in ABACUS:   0.00 seconds


                   .-------------------------------------------.
                   | End of Static Property Section (ABACUS) - |
                   `-------------------------------------------'



          <<<<<<<<<<<<<<<<<<<<<<<<<<<<<<<<<<<<<<<<<<<<<<<<<<<<<<<<<<<<<<
          <<<<<<<<<<<<<<<<<<<<  End of Optimization <<<<<<<<<<<<<<<<<<<<
          <<<<<<<<<<<<<<<<<<<<<<<<<<<<<<<<<<<<<<<<<<<<<<<<<<<<<<<<<<<<<<



                              Final geometry (bohr)
                              ---------------------

 C   _1     3.4530201135            0.0006755619            0.0000000000
 C   _2    -3.4530201135           -0.0006755619            0.0000000000
 H   _1     2.7549351538           -0.9822996853            1.7031246961
 H   _2     2.7549351538           -0.9822996853           -1.7031246961
 H   _3    -2.7549351538            0.9822996853            1.7031246961
 H   _4    -2.7549351538            0.9822996853           -1.7031246961
 H   _1     2.7563606727            1.9676093945            0.0000000000
 H   _2    -2.7563606727           -1.9676093945            0.0000000000
 H   _1     5.5400964662           -0.0003484868            0.0000000000
 H   _2    -5.5400964662            0.0003484868            0.0000000000





                      Final geometry (xyz format; angstrom)
                      -------------------------------------

10

C        1.8272595525            0.0003574920            0.0000000000
C       -1.8272595525           -0.0003574920            0.0000000000
H        1.4578489006           -0.5198106076            0.9012547763
H        1.4578489006           -0.5198106076           -0.9012547763
H       -1.4578489006            0.5198106076            0.9012547763
H       -1.4578489006            0.5198106076           -0.9012547763
H        1.4586032527            1.0412140513            0.0000000000
H       -1.4586032527           -1.0412140513            0.0000000000
H        2.9316927956           -0.0001844113            0.0000000000
H       -2.9316927956            0.0001844113            0.0000000000



@ Iter     Energy        Change       GradNorm  Index   StepLen    TrustRad #Rej
@ ------------------------------------------------------------------------------
@   0      -79.994888     0.000000     0.033059    0    0.500023    0.500000   0 
@   1      -79.996122    -0.001234     0.004557    0    0.314488*   0.720034   1 
@   2      -79.996232    -0.000110     0.002159    0    0.036301*   0.314488   2 
@   3      -79.996236    -0.000004     0.000594    0    0.012098*   0.036301   0 
@   4      -79.996237    -0.000001     0.000113    0    0.026237*   0.036301   6#
@   5      -79.996235     0.000002     0.000092    0    0.009301*   0.026237   1 
@   6      -79.996233     0.000002     0.001278    0    0.009301    0.009301   0 
@   7      -79.996236    -0.000003     0.000033    0    0.005517*   0.011161   1 
@   8      -79.996236    -0.000000     0.000020    0    0.002978*   0.005517   0 

@  *) Newton step taken.
@  #) Hessian initialized to unity.


   Interatomic separations (in Angstrom):
   --------------------------------------

            C   _1      C   _2      H   _1      H   _2      H   _3      H   _4
            ------      ------      ------      ------      ------      ------
 C   _1:    0.000000
 C   _2:    3.654519    0.000000
 H   _1:    1.104219    3.445871    0.000000
 H   _2:    1.104219    3.445871    1.802510    0.000000
 H   _3:    3.445871    1.104219    3.095498    3.582059    0.000000
 H   _4:    3.445871    1.104219    3.582059    3.095498    1.802510    0.000000
 H   _1:    1.104215    3.446994    1.802515    1.802515    3.096743    3.096743
 H   _2:    3.446994    1.104215    3.096743    3.096743    1.802515    1.802515
 H   _1:    1.104433    4.758952    1.804020    1.804020    4.511178    4.511178
 H   _2:    4.758952    1.104433    4.511178    4.511178    1.804020    1.804020

            H   _1      H   _2      H   _1      H   _2
            ------      ------      ------      ------
 H   _1:    0.000000
 H   _2:    3.584215    0.000000
 H   _1:    1.804024    4.512033    0.000000
 H   _2:    4.512033    1.804024    5.863386    0.000000


  Max    interatomic separation is    5.8634 Angstrom (   11.0802 Bohr)
  between atoms   10 and    9, "H   _2" and "H   _1".

  Min HX interatomic separation is    1.1042 Angstrom (    2.0867 Bohr)

  Min YX interatomic separation is    3.6545 Angstrom (    6.9060 Bohr)


  Bond distances (Angstrom):
  --------------------------

                  atom 1     atom 2       distance
                  ------     ------       --------
  bond distance:  H   _1     C   _1       1.104219
  bond distance:  H   _2     C   _1       1.104219
  bond distance:  H   _3     C   _2       1.104219
  bond distance:  H   _4     C   _2       1.104219
  bond distance:  H   _1     C   _1       1.104215
  bond distance:  H   _2     C   _2       1.104215
  bond distance:  H   _1     C   _1       1.104433
  bond distance:  H   _2     C   _2       1.104433


  Bond angles (degrees):
  ----------------------

                  atom 1     atom 2     atom 3         angle
                  ------     ------     ------         -----
  bond angle:     H   _1     C   _1     H   _2       109.411
  bond angle:     H   _1     C   _1     H   _1       109.412
  bond angle:     H   _1     C   _1     H   _1       109.531
  bond angle:     H   _2     C   _1     H   _1       109.412
  bond angle:     H   _2     C   _1     H   _1       109.531
  bond angle:     H   _1     C   _1     H   _1       109.532
  bond angle:     H   _3     C   _2     H   _4       109.411
  bond angle:     H   _3     C   _2     H   _2       109.412
  bond angle:     H   _3     C   _2     H   _2       109.531
  bond angle:     H   _4     C   _2     H   _2       109.412
  bond angle:     H   _4     C   _2     H   _2       109.531
  bond angle:     H   _2     C   _2     H   _2       109.532



@ Geometry converged in  9 iterations!

@ Energy at final geometry is       :     -79.996236 a.u.
@ Energy change during optimization :      -0.001349 a.u.
@                                             -3.541 kJ/mol

 >>>> Total CPU  time used in DALTON:  54.83 seconds
 >>>> Total wall time used in DALTON:  43.87 seconds

 
     Date and time (Darwin) : Tue Oct  6 11:40:57 2015
     Host name              : adm-106152.local                        
