

     ************************************************************************
     *************** Dalton - An Electronic Structure Program ***************
     ************************************************************************

    This is output from DALTON (Release Dalton2013 patch 0)
   ----------------------------------------------------------------------------
    NOTE:
     
    Dalton is an experimental code for the evaluation of molecular
    properties using (MC)SCF, DFT, CI, and CC wave functions.
    The authors accept no responsibility for the performance of
    the code or for the correctness of the results.
     
    The code (in whole or part) is provided under a licence and
    is not to be reproduced for further distribution without
    the written permission of the authors or their representatives.
     
    See the home page "http://daltonprogram.org" for further information.
     
    If results obtained with this code are published,
    the appropriate citations would be both of:
     
       K. Aidas, C. Angeli, K. L. Bak, V. Bakken, R. Bast,
       L. Boman, O. Christiansen, R. Cimiraglia, S. Coriani,
       P. Dahle, E. K. Dalskov, U. Ekstroem, T. Enevoldsen,
       J. J. Eriksen, P. Ettenhuber, B. Fernandez, L. Ferrighi,
       H. Fliegl, L. Frediani, K. Hald, A. Halkier, C. Haettig,
       H. Heiberg, T. Helgaker, A. C. Hennum, H. Hettema,
       E. Hjertenaes, S. Hoest, I.-M. Hoeyvik, M. F. Iozzi,
       B. Jansik, H. J. Aa. Jensen, D. Jonsson, P. Joergensen,
       J. Kauczor, S. Kirpekar, T. Kjaergaard, W. Klopper,
       S. Knecht, R. Kobayashi, H. Koch, J. Kongsted, A. Krapp,
       K. Kristensen, A. Ligabue, O. B. Lutnaes, J. I. Melo,
       K. V. Mikkelsen, R. H. Myhre, C. Neiss, C. B. Nielsen,
       P. Norman, J. Olsen, J. M. H. Olsen, A. Osted,
       M. J. Packer, F. Pawlowski, T. B. Pedersen, P. F. Provasi,
       S. Reine, Z. Rinkevicius, T. A. Ruden, K. Ruud, V. Rybkin,
       P. Salek, C. C. M. Samson, A. Sanchez de Meras, T. Saue,
       S. P. A. Sauer, B. Schimmelpfennig, K. Sneskov,
       A. H. Steindal, K. O. Sylvester-Hvid, P. R. Taylor,
       A. M. Teale, E. I. Tellgren, D. P. Tew, A. J. Thorvaldsen,
       L. Thoegersen, O. Vahtras, M. A. Watson, D. J. D. Wilson,
       M. Ziolkowski and H. Agren.
       The Dalton quantum chemistry program system.
       WIREs Comput. Mol. Sci. 2013. doi: 10.1002/wcms.1172
    
    and
    
       Dalton, a Molecular Electronic Structure Program,
       Release DALTON2013.0 (2013), see http://daltonprogram.org
   ----------------------------------------------------------------------------

    Authors in alphabetical order (major contribution(s) in parenthesis):

  Kestutis Aidas,           Vilnius University,           Lithuania   (QM/MM)
  Celestino Angeli,         University of Ferrara,        Italy       (NEVPT2)
  Keld L. Bak,              UNI-C,                        Denmark     (AOSOPPA, non-adiabatic coupling, magnetic properties)
  Vebjoern Bakken,          University of Oslo,           Norway      (DALTON; geometry optimizer, symmetry detection)
  Radovan Bast,             KTH Stockholm                 Sweden      (DALTON installation and execution frameworks)
  Linus Boman,              NTNU,                         Norway      (Cholesky decomposition and subsystems)
  Ove Christiansen,         Aarhus University,            Denmark     (CC module)
  Renzo Cimiraglia,         University of Ferrara,        Italy       (NEVPT2)
  Sonia Coriani,            University of Trieste,        Italy       (CC module, MCD in RESPONS)
  Paal Dahle,               University of Oslo,           Norway      (Parallelization)
  Erik K. Dalskov,          UNI-C,                        Denmark     (SOPPA)
  Thomas Enevoldsen,        Univ. of Southern Denmark,    Denmark     (SOPPA)
  Janus J. Eriksen,         Aarhus University,            Denmark     (PE-MP2/SOPPA, TDA)
  Berta Fernandez,          U. of Santiago de Compostela, Spain       (doublet spin, ESR in RESPONS)
  Lara Ferrighi,            Aarhus University,            Denmark     (PCM Cubic response)
  Heike Fliegl,             University of Oslo,           Norway      (CCSD(R12))
  Luca Frediani,            UiT The Arctic U. of Norway,  Norway      (PCM)
  Bin Gao,                  UiT The Arctic U. of Norway,  Norway      (Gen1Int library)
  Christof Haettig,         Ruhr-University Bochum,       Germany     (CC module)
  Kasper Hald,              Aarhus University,            Denmark     (CC module)
  Asger Halkier,            Aarhus University,            Denmark     (CC module)
  Hanne Heiberg,            University of Oslo,           Norway      (geometry analysis, selected one-electron integrals)
  Trygve Helgaker,          University of Oslo,           Norway      (DALTON; ABACUS, ERI, DFT modules, London, and much more)
  Alf Christian Hennum,     University of Oslo,           Norway      (Parity violation)
  Hinne Hettema,            University of Auckland,       New Zealand (quadratic response in RESPONS; SIRIUS supersymmetry)
  Eirik Hjertenaes,         NTNU,                         Norway      (Cholesky decomposition)
  Maria Francesca Iozzi,    University of Oslo,           Norway      (RPA)
  Brano Jansik              Technical Univ. of Ostrava    Czech Rep.  (DFT cubic response)
  Hans Joergen Aa. Jensen,  Univ. of Southern Denmark,    Denmark     (DALTON; SIRIUS, RESPONS, ABACUS modules, London, and much more)
  Dan Jonsson,              UiT The Arctic U. of Norway,  Norway      (cubic response in RESPONS module)
  Poul Joergensen,          Aarhus University,            Denmark     (RESPONS, ABACUS, and CC modules)
  Joanna Kauczor,           Linkoeping University,        Sweden      (Complex polarization propagator (CPP) module)
  Sheela Kirpekar,          Univ. of Southern Denmark,    Denmark     (Mass-velocity & Darwin integrals)
  Wim Klopper,              KIT Karlsruhe,                Germany     (R12 code in CC, SIRIUS, and ABACUS modules)
  Stefan Knecht,            ETH Zurich,                   Switzerland (Parallel CI and MCSCF)
  Rika Kobayashi,           Australian National Univ.,    Australia   (DIIS in CC, London in MCSCF)
  Henrik Koch,              NTNU,                         Norway      (CC module, Cholesky decomposition)
  Jacob Kongsted,           Univ. of Southern Denmark,    Denmark     (Polarizable embedding, QM/MM)
  Andrea Ligabue,           University of Modena,         Italy       (CTOCD, AOSOPPA)
  Ola B. Lutnaes,           University of Oslo,           Norway      (DFT Hessian)
  Juan I. Melo,             University of Buenos Aires,   Argentina   (LRESC, Relativistic Effects on NMR Shieldings)
  Kurt V. Mikkelsen,        University of Copenhagen,     Denmark     (MC-SCRF and QM/MM)
  Rolf H. Myhre,            NTNU,                         Norway      (Cholesky, subsystems and ECC2)
  Christian Neiss,          Univ. Erlangen-Nuernberg,     Germany     (CCSD(R12))
  Christian B. Nielsen,     University of Copenhagen,     Denmark     (QM/MM)
  Patrick Norman,           Linkoeping University,        Sweden      (Cubic response and complex response in RESPONS)
  Jeppe Olsen,              Aarhus University,            Denmark     (SIRIUS CI/density modules)
  Jogvan Magnus H. Olsen,   Univ. of Southern Denmark,    Denmark     (Polarizable embedding, PE library, QM/MM)
  Anders Osted,             Copenhagen University,        Denmark     (QM/MM)
  Martin J. Packer,         University of Sheffield,      UK          (SOPPA)
  Filip Pawlowski,          Kazimierz Wielki University   Poland      (CC3)
  Thomas B. Pedersen,       University of Oslo,           Norway      (Cholesky decomposition)
  Patricio F. Provasi,      University of Northeastern,   Argentina   (Analysis of coupling constants in localized orbitals)
  Zilvinas Rinkevicius,     KTH Stockholm,                Sweden      (open-shell DFT, ESR)
  Elias Rudberg,            KTH Stockholm,                Sweden      (DFT grid and basis info)
  Torgeir A. Ruden,         University of Oslo,           Norway      (Numerical derivatives in ABACUS)
  Kenneth Ruud,             UiT The Arctic U. of Norway,  Norway      (DALTON; ABACUS magnetic properties and  much more)
  Pawel Salek,              KTH Stockholm,                Sweden      (DALTON; DFT code)
  Claire C. M. Samson       University of Karlsruhe       Germany     (Boys localization, r12 integrals in ERI)
  Alfredo Sanchez de Meras, University of Valencia,       Spain       (CC module, Cholesky decomposition)
  Trond Saue,               Paul Sabatier University,     France      (direct Fock matrix construction)
  Stephan P. A. Sauer,      University of Copenhagen,     Denmark     (SOPPA(CCSD), SOPPA prop., AOSOPPA, vibrational g-factors)
  Bernd Schimmelpfennig,    Forschungszentrum Karlsruhe,  Germany     (AMFI module)
  Kristian Sneskov,         Aarhus University,            Denmark     (QM/MM, PE-CC)
  Arnfinn H. Steindal,      UiT The Arctic U. of Norway,  Norway      (parallel QM/MM)
  K. O. Sylvester-Hvid,     University of Copenhagen,     Denmark     (MC-SCRF)
  Peter R. Taylor,          VLSCI/Univ. of Melbourne,     Australia   (Symmetry handling ABACUS, integral transformation)
  Andrew M. Teale,          University of Nottingham,     England     (DFT-AC, DFT-D)
  David P. Tew,             University of Bristol,        England     (CCSD(R12))
  Olav Vahtras,             KTH Stockholm,                Sweden      (triplet response, spin-orbit, ESR, TDDFT, open-shell DFT)
  David J. Wilson,          La Trobe University,          Australia   (DFT Hessian and DFT magnetizabilities)
  Hans Agren,               KTH Stockholm,                Sweden      (SIRIUS module, RESPONS, MC-SCRF solvation model)
 --------------------------------------------------------------------------------

     Date and time (Linux)  : Sun Sep  8 20:56:49 2013
     Host name              : lpqlx131.ups-tlse.fr                    

 * Work memory size             :    64000000 =  488.28 megabytes.

 * Directories for basis set searches:
   1) /home/bast/DALTON-2013.0-Source/build/test_vibave_spinspin
   2) /home/bast/DALTON-2013.0-Source/build/basis


Compilation information
-----------------------

 Who compiled             | bast
 Host                     | lpqlx131.ups-tlse.fr
 System                   | Linux-3.8.5-201.fc18.x86_64
 CMake generator          | Unix Makefiles
 Processor                | x86_64
 64-bit integers          | OFF
 MPI                      | OFF
 Fortran compiler         | /usr/bin/gfortran
 Fortran compiler version | GNU Fortran (GCC) 4.7.2 20121109 (Red Hat 4.7.2-8)
 C compiler               | /usr/bin/gcc
 C compiler version       | gcc (GCC) 4.7.2 20121109 (Red Hat 4.7.2-8)
 C++ compiler             | /usr/bin/g++
 C++ compiler version     | g++ (GCC) 4.7.2 20121109 (Red Hat 4.7.2-8)
 Static linking           | OFF
 Last Git revision        | f34203295a86316e27f9e7b44f9b6769c4a046c0
 Configuration time       | 2013-09-08 20:31:27.952056


   Content of the .dal input file
 ----------------------------------

**DALTON INPUT                                    
.NMDDRV                                           
**NMDDRV                                          
.SYMMETRY                                         
  C2v                                             
.VIBANA                                           
.DISPLA                                           
 0.01                                             
*PROPAV                                           
.ANHA-P                                           
**WAVE FUNCTIONS                                  
.HF                                               
*SCF INPUT                                        
.THRESH                                           
 1.0D-12                                          
**EACH STEP                                       
.SPIN-SPIN                                        
*SPIN-S                                           
.SELECT                                           
  3                                               
  1  2  3                                         
*TRPRSP                                           
.THRESH                                           
1.0D-12                                           
*LINRES                                           
.THRESH                                           
1.0D-12                                           
**END OF DALTON INPUT                             


   Content of the .mol file
 ----------------------------

BASIS                                                                          
STO-3G                                                                         
H2O                                                                            
                                                                               
Atomtypes=2                                                                    
Atoms=1 Charge=8.0                                                             
O     0.0000000000        0.0000000000       -0.8009956615 Isotope=18          
Charge=1.0 Atoms=2                                                             
H     0.0000000000        1.4325641791        0.4004978308                     
H     0.0000000000       -1.4325641791        0.4004978308                     


       *******************************************************************
       *********** Output from DALTON general input processing ***********
       *******************************************************************

 --------------------------------------------------------------------------------
   Overall default print level:    0
   Print level for DALTON.STAT:    1

    Geometry optimization
      Starting at iteration:    0
      Maximum number of iterations:   20
    "Old" integral transformation used (limited to max 255 basis functions)
    Numerical derivatives will be calculated
 --------------------------------------------------------------------------------


                  .----------------------------------------------.
                  | Commencing geometry optimization using .WALK |
                  `----------------------------------------------'



     @@>>>>>>>>>> Geometry walk iteration number:    0 <<<<<<<<<<




   ****************************************************************************
   *************** Output of molecule and basis set information ***************
   ****************************************************************************


    The two title cards from your ".mol" input:
    ------------------------------------------------------------------------
 1: H2O                                                                     
 2:                                                                         
    ------------------------------------------------------------------------

  Atomic type no.    1
  --------------------
  Nuclear charge:   8.00000
  Number of symmetry independent centers:    1
  Number of basis sets to read;    2
  Basis set file used for this atomic type with Z =   8 :
     "/home/bast/DALTON-2013.0-Source/build/basis/STO-3G"

  Atomic type no.    2
  --------------------
  Nuclear charge:   1.00000
  Number of symmetry independent centers:    2
  Number of basis sets to read;    2
  Basis set file used for this atomic type with Z =   1 :
     "/home/bast/DALTON-2013.0-Source/build/basis/STO-3G"


                      SYMADD: Requested addition of symmetry
                      --------------------------------------

 Symmetry test threshold:  5.00E-06

 - molecule centered at center of mass and rotated so
   principal axes of inertia are along coordinate axes.

 Symmetry class found: C(2v)          

 Symmetry Independent Centres             
 ----------------------------
       8 :      0.00000000     0.00000000    -0.12099992  Isotope  2
       1 :      0.00000000     1.43256418     1.08049357  Isotope  1

 The following elements were found:   X  Y     


                         SYMGRP: Point group information
                         -------------------------------

Full point group is: C(2v)          
Represented as:      C2v

   * The point group was generated by:

      Reflection in the yz-plane
      Reflection in the xz-plane

   * Group multiplication table

        |  E   C2z  Oxz  Oyz
   -----+--------------------
     E  |  E   C2z  Oxz  Oyz
    C2z | C2z   E   Oyz  Oxz
    Oxz | Oxz  Oyz   E   C2z
    Oyz | Oyz  Oxz  C2z   E 

   * Character table

        |  E   C2z  Oxz  Oyz
   -----+--------------------
    A1  |   1    1    1    1
    B1  |   1   -1    1   -1
    B2  |   1   -1   -1    1
    A2  |   1    1   -1   -1

   * Direct product table

        | A1   B1   B2   A2 
   -----+--------------------
    A1  | A1   B1   B2   A2 
    B1  | B1   A1   A2   B2 
    B2  | B2   A2   A1   B1 
    A2  | A2   B2   B1   A1 


                                 Isotopic Masses
                                 ---------------

                           O          17.999159
                           H   _1      1.007825
                           H   _2      1.007825

                       Total mass:    20.014809 amu
                       Natural abundance:   0.200 %

 Center-of-mass coordinates (a.u.):    0.000000    0.000000    0.000000


  Atoms and basis sets
  --------------------

  Number of atom types :    2
  Total number of atoms:    3

  Basis set used is "STO-3G" from the basis set library.

  label    atoms   charge   prim   cont     basis
  ----------------------------------------------------------------------
  O           1    8.0000    15     5      [6s3p|2s1p]                                        
  H           2    1.0000     3     1      [3s|1s]                                            
  ----------------------------------------------------------------------
  total:      3   10.0000    21     7
  ----------------------------------------------------------------------

  Threshold for neglecting AO integrals:  1.00D-12


  Cartesian Coordinates (a.u.)
  ----------------------------

  Total number of coordinates:    9
  O       :     1  x   0.0000000000    2  y   0.0000000000    3  z  -0.1209999235
  H   / 1 :     4  x   0.0000000000    5  y   1.4325641791    6  z   1.0804935688
  H   / 2 :     7  x   0.0000000000    8  y  -1.4325641791    9  z   1.0804935688


  Symmetry Coordinates
  --------------------

  Number of coordinates in each symmetry:     3    2    3    1

  Symmetry  A1  ( 1)

    1   O     z    3
    2   H     y    [  5  -    8 ]/2
    3   H     z    [  6  +    9 ]/2

  Symmetry  B1  ( 2)

    4   O     x    1
    5   H     x    [  4  +    7 ]/2

  Symmetry  B2  ( 3)

    6   O     y    2
    7   H     y    [  5  +    8 ]/2
    8   H     z    [  6  -    9 ]/2

  Symmetry  A2  ( 4)

    9   H     x    [  4  -    7 ]/2


   Interatomic separations (in Angstrom):
   --------------------------------------

            O           H   _1      H   _2
            ------      ------      ------
 O     :    0.000000
 H   _1:    0.989410    0.000000
 H   _2:    0.989410    1.516161    0.000000


  Max    interatomic separation is    1.5162 Angstrom (    2.8651 Bohr)
  between atoms    3 and    2, "H   _2" and "H   _1".

  Min HX interatomic separation is    0.9894 Angstrom (    1.8697 Bohr)


  Bond distances (Angstrom):
  --------------------------

                  atom 1     atom 2       distance
                  ------     ------       --------
  bond distance:  H   _1     O            0.989410
  bond distance:  H   _2     O            0.989410


  Bond angles (degrees):
  ----------------------

                  atom 1     atom 2     atom 3         angle
                  ------     ------     ------         -----
  bond angle:     H   _1     O          H   _2       100.027




 Principal moments of inertia (u*A**2) and principal axes
 --------------------------------------------------------

   IA       0.732759          0.000000    1.000000    0.000000
   IB       1.158365          0.000000    0.000000    1.000000
   IC       1.891124          1.000000    0.000000    0.000000


 Rotational constants
 --------------------

 The molecule is planar.

               A                   B                   C

         689693.6051         436286.3577         267237.3584 MHz
           23.005702           14.552946            8.914079 cm-1


@  Nuclear repulsion energy :    8.906487554664 Hartree


  Symmetry Orbitals
  -----------------

  Number of orbitals in each symmetry:           4    1    2    0


  Symmetry  A1 ( 1)

    1     O        1s         1
    2     O        1s         2
    3     O        2pz        5
    4     H        1s         6 +    7


  Symmetry  B1 ( 2)

    5     O        2px        3


  Symmetry  B2 ( 3)

    6     O        2py        4
    7     H        1s         6 -    7


  No orbitals in symmetry  A2 ( 4)

  Symmetries of electric field:  B1 (2)  B2 (3)  A1 (1)

  Symmetries of magnetic field:  B2 (3)  B1 (2)  A2 (4)


                     .---------------------------------------.
                     | Starting in Integral Section (HERMIT) |
                     `---------------------------------------'



    *************************************************************************
    ****************** Output from HERMIT input processing ******************
    *************************************************************************



     ************************************************************************
     ************************** Output from HERINT **************************
     ************************************************************************


 Threshold for neglecting two-electron integrals:  1.00D-12
 Number of two-electron integrals written:         138 ( 34.0% )
 Megabytes written:                              0.007

 >>>> Total CPU  time used in HERMIT:   0.00 seconds
 >>>> Total wall time used in HERMIT:   0.00 seconds


                        .----------------------------------.
                        | End of Integral Section (HERMIT) |
                        `----------------------------------'



                   .--------------------------------------------.
                   | Starting in Wave Function Section (SIRIUS) |
                   `--------------------------------------------'


 *** Output from Huckel module :

     Using EWMO model:          F
     Using EHT  model:          T
     Number of Huckel orbitals each symmetry:    4    1    2    0

 Huckel EHT eigenvalues for symmetry :  1
          -20.702675      -1.493181      -0.677078      -0.301597

 Huckel EHT eigenvalues for symmetry :  2
           -0.616200

 Huckel EHT eigenvalues for symmetry :  3
           -0.723673      -0.265496

 **********************************************************************
 *SIRIUS* a direct, restricted step, second order MCSCF program       *
 **********************************************************************

 
     Date and time (Linux)  : Sun Sep  8 20:56:49 2013
     Host name              : lpqlx131.ups-tlse.fr                    

 Title lines from ".mol" input file:
     H2O                                                                     
                                                                             

 Print level on unit LUPRI =   2 is   0
 Print level on unit LUW4  =   2 is   5

@    Restricted, closed shell Hartree-Fock calculation.

 Initial molecular orbitals are obtained according to
 ".MOSTART EHT   " input option

     Wave function specification
     ============================
@    For the wave function of type :      >>> HF <<<
@    Number of closed shell electrons          10
@    Number of electrons in active shells       0
@    Total charge of the molecule               0

@    Spin multiplicity and 2 M_S                1         0
     Total number of symmetries                 4
@    Reference state symmetry                   1

     Orbital specifications
     ======================
     Abelian symmetry species          All |    1    2    3    4
                                       --- |  ---  ---  ---  ---
     Total number of orbitals            7 |    4    1    2    0
     Number of basis functions           7 |    4    1    2    0

      ** Automatic occupation of RHF orbitals **

      -- Initial occupation of symmetries is determined from extended Huckel guess.           
      -- Initial occupation of symmetries is :
@    Occupied SCF orbitals               5 |    3    1    1    0

     Maximum number of Fock   iterations      0
     Maximum number of DIIS   iterations     60
     Maximum number of QC-SCF iterations     60
     Threshold for SCF convergence     1.00D-12


 >>>>> DIIS optimization of Hartree-Fock <<<<<

 C1-DIIS algorithm; max error vectors =    4

 Automatic occupation of symmetries with  10 electrons.

 Iter     Total energy    Error norm  Delta(E)    SCF occupation
 -----------------------------------------------------------------------------
     (Precalculated two-electron integrals are transformed to P-supermatrix elements.
      Threshold for discarding integrals :  1.00D-12 )
@  1  -74.8614812061       1.78D+00  -7.49D+01     3   1   1   0
      Virial theorem: -V/T =      2.003392
@      MULPOP O      -0.36; H   _1  0.18; H   _2  0.18; 
 -----------------------------------------------------------------------------
@  2  -74.9602651426       2.38D-01  -9.88D-02     3   1   1   0
      Virial theorem: -V/T =      2.007483
@      MULPOP O      -0.32; H   _1  0.16; H   _2  0.16; 
 -----------------------------------------------------------------------------
@  3  -74.9656615390       4.86D-02  -5.40D-03     3   1   1   0
      Virial theorem: -V/T =      2.006384
@      MULPOP O      -0.33; H   _1  0.16; H   _2  0.16; 
 -----------------------------------------------------------------------------
@  4  -74.9658987284       3.52D-03  -2.37D-04     3   1   1   0
      Virial theorem: -V/T =      2.006018
@      MULPOP O      -0.33; H   _1  0.17; H   _2  0.17; 
 -----------------------------------------------------------------------------
@  5  -74.9659011616       3.96D-04  -2.43D-06     3   1   1   0
      Virial theorem: -V/T =      2.006002
@      MULPOP O      -0.33; H   _1  0.17; H   _2  0.17; 
 -----------------------------------------------------------------------------
@  6  -74.9659011927       2.87D-05  -3.10D-08     3   1   1   0
      Virial theorem: -V/T =      2.006003
@      MULPOP O      -0.33; H   _1  0.17; H   _2  0.17; 
 -----------------------------------------------------------------------------
@  7  -74.9659011928       4.27D-08  -8.98D-11     3   1   1   0
      Virial theorem: -V/T =      2.006003
@      MULPOP O      -0.33; H   _1  0.17; H   _2  0.17; 
 -----------------------------------------------------------------------------
@  8  -74.9659011928       9.69D-11   0.00D+00     3   1   1   0
      Virial theorem: -V/T =      2.006003
@      MULPOP O      -0.33; H   _1  0.17; H   _2  0.17; 
 -----------------------------------------------------------------------------
@  9  -74.9659011928       1.76D-12   0.00D+00     3   1   1   0
      Virial theorem: -V/T =      2.006003
@      MULPOP O      -0.33; H   _1  0.17; H   _2  0.17; 
 -----------------------------------------------------------------------------
@ 10  -74.9659011928       1.12D-13  -2.84D-14     3   1   1   0

@ *** DIIS converged in  10 iterations !
@     Converged SCF energy, gradient:    -74.965901192777    1.12D-13
    - total time used in SIRFCK :              0.00 seconds


 *** SCF orbital energy analysis ***

 Only the five lowest virtual orbital energies printed in each symmetry.

 Number of electrons :   10
 Orbital occupations :    3    1    1    0

 Sym       Hartree-Fock orbital energies

  1    -20.25157697    -1.25754913    -0.45973017     0.58179404

  2     -0.39261707

  3     -0.59385495     0.69267398

    E(LUMO) :     0.58179404 au (symmetry 1)
  - E(HOMO) :    -0.39261707 au (symmetry 2)
  ------------------------------------------
    gap     :     0.97441111 au

 >>> Writing SIRIFC interface file <<<

 >>>> CPU and wall time for SCF :       0.004       0.004


                       .-----------------------------------.
                       | >>> Final results from SIRIUS <<< |
                       `-----------------------------------'


@    Spin multiplicity:           1
@    Spatial symmetry:            1
@    Total charge of molecule:    0

@    Final HF energy:             -74.965901192777                 
@    Nuclear repulsion:             8.906487554664
@    Electronic energy:           -83.872388747441

@    Final gradient norm:           0.000000000000

 
     Date and time (Linux)  : Sun Sep  8 20:56:49 2013
     Host name              : lpqlx131.ups-tlse.fr                    

 (Only coefficients >0.0100 are printed.)

 Molecular orbitals for symmetry species  1
 ------------------------------------------

    Orbital         1        2        3        4
   1 O   :1s     0.9942  -0.2338   0.1040   0.1258
   2 O   :1s     0.0258   0.8444  -0.5382  -0.8201
   3 O   :2pz    0.0042   0.1228   0.7559  -0.7636
   4 H   :1s    -0.0056   0.1556   0.2951   0.7692

 Molecular orbitals for symmetry species  2
 ------------------------------------------

    Orbital         1
   1 O   :2px    1.0000

 Molecular orbitals for symmetry species  3
 ------------------------------------------

    Orbital         1        2
   1 O   :2py    0.6127  -0.9598
   2 H   :1s     0.4492   0.8146



 >>>> Total CPU  time used in SIRIUS :      0.01 seconds
 >>>> Total wall time used in SIRIUS :      0.01 seconds

 
     Date and time (Linux)  : Sun Sep  8 20:56:49 2013
     Host name              : lpqlx131.ups-tlse.fr                    


                     .---------------------------------------.
                     | End of Wave Function Section (SIRIUS) |
                     `---------------------------------------'



                  .----------------------------------------------.
                  | Geometry steps to make numerical derivatives |
                  `----------------------------------------------'


     Order of analytical energy-derivatives available:   2
     This will be the default.


 Changes of defaults for **NMDDR:
 --------------------------------


     A vibrational analysis is done.
     Which/how is specified in *VIBANA (and **EACH STEP).
     Group used for force constants: C2v            
     Step size used:     0.0100


 Changes of defaults for *PROPAV section:
 ----------------------------------------


     Numerical derivatives of energy calculated to order   1
     from analytical   2. derivatives
     Total order of differentiation:   3
     Effective geometry calculated.
     Vibrational averages of properties calculated.

     Vibrational averages of the following properties:
     Harmonic and anharmonic contributions calculated
     Cannot use group theory for this. 
     Group used in calculations: C2v            


           ************************************************************
           ****************** Numerical derivatives. ******************
           ************************************************************



 Derivatives calculated:
 -----------------------

           Derivatives calculated to order  2
           Analytical derivatives from energies to   2 order.
           0. numerical derivatives from  2. order analytical derivatives


                       Making symmetry adapted coor in C2v
                       -----------------------------------



                     Group matrix elements for the group C2v
                     ---------------------------------------

 1. irep:
  1.00  1.00  1.00  1.00
 2. irep:
  1.00 -1.00  1.00 -1.00
 3. irep:
  1.00  1.00 -1.00 -1.00
 4. irep:
  1.00 -1.00 -1.00  1.00
                                      


 Characters for the group C2v
 ----------------------------

 1. irep:
  1.0  1.0  1.0  1.0
 2. irep:
  1.0 -1.0  1.0 -1.0
 3. irep:
  1.0  1.0 -1.0 -1.0
 4. irep:
  1.0 -1.0 -1.0  1.0
                                      


                               Symmetry coordinates
                               --------------------

Symmetry   1       1       1       2       2       3       4       4       4
        0.0000  0.0000  0.0000  1.0000  0.0000  0.0000  0.0000  0.0000  0.0000
        0.0000  0.0000  0.0000  0.0000  0.0000  0.0000  1.0000  0.0000  0.0000
        1.0000  0.0000  0.0000  0.0000  0.0000  0.0000  0.0000  0.0000  0.0000
        0.0000  0.0000  0.0000  0.0000  0.7071  0.7071  0.0000  0.0000  0.0000
        0.0000  0.7071  0.0000  0.0000 -0.0000 -0.0000  0.0000  0.7071  0.0000
        0.0000  0.0000  0.7071  0.0000  0.0000  0.0000  0.0000  0.0000  0.7071
        0.0000  0.0000  0.0000  0.0000  0.7071 -0.7071  0.0000 -0.0000  0.0000
        0.0000 -0.7071  0.0000  0.0000  0.0000 -0.0000  0.0000  0.7071  0.0000
        0.0000  0.0000  0.7071  0.0000  0.0000  0.0000  0.0000  0.0000 -0.7071
                             
                             
                                


 Next numerical derivative component
 -----------------------------------

     Starting geometry.


 **************************************************************************************
 ****************** Output of molecule and basis set info suppressed ******************
 **************************************************************************************



                     .---------------------------------------.
                     | Starting in Integral Section (HERMIT) |
                     `---------------------------------------'



    *************************************************************************
    ****************** Output from HERMIT input processing ******************
    *************************************************************************


 Threshold for neglecting two-electron integrals:  1.00D-12
 Number of two-electron integrals written:         138 ( 34.0% )
 Megabytes written:                              0.007

 >>>> Total CPU  time used in HERMIT:   0.00 seconds
 >>>> Total wall time used in HERMIT:   0.00 seconds


                        .----------------------------------.
                        | End of Integral Section (HERMIT) |
                        `----------------------------------'



                   .--------------------------------------------.
                   | Starting in Wave Function Section (SIRIUS) |
                   `--------------------------------------------'


 *** Output from Huckel module :

     Using EWMO model:          F
     Using EHT  model:          T
     Number of Huckel orbitals each symmetry:    4    1    2    0

 Huckel EHT eigenvalues for symmetry :  1
          -20.702675      -1.493181      -0.677078      -0.301597

 Huckel EHT eigenvalues for symmetry :  2
           -0.616200

 Huckel EHT eigenvalues for symmetry :  3
           -0.723673      -0.265496

 **********************************************************************
 *SIRIUS* a direct, restricted step, second order MCSCF program       *
 **********************************************************************

 (Wave function specification NOT suppressed here, because symmetry has changed.)

 
     Date and time (Linux)  : Sun Sep  8 20:56:49 2013
     Host name              : lpqlx131.ups-tlse.fr                    

 Title lines from ".mol" input file:
     H2O                                                                     
                                                                             

 Print level on unit LUPRI =   2 is   0
 Print level on unit LUW4  =   2 is   3

@    Restricted, closed shell Hartree-Fock calculation.

 Initial molecular orbitals are obtained according to
 ".MOSTART EHT   " input option

     Wave function specification
     ============================
@    For the wave function of type :      >>> HF <<<
@    Number of closed shell electrons          10
@    Number of electrons in active shells       0
@    Total charge of the molecule               0

@    Spin multiplicity and 2 M_S                1         0
     Total number of symmetries                 4
@    Reference state symmetry                   1

     Orbital specifications
     ======================
     Abelian symmetry species          All |    1    2    3    4
                                       --- |  ---  ---  ---  ---
     Total number of orbitals            7 |    4    1    2    0
     Number of basis functions           7 |    4    1    2    0

      ** Automatic occupation of RHF orbitals **

      -- Initial occupation of symmetries is determined from extended Huckel guess.           
      -- Initial occupation of symmetries is :
@    Occupied SCF orbitals               5 |    3    1    1    0

     Maximum number of Fock   iterations      0
     Maximum number of DIIS   iterations     60
     Maximum number of QC-SCF iterations     60
     Threshold for SCF convergence     1.00D-12


 >>>>> DIIS optimization of Hartree-Fock <<<<<

 C1-DIIS algorithm; max error vectors =    4

 Automatic occupation of symmetries with  10 electrons.

 Iter     Total energy    Error norm  Delta(E)    SCF occupation
 -----------------------------------------------------------------------------
     (Precalculated two-electron integrals are transformed to P-supermatrix elements.
      Threshold for discarding integrals :  1.00D-12 )
@  1  -74.8614812061       1.78D+00   1.04D-01     3   1   1   0
      Virial theorem: -V/T =      2.003392
@      MULPOP O      -0.36; H   _1  0.18; H   _2  0.18; 
 -----------------------------------------------------------------------------
@  2  -74.9602651426       2.38D-01  -9.88D-02     3   1   1   0
      Virial theorem: -V/T =      2.007483
@      MULPOP O      -0.32; H   _1  0.16; H   _2  0.16; 
 -----------------------------------------------------------------------------
@  3  -74.9656615390       4.86D-02  -5.40D-03     3   1   1   0
      Virial theorem: -V/T =      2.006384
@      MULPOP O      -0.33; H   _1  0.16; H   _2  0.16; 
 -----------------------------------------------------------------------------
@  4  -74.9658987284       3.52D-03  -2.37D-04     3   1   1   0
      Virial theorem: -V/T =      2.006018
@      MULPOP O      -0.33; H   _1  0.17; H   _2  0.17; 
 -----------------------------------------------------------------------------
@  5  -74.9659011616       3.96D-04  -2.43D-06     3   1   1   0
      Virial theorem: -V/T =      2.006002
@      MULPOP O      -0.33; H   _1  0.17; H   _2  0.17; 
 -----------------------------------------------------------------------------
@  6  -74.9659011927       2.87D-05  -3.10D-08     3   1   1   0
      Virial theorem: -V/T =      2.006003
@      MULPOP O      -0.33; H   _1  0.17; H   _2  0.17; 
 -----------------------------------------------------------------------------
@  7  -74.9659011928       4.27D-08  -8.98D-11     3   1   1   0
      Virial theorem: -V/T =      2.006003
@      MULPOP O      -0.33; H   _1  0.17; H   _2  0.17; 
 -----------------------------------------------------------------------------
@  8  -74.9659011928       9.69D-11   5.68D-14     3   1   1   0
      Virial theorem: -V/T =      2.006003
@      MULPOP O      -0.33; H   _1  0.17; H   _2  0.17; 
 -----------------------------------------------------------------------------
@  9  -74.9659011928       1.76D-12  -4.26D-14     3   1   1   0
      Virial theorem: -V/T =      2.006003
@      MULPOP O      -0.33; H   _1  0.17; H   _2  0.17; 
 -----------------------------------------------------------------------------
@ 10  -74.9659011928       1.14D-13   1.42D-14     3   1   1   0

@ *** DIIS converged in  10 iterations !
@     Converged SCF energy, gradient:    -74.965901192777    1.14D-13
    - total time used in SIRFCK :              0.00 seconds


 *** SCF orbital energy analysis ***

 Only the five lowest virtual orbital energies printed in each symmetry.

 Number of electrons :   10
 Orbital occupations :    3    1    1    0

 Sym       Hartree-Fock orbital energies

  1    -20.25157697    -1.25754913    -0.45973017     0.58179404

  2     -0.39261707

  3     -0.59385495     0.69267398

    E(LUMO) :     0.58179404 au (symmetry 1)
  - E(HOMO) :    -0.39261707 au (symmetry 2)
  ------------------------------------------
    gap     :     0.97441111 au

 >>> Writing SIRIFC interface file <<<

 >>>> CPU and wall time for SCF :       0.003       0.004


                       .-----------------------------------.
                       | >>> Final results from SIRIUS <<< |
                       `-----------------------------------'


@    Spin multiplicity:           1
@    Spatial symmetry:            1
@    Total charge of molecule:    0

@    Final HF energy:             -74.965901192777                 
@    Nuclear repulsion:             8.906487554664
@    Electronic energy:           -83.872388747441

@    Final gradient norm:           0.000000000000

 
     Date and time (Linux)  : Sun Sep  8 20:56:49 2013
     Host name              : lpqlx131.ups-tlse.fr                    



 >>>> Total CPU  time used in SIRIUS :      0.01 seconds
 >>>> Total wall time used in SIRIUS :      0.00 seconds

 
     Date and time (Linux)  : Sun Sep  8 20:56:49 2013
     Host name              : lpqlx131.ups-tlse.fr                    


                     .---------------------------------------.
                     | End of Wave Function Section (SIRIUS) |
                     `---------------------------------------'


     Order of analytical energy-derivatives available:   2
     This will be the default.


        *****************************************************************
        ******** Output from **EACH  input processing for ABACUS ********
        *****************************************************************



 The following molecular properties will be calculated in this run:
 ------------------------------------------------------------------

 Default print level:       -2

      The molecular gradient
      The molecular Hessian
      Nuclear spin-spin coupling constants
      Natural orbital connection is used
      for perturbation dependent basis sets.

 >>>>> WARNING - RHF calculations of spin-spin coupling constants are likely to give
 >>>>> WARNING - qualitatively incorrect results !!!


  Only the spin-spin couplings between the following nuclei will be calculated:
  -----------------------------------------------------------------------------

             1           2           3



 Changes of defaults for SPIN-S:
 -------------------------------

 Print level in spin-spin output routine:    -2


 Changes of defaults for TRPRSP:
 -------------------------------

 Threshold in TRPRSP          : 1.00E-12
 Maximum iterations in TRPRSP :   60


 Changes of defaults for LINRES:
 -------------------------------

 Singlet linear response module for properties
 as VCD, MAGSUS, SPIN-SPIN, SHIELD, SPINRO, MOLGFA
 Print level in LINRES        :   -2
 Threshold in LINRES          : 1.00D-12
 Maximum iterations in LINRES :   60

 Center of mass dipole origin  :    0.000000    0.000000    0.000000

 Center of mass gauge origin   :    0.000000    0.000000    0.000000


                 .------------------------------------------------.
                 | Starting in Static Property Section (ABACUS) - |
                 `------------------------------------------------'


 
     Date and time (Linux)  : Sun Sep  8 20:56:49 2013
     Host name              : lpqlx131.ups-tlse.fr                    


   ***************************************************************************
   ************************ FINAL RESULTS from ABACUS ************************
   ***************************************************************************


 
     Date and time (Linux)  : Sun Sep  8 20:56:49 2013
     Host name              : lpqlx131.ups-tlse.fr                    


 CPU time statistics for ABACUS
 ------------------------------




 >>>> Total CPU  time used in ABACUS:   0.02 seconds
 >>>> Total wall time used in ABACUS:   0.02 seconds


                   .-------------------------------------------.
                   | End of Static Property Section (ABACUS) - |
                   `-------------------------------------------'



                    Numerical gradient in symmetry coordinates
                    ------------------------------------------



                         Gradient in symmetry coordinates
                         --------------------------------

                                    -0.00000058
                                    -0.00000003
                                     0.00000041


                        Gradient in cartesian coordinates
                        ---------------------------------

 O          0.0000000000            0.0000000000           -0.0000005771
 H   _1     0.0000000000           -0.0000000245            0.0000002885
 H   _2     0.0000000000            0.0000000245            0.0000002885


                     Gradient in Dalton symmetry coordinates
                     ---------------------------------------

                         O    z    -0.0000005771
                         H    y    -0.0000000490
                         H    z     0.0000005771


                    Numerical hessian in symmetry coordinates
                    -----------------------------------------



                         Hessian in symmetry coordinates
                         -------------------------------

              1           1           1           2           2           3
    1      0.634900
    1     -0.305911    0.475847
    1     -0.448942    0.216312    0.317450
    2      0.000000   -0.000000    0.000000    0.000000
    2      0.000000   -0.000000   -0.000000   -0.000000    0.000000
    3      0.000000    0.000000    0.000000    0.000000   -0.000000   -0.000000
    4      0.000000    0.000000    0.000000    0.000000    0.000000    0.000000
    4      0.000000    0.000000    0.000000    0.000000    0.000000   -0.000000
    4      0.000000    0.000000    0.000000    0.000000    0.000000   -0.000000
                                       
              4           4           4
    4      0.803949
    4     -0.568478    0.401975
    4     -0.476783    0.337136    0.282757
                                       


                           Cartesian Hessian in GSPHES
                           ---------------------------

            O      x    O      y    O      z    H   _1 x    H   _1 y    H   _1 z

 O      x    0.000000
 O      y    0.000000    0.803949
 O      z    0.000000    0.000000    0.634900

 H   _1 x   -0.000000   -0.000000   -0.000000    0.000000
 H   _1 y    0.000000   -0.401975   -0.216312    0.000000    0.438911
 H   _1 z    0.000000   -0.337136   -0.317450    0.000000    0.276724    0.300103

 H   _2 x   -0.000000    0.000000   -0.000000    0.000000    0.000000   -0.000000
 H   _2 y    0.000000   -0.401975    0.216312    0.000000   -0.036936    0.060412
 H   _2 z    0.000000    0.337136   -0.317450   -0.000000   -0.060412    0.017347


            H   _2 x    H   _2 y    H   _2 z

 H   _2 x    0.000000
 H   _2 y   -0.000000    0.438911
 H   _2 z    0.000000   -0.276724    0.300103




                                 Isotopic Masses
                                 ---------------

                           O          17.999159
                           H   _1      1.007825
                           H   _2      1.007825

                       Total mass:    20.014809 amu
                       Natural abundance:   0.200 %

 Center-of-mass coordinates (a.u.):    0.000000    0.000000    0.000000
          Number of modes with zero frequency:   6


                 Vibrational frequencies harmonic approximation:
                 -----------------------------------------------

                     Mode     cm-1       hartrees  
                       1     4130.34    0.018819
                       1     2161.53    0.009849
                       4     4374.19    0.019930


 Normal coordinates:
 -------------------

          1            1            4
    0.0000000    0.0000000    0.0000000
    0.0000000    0.0000000   -0.0605605
   -0.0465017   -0.0614729    0.0000000
    0.0000000   -0.0000000    0.0000000
    0.5713921   -0.4436004    0.5407871
    0.4152467    0.5489347    0.4535587
    0.0000000   -0.0000000   -0.0000000
   -0.5713921    0.4436004    0.5407871
    0.4152467    0.5489347   -0.4535587
                                        


           ************************************************************
           ****************** Numerical derivatives. ******************
           ************************************************************



 Derivatives calculated:
 -----------------------

           Derivatives calculated to order  3
           Analytical derivatives from energies to   2 order.
           1. numerical derivatives from  2. order analytical derivatives


 Next numerical derivative component
 -----------------------------------

    1


 **************************************************************************************
 ****************** Output of molecule and basis set info suppressed ******************
 **************************************************************************************



                      SYMADD: Requested addition of symmetry
                      --------------------------------------

 Symmetry test threshold:  5.00E-06

 Symmetry class found: C(2v)          

 The following elements were found:   X  Y     


                     .---------------------------------------.
                     | Starting in Integral Section (HERMIT) |
                     `---------------------------------------'



    *************************************************************************
    ****************** Output from HERMIT input processing ******************
    *************************************************************************


 Threshold for neglecting two-electron integrals:  1.00D-12
 Number of two-electron integrals written:         138 ( 34.0% )
 Megabytes written:                              0.007

 >>>> Total CPU  time used in HERMIT:   0.00 seconds
 >>>> Total wall time used in HERMIT:   0.00 seconds


                        .----------------------------------.
                        | End of Integral Section (HERMIT) |
                        `----------------------------------'



                   .--------------------------------------------.
                   | Starting in Wave Function Section (SIRIUS) |
                   `--------------------------------------------'


 *** Output from Huckel module :

     Using EWMO model:          F
     Using EHT  model:          T
     Number of Huckel orbitals each symmetry:    4    1    2    0

 Huckel EHT eigenvalues for symmetry :  1
          -20.702341      -1.491331      -0.677209      -0.302785

 Huckel EHT eigenvalues for symmetry :  2
           -0.616200

 Huckel EHT eigenvalues for symmetry :  3
           -0.723591      -0.266443

 **********************************************************************
 *SIRIUS* a direct, restricted step, second order MCSCF program       *
 **********************************************************************

 (Wave function specification NOT suppressed here, because symmetry has changed.)

 
     Date and time (Linux)  : Sun Sep  8 20:56:49 2013
     Host name              : lpqlx131.ups-tlse.fr                    

 Title lines from ".mol" input file:
     H2O                                                                     
                                                                             

 Print level on unit LUPRI =   2 is   0
 Print level on unit LUW4  =   2 is   3

@    Restricted, closed shell Hartree-Fock calculation.

 Initial molecular orbitals are obtained according to
 ".MOSTART EHT   " input option

     Wave function specification
     ============================
@    For the wave function of type :      >>> HF <<<
@    Number of closed shell electrons          10
@    Number of electrons in active shells       0
@    Total charge of the molecule               0

@    Spin multiplicity and 2 M_S                1         0
     Total number of symmetries                 4
@    Reference state symmetry                   1

     Orbital specifications
     ======================
     Abelian symmetry species          All |    1    2    3    4
                                       --- |  ---  ---  ---  ---
     Total number of orbitals            7 |    4    1    2    0
     Number of basis functions           7 |    4    1    2    0

      ** Automatic occupation of RHF orbitals **

      -- Initial occupation of symmetries is determined from extended Huckel guess.           
      -- Initial occupation of symmetries is :
@    Occupied SCF orbitals               5 |    3    1    1    0

     Maximum number of Fock   iterations      0
     Maximum number of DIIS   iterations     60
     Maximum number of QC-SCF iterations     60
     Threshold for SCF convergence     1.00D-12


 >>>>> DIIS optimization of Hartree-Fock <<<<<

 C1-DIIS algorithm; max error vectors =    4

 Automatic occupation of symmetries with  10 electrons.

 Iter     Total energy    Error norm  Delta(E)    SCF occupation
 -----------------------------------------------------------------------------
     (Precalculated two-electron integrals are transformed to P-supermatrix elements.
      Threshold for discarding integrals :  1.00D-12 )
@  1  -74.8616240071       1.78D+00   1.04D-01     3   1   1   0
      Virial theorem: -V/T =      2.003449
@      MULPOP O      -0.36; H   _1  0.18; H   _2  0.18; 
 -----------------------------------------------------------------------------
@  2  -74.9602323990       2.37D-01  -9.86D-02     3   1   1   0
      Virial theorem: -V/T =      2.007604
@      MULPOP O      -0.32; H   _1  0.16; H   _2  0.16; 
 -----------------------------------------------------------------------------
@  3  -74.9656271879       4.86D-02  -5.39D-03     3   1   1   0
      Virial theorem: -V/T =      2.006492
@      MULPOP O      -0.33; H   _1  0.16; H   _2  0.16; 
 -----------------------------------------------------------------------------
@  4  -74.9658652210       3.53D-03  -2.38D-04     3   1   1   0
      Virial theorem: -V/T =      2.006128
@      MULPOP O      -0.33; H   _1  0.16; H   _2  0.16; 
 -----------------------------------------------------------------------------
@  5  -74.9658676780       4.38D-04  -2.46D-06     3   1   1   0
      Virial theorem: -V/T =      2.006111
@      MULPOP O      -0.33; H   _1  0.16; H   _2  0.16; 
 -----------------------------------------------------------------------------
@  6  -74.9658677153       3.90D-05  -3.72D-08     3   1   1   0
      Virial theorem: -V/T =      2.006113
@      MULPOP O      -0.33; H   _1  0.16; H   _2  0.16; 
 -----------------------------------------------------------------------------
@  7  -74.9658677155       3.90D-08  -1.78D-10     3   1   1   0
      Virial theorem: -V/T =      2.006112
@      MULPOP O      -0.33; H   _1  0.16; H   _2  0.16; 
 -----------------------------------------------------------------------------
@  8  -74.9658677155       4.95D-10   0.00D+00     3   1   1   0
      Virial theorem: -V/T =      2.006112
@      MULPOP O      -0.33; H   _1  0.16; H   _2  0.16; 
 -----------------------------------------------------------------------------
@  9  -74.9658677155       9.03D-11   2.84D-14     3   1   1   0
      Virial theorem: -V/T =      2.006112
@      MULPOP O      -0.33; H   _1  0.16; H   _2  0.16; 
 -----------------------------------------------------------------------------
@ 10  -74.9658677155       1.97D-11   0.00D+00     3   1   1   0
      Virial theorem: -V/T =      2.006112
@      MULPOP O      -0.33; H   _1  0.16; H   _2  0.16; 
 -----------------------------------------------------------------------------
@ 11  -74.9658677155       5.56D-12   0.00D+00     3   1   1   0
      Virial theorem: -V/T =      2.006112
@      MULPOP O      -0.33; H   _1  0.16; H   _2  0.16; 
 -----------------------------------------------------------------------------
@ 12  -74.9658677155       2.48D-13   0.00D+00     3   1   1   0

@ *** DIIS converged in  12 iterations !
@     Converged SCF energy, gradient:    -74.965867715451    2.48D-13
    - total time used in SIRFCK :              0.00 seconds


 *** SCF orbital energy analysis ***

 Only the five lowest virtual orbital energies printed in each symmetry.

 Number of electrons :   10
 Orbital occupations :    3    1    1    0

 Sym       Hartree-Fock orbital energies

  1    -20.25208573    -1.25569242    -0.45922956     0.57810629

  2     -0.39243151

  3     -0.59194086     0.68833174

    E(LUMO) :     0.57810629 au (symmetry 1)
  - E(HOMO) :    -0.39243151 au (symmetry 2)
  ------------------------------------------
    gap     :     0.97053780 au

 >>> Writing SIRIFC interface file <<<

 >>>> CPU and wall time for SCF :       0.004       0.004


                       .-----------------------------------.
                       | >>> Final results from SIRIUS <<< |
                       `-----------------------------------'


@    Spin multiplicity:           1
@    Spatial symmetry:            1
@    Total charge of molecule:    0

@    Final HF energy:             -74.965867715451                 
@    Nuclear repulsion:             8.871614306203
@    Electronic energy:           -83.837482021654

@    Final gradient norm:           0.000000000000

 
     Date and time (Linux)  : Sun Sep  8 20:56:49 2013
     Host name              : lpqlx131.ups-tlse.fr                    



 >>>> Total CPU  time used in SIRIUS :      0.01 seconds
 >>>> Total wall time used in SIRIUS :      0.00 seconds

 
     Date and time (Linux)  : Sun Sep  8 20:56:49 2013
     Host name              : lpqlx131.ups-tlse.fr                    

 NOTE:    1 warnings have been issued.
 Check output, result, and error files for "WARNING".


                     .---------------------------------------.
                     | End of Wave Function Section (SIRIUS) |
                     `---------------------------------------'


     Order of analytical energy-derivatives available:   2
     This will be the default.


        *****************************************************************
        ******** Output from **EACH  input processing for ABACUS ********
        *****************************************************************



 The following molecular properties will be calculated in this run:
 ------------------------------------------------------------------

 Default print level:       -2

      The molecular gradient
      The molecular Hessian
      Nuclear spin-spin coupling constants
      Natural orbital connection is used
      for perturbation dependent basis sets.

 >>>>> WARNING - RHF calculations of spin-spin coupling constants are likely to give
 >>>>> WARNING - qualitatively incorrect results !!!


  Only the spin-spin couplings between the following nuclei will be calculated:
  -----------------------------------------------------------------------------

             1           2           3



 Changes of defaults for SPIN-S:
 -------------------------------

 Print level in spin-spin output routine:    -2


 Changes of defaults for TRPRSP:
 -------------------------------

 Threshold in TRPRSP          : 1.00E-12
 Maximum iterations in TRPRSP :   60

 Center of mass dipole origin  :    0.000000    0.000000    0.000000

 Center of mass gauge origin   :    0.000000    0.000000    0.000000


                 .------------------------------------------------.
                 | Starting in Static Property Section (ABACUS) - |
                 `------------------------------------------------'


 
     Date and time (Linux)  : Sun Sep  8 20:56:49 2013
     Host name              : lpqlx131.ups-tlse.fr                    

Symmetry -> DSO by analytical integration.


   ***************************************************************************
   ************************ FINAL RESULTS from ABACUS ************************
   ***************************************************************************


 
     Date and time (Linux)  : Sun Sep  8 20:56:49 2013
     Host name              : lpqlx131.ups-tlse.fr                    


 *******************************************************************************
 **************** ABACUS - INDIRECT NUCLEAR SPIN-SPIN COUPLINGS ****************
 *******************************************************************************

 Definitions from Smith, Palke, and Grieg, Concepts in Mag. Res. 4 (1992) 107



                       +------------------------------------+
                       ! ABACUS - Final spin-spin couplings !
                       +------------------------------------+



              Indirect spin-spin coupling between H   _1 and O     :
              ======================================================


  Mass number atom 1:    1;   Abundance:  99.985 %;   g factor:   5.585694
  Mass number atom 2:   17;   Abundance:   0.040 %;   g factor:  -0.757516

  Isotropic coupling        :      8.7632 Hz
  Anisotropic coupling      :    -57.3979 Hz
  Asymmetry                 :      0.4463   
  S parameter               :    -59.2728 Hz
  A parameter               :     -0.1926 Hz
  Isotropic DSO contribution:     -0.4914 Hz
  Isotropic PSO contribution:     -4.6644 Hz
  Isotropic SD contribution :      1.4642 Hz
  Isotropic FC contribution :     12.4548 Hz




                           Total Coupling Tensor in Hz
                           ---------------------------

                             x              y              z

                x    36.43487      -0.000000      -0.000000    
                y   -0.000000      -5.149956      -24.62192    
                z   -0.000000      -24.23667      -4.995233    


              Indirect spin-spin coupling between H   _2 and O     :
              ======================================================


  Mass number atom 1:    1;   Abundance:  99.985 %;   g factor:   5.585694
  Mass number atom 2:   17;   Abundance:   0.040 %;   g factor:  -0.757516

  Isotropic coupling        :      8.7632 Hz
  Anisotropic coupling      :    -57.3979 Hz
  Asymmetry                 :      0.4463   
  S parameter               :    -59.2728 Hz
  A parameter               :     -0.1926 Hz
  Isotropic DSO contribution:     -0.4914 Hz
  Isotropic PSO contribution:     -4.6644 Hz
  Isotropic SD contribution :      1.4642 Hz
  Isotropic FC contribution :     12.4548 Hz




                           Total Coupling Tensor in Hz
                           ---------------------------

                             x              y              z

                x    36.43487      -0.000000      -0.000000    
                y   -0.000000      -5.149956       24.62192    
                z   -0.000000       24.23667      -4.995233    


              Indirect spin-spin coupling between H   _2 and H   _1:
              ======================================================


  Mass number atom 1:    1;   Abundance:  99.985 %;   g factor:   5.585694
  Mass number atom 2:    1;   Abundance:  99.985 %;   g factor:   5.585694

  Isotropic coupling        :    -27.1718 Hz
  Anisotropic coupling      :    -52.4523 Hz
  Asymmetry                 :     -0.5214   
  S parameter               :     54.7776 Hz
  A parameter               :     10.5434 Hz
  Isotropic DSO contribution:     -4.8431 Hz
  Isotropic PSO contribution:      3.1620 Hz
  Isotropic SD contribution :      1.2329 Hz
  Isotropic FC contribution :    -26.7236 Hz




                           Total Coupling Tensor in Hz
                           ---------------------------

                             x              y              z

                x   -62.14003       0.000000       0.000000    
                y    0.000000     -0.5710868      -10.54340    
                z    0.000000       10.54340      -18.80441    


 CPU time statistics for ABACUS
 ------------------------------




 >>>> Total CPU  time used in ABACUS:   0.07 seconds
 >>>> Total wall time used in ABACUS:   0.07 seconds


                   .-------------------------------------------.
                   | End of Static Property Section (ABACUS) - |
                   `-------------------------------------------'



 Next numerical derivative component
 -----------------------------------

    1


 **************************************************************************************
 ****************** Output of molecule and basis set info suppressed ******************
 **************************************************************************************



                      SYMADD: Requested addition of symmetry
                      --------------------------------------

 Symmetry test threshold:  5.00E-06

 Symmetry class found: C(2v)          

 The following elements were found:   X  Y     


                     .---------------------------------------.
                     | Starting in Integral Section (HERMIT) |
                     `---------------------------------------'



    *************************************************************************
    ****************** Output from HERMIT input processing ******************
    *************************************************************************


 Threshold for neglecting two-electron integrals:  1.00D-12
 Number of two-electron integrals written:         138 ( 34.0% )
 Megabytes written:                              0.007

 >>>> Total CPU  time used in HERMIT:   0.00 seconds
 >>>> Total wall time used in HERMIT:   0.00 seconds


                        .----------------------------------.
                        | End of Integral Section (HERMIT) |
                        `----------------------------------'



                   .--------------------------------------------.
                   | Starting in Wave Function Section (SIRIUS) |
                   `--------------------------------------------'


 *** Output from Huckel module :

     Using EWMO model:          F
     Using EHT  model:          T
     Number of Huckel orbitals each symmetry:    4    1    2    0

 Huckel EHT eigenvalues for symmetry :  1
          -20.703013      -1.495038      -0.676944      -0.300405

 Huckel EHT eigenvalues for symmetry :  2
           -0.616200

 Huckel EHT eigenvalues for symmetry :  3
           -0.723751      -0.264549

 **********************************************************************
 *SIRIUS* a direct, restricted step, second order MCSCF program       *
 **********************************************************************

 (Wave function specification NOT suppressed here, because symmetry has changed.)

 
     Date and time (Linux)  : Sun Sep  8 20:56:49 2013
     Host name              : lpqlx131.ups-tlse.fr                    

 Title lines from ".mol" input file:
     H2O                                                                     
                                                                             

 Print level on unit LUPRI =   2 is   0
 Print level on unit LUW4  =   2 is   3

@    Restricted, closed shell Hartree-Fock calculation.

 Initial molecular orbitals are obtained according to
 ".MOSTART EHT   " input option

     Wave function specification
     ============================
@    For the wave function of type :      >>> HF <<<
@    Number of closed shell electrons          10
@    Number of electrons in active shells       0
@    Total charge of the molecule               0

@    Spin multiplicity and 2 M_S                1         0
     Total number of symmetries                 4
@    Reference state symmetry                   1

     Orbital specifications
     ======================
     Abelian symmetry species          All |    1    2    3    4
                                       --- |  ---  ---  ---  ---
     Total number of orbitals            7 |    4    1    2    0
     Number of basis functions           7 |    4    1    2    0

      ** Automatic occupation of RHF orbitals **

      -- Initial occupation of symmetries is determined from extended Huckel guess.           
      -- Initial occupation of symmetries is :
@    Occupied SCF orbitals               5 |    3    1    1    0

     Maximum number of Fock   iterations      0
     Maximum number of DIIS   iterations     60
     Maximum number of QC-SCF iterations     60
     Threshold for SCF convergence     1.00D-12


 >>>>> DIIS optimization of Hartree-Fock <<<<<

 C1-DIIS algorithm; max error vectors =    4

 Automatic occupation of symmetries with  10 electrons.

 Iter     Total energy    Error norm  Delta(E)    SCF occupation
 -----------------------------------------------------------------------------
     (Precalculated two-electron integrals are transformed to P-supermatrix elements.
      Threshold for discarding integrals :  1.00D-12 )
@  1  -74.8612671236       1.79D+00   1.05D-01     3   1   1   0
      Virial theorem: -V/T =      2.003333
@      MULPOP O      -0.36; H   _1  0.18; H   _2  0.18; 
 -----------------------------------------------------------------------------
@  2  -74.9602309418       2.38D-01  -9.90D-02     3   1   1   0
      Virial theorem: -V/T =      2.007359
@      MULPOP O      -0.32; H   _1  0.16; H   _2  0.16; 
 -----------------------------------------------------------------------------
@  3  -74.9656284760       4.86D-02  -5.40D-03     3   1   1   0
      Virial theorem: -V/T =      2.006273
@      MULPOP O      -0.33; H   _1  0.17; H   _2  0.17; 
 -----------------------------------------------------------------------------
@  4  -74.9658647959       3.50D-03  -2.36D-04     3   1   1   0
      Virial theorem: -V/T =      2.005905
@      MULPOP O      -0.33; H   _1  0.17; H   _2  0.17; 
 -----------------------------------------------------------------------------
@  5  -74.9658672009       3.82D-04  -2.40D-06     3   1   1   0
      Virial theorem: -V/T =      2.005890
@      MULPOP O      -0.33; H   _1  0.17; H   _2  0.17; 
 -----------------------------------------------------------------------------
@  6  -74.9658672303       2.03D-05  -2.94D-08     3   1   1   0
      Virial theorem: -V/T =      2.005891
@      MULPOP O      -0.33; H   _1  0.17; H   _2  0.17; 
 -----------------------------------------------------------------------------
@  7  -74.9658672303       4.79D-08  -4.17D-11     3   1   1   0
      Virial theorem: -V/T =      2.005890
@      MULPOP O      -0.33; H   _1  0.17; H   _2  0.17; 
 -----------------------------------------------------------------------------
@  8  -74.9658672303       5.60D-10  -1.42D-14     3   1   1   0
      Virial theorem: -V/T =      2.005890
@      MULPOP O      -0.33; H   _1  0.17; H   _2  0.17; 
 -----------------------------------------------------------------------------
@  9  -74.9658672303       1.39D-11   0.00D+00     3   1   1   0
      Virial theorem: -V/T =      2.005890
@      MULPOP O      -0.33; H   _1  0.17; H   _2  0.17; 
 -----------------------------------------------------------------------------
@ 10  -74.9658672303       2.20D-12   0.00D+00     3   1   1   0
      Virial theorem: -V/T =      2.005890
@      MULPOP O      -0.33; H   _1  0.17; H   _2  0.17; 
 -----------------------------------------------------------------------------
@ 11  -74.9658672303       7.02D-13   0.00D+00     3   1   1   0

@ *** DIIS converged in  11 iterations !
@     Converged SCF energy, gradient:    -74.965867230345    7.02D-13
    - total time used in SIRFCK :              0.00 seconds


 *** SCF orbital energy analysis ***

 Only the five lowest virtual orbital energies printed in each symmetry.

 Number of electrons :   10
 Orbital occupations :    3    1    1    0

 Sym       Hartree-Fock orbital energies

  1    -20.25107395    -1.25942850    -0.46022995     0.58550071

  2     -0.39281106

  3     -0.59577793     0.69704192

    E(LUMO) :     0.58550071 au (symmetry 1)
  - E(HOMO) :    -0.39281106 au (symmetry 2)
  ------------------------------------------
    gap     :     0.97831177 au

 >>> Writing SIRIFC interface file <<<

 >>>> CPU and wall time for SCF :       0.003       0.003


                       .-----------------------------------.
                       | >>> Final results from SIRIUS <<< |
                       `-----------------------------------'


@    Spin multiplicity:           1
@    Spatial symmetry:            1
@    Total charge of molecule:    0

@    Final HF energy:             -74.965867230345                 
@    Nuclear repulsion:             8.941636008363
@    Electronic energy:           -83.907503238708

@    Final gradient norm:           0.000000000001

 
     Date and time (Linux)  : Sun Sep  8 20:56:49 2013
     Host name              : lpqlx131.ups-tlse.fr                    



 >>>> Total CPU  time used in SIRIUS :      0.01 seconds
 >>>> Total wall time used in SIRIUS :      0.00 seconds

 
     Date and time (Linux)  : Sun Sep  8 20:56:49 2013
     Host name              : lpqlx131.ups-tlse.fr                    

 NOTE:    2 warnings have been issued.
 Check output, result, and error files for "WARNING".


                     .---------------------------------------.
                     | End of Wave Function Section (SIRIUS) |
                     `---------------------------------------'


     Order of analytical energy-derivatives available:   2
     This will be the default.


        *****************************************************************
        ******** Output from **EACH  input processing for ABACUS ********
        *****************************************************************



 The following molecular properties will be calculated in this run:
 ------------------------------------------------------------------

 Default print level:       -2

      The molecular gradient
      The molecular Hessian
      Nuclear spin-spin coupling constants
      Natural orbital connection is used
      for perturbation dependent basis sets.

 >>>>> WARNING - RHF calculations of spin-spin coupling constants are likely to give
 >>>>> WARNING - qualitatively incorrect results !!!


  Only the spin-spin couplings between the following nuclei will be calculated:
  -----------------------------------------------------------------------------

             1           2           3



 Changes of defaults for SPIN-S:
 -------------------------------

 Print level in spin-spin output routine:    -2


 Changes of defaults for TRPRSP:
 -------------------------------

 Threshold in TRPRSP          : 1.00E-12
 Maximum iterations in TRPRSP :   60

 Center of mass dipole origin  :    0.000000    0.000000    0.000000

 Center of mass gauge origin   :    0.000000    0.000000    0.000000


                 .------------------------------------------------.
                 | Starting in Static Property Section (ABACUS) - |
                 `------------------------------------------------'


 
     Date and time (Linux)  : Sun Sep  8 20:56:49 2013
     Host name              : lpqlx131.ups-tlse.fr                    

Symmetry -> DSO by analytical integration.


   ***************************************************************************
   ************************ FINAL RESULTS from ABACUS ************************
   ***************************************************************************


 
     Date and time (Linux)  : Sun Sep  8 20:56:49 2013
     Host name              : lpqlx131.ups-tlse.fr                    


 *******************************************************************************
 **************** ABACUS - INDIRECT NUCLEAR SPIN-SPIN COUPLINGS ****************
 *******************************************************************************

 Definitions from Smith, Palke, and Grieg, Concepts in Mag. Res. 4 (1992) 107



                       +------------------------------------+
                       ! ABACUS - Final spin-spin couplings !
                       +------------------------------------+



              Indirect spin-spin coupling between H   _1 and O     :
              ======================================================


  Mass number atom 1:    1;   Abundance:  99.985 %;   g factor:   5.585694
  Mass number atom 2:   17;   Abundance:   0.040 %;   g factor:  -0.757516

  Isotropic coupling        :      6.6932 Hz
  Anisotropic coupling      :    -55.1070 Hz
  Asymmetry                 :      0.4611   
  S parameter               :    -57.0261 Hz
  A parameter               :     -0.1813 Hz
  Isotropic DSO contribution:     -0.5056 Hz
  Isotropic PSO contribution:     -4.7460 Hz
  Isotropic SD contribution :      1.4160 Hz
  Isotropic FC contribution :     10.5288 Hz




                           Total Coupling Tensor in Hz
                           ---------------------------

                             x              y              z

                x    33.53174      -0.000000      -0.000000    
                y   -0.000000      -6.949065      -23.49896    
                z   -0.000000      -23.13629      -6.503105    


              Indirect spin-spin coupling between H   _2 and O     :
              ======================================================


  Mass number atom 1:    1;   Abundance:  99.985 %;   g factor:   5.585694
  Mass number atom 2:   17;   Abundance:   0.040 %;   g factor:  -0.757516

  Isotropic coupling        :      6.6932 Hz
  Anisotropic coupling      :    -55.1070 Hz
  Asymmetry                 :      0.4611   
  S parameter               :    -57.0261 Hz
  A parameter               :     -0.1813 Hz
  Isotropic DSO contribution:     -0.5056 Hz
  Isotropic PSO contribution:     -4.7460 Hz
  Isotropic SD contribution :      1.4160 Hz
  Isotropic FC contribution :     10.5288 Hz




                           Total Coupling Tensor in Hz
                           ---------------------------

                             x              y              z

                x    33.53174      -0.000000      -0.000000    
                y   -0.000000      -6.949065       23.49896    
                z   -0.000000       23.13629      -6.503105    


              Indirect spin-spin coupling between H   _2 and H   _1:
              ======================================================


  Mass number atom 1:    1;   Abundance:  99.985 %;   g factor:   5.585694
  Mass number atom 2:    1;   Abundance:  99.985 %;   g factor:   5.585694

  Isotropic coupling        :    -25.9755 Hz
  Anisotropic coupling      :    -52.3071 Hz
  Asymmetry                 :     -0.5471   
  S parameter               :     54.8542 Hz
  A parameter               :     10.8112 Hz
  Isotropic DSO contribution:     -4.9707 Hz
  Isotropic PSO contribution:      3.2532 Hz
  Isotropic SD contribution :      1.2227 Hz
  Isotropic FC contribution :    -25.4807 Hz




                           Total Coupling Tensor in Hz
                           ---------------------------

                             x              y              z

                x   -60.84688       0.000000       0.000000    
                y    0.000000      0.9987070      -10.81123    
                z    0.000000       10.81123      -18.07826    


 CPU time statistics for ABACUS
 ------------------------------




 >>>> Total CPU  time used in ABACUS:   0.07 seconds
[...]
               ! Checking derivative with respect to new coordinate !
               +----------------------------------------------------+

Coordinate number   7
                                     Best guess      Second choice Two point formula


               +----------------------------------------------------+
               ! Checking derivative with respect to new coordinate !
               +----------------------------------------------------+

Coordinate number   8
                                     Best guess      Second choice Two point formula


               +----------------------------------------------------+
               ! Checking derivative with respect to new coordinate !
               +----------------------------------------------------+

Coordinate number   9
                                     Best guess      Second choice Two point formula


                     Numerical gradient in normal coordinates
                     ----------------------------------------



                          Gradient in normal coordinates
                          ------------------------------

                                     0.00000024
                                     0.00000037


                        Gradient in cartesian coordinates
                        ---------------------------------

 O          0.0000000000            0.0000000000           -0.0000000341
 H   _1    -0.0000000000           -0.0000000297            0.0000003043
 H   _2    -0.0000000000            0.0000000297            0.0000003043


                     Gradient in Dalton symmetry coordinates
                     ---------------------------------------

                         O    z    -0.0000000341
                         H    y    -0.0000000593
                         H    z     0.0000006086


                     Numerical hessian in normal coordinates
                     ---------------------------------------



                          Hessian in normal coordinates
                          -----------------------------

              1           1           4
    1      0.674372
    1     -0.000000    0.189549
    4      0.000000    0.000000    0.774869
                                       


            Numerical third derivative of energy in normal coordinates
            ----------------------------------------------------------



                     Diagonal of cubic force field, F(I,J,J)
                     ---------------------------------------

        -1.469720    0.090044   -1.620801
         0.008182    0.101275   -0.152634
        -0.000000   -0.000000   -0.000000
                                  


@>>> Number of hessian  calculations done:         8


 *************************************************************************************
 ****************** Numerical derivatives have now been calculated. ******************
 *************************************************************************************



 Analysis using the numerical derivatives
 ----------------------------------------


 Properties that are analyzed: 

 - Frequency analysis and efficient geometry.


              ******************************************************
              *** Output from Anharmonic Force Constant analysis ***
              ******************************************************



  Effective geometry corrections in normal coordinates
  ----------------------------------------------------

Normal mode:    1   Frequency:    0.0188   Displacement:    0.0296
Normal mode:    2   Frequency:    0.0098   Displacement:   -0.0021
Normal mode:    3   Frequency:    0.0199   Displacement:    0.0000


                          +------------------------------+
                          ! Change to effective geometry !
                          +------------------------------+



                            Cartesian coordinates (au)
                            --------------------------

 O          0.0000000000           -0.0000000000           -0.0012182044
 H   _1     0.0000000000            0.0174427489            0.0108782058
 H   _2     0.0000000000           -0.0174427489            0.0108782058


                          +------------------------------+
                          ! Estimated effective geometry !
                          +------------------------------+



                            Cartesian coordinates (au)
                            --------------------------

 O          0.0000000000           -0.0000000000           -0.1222181279
 H   _1     0.0000000000            1.4500069280            1.0913717746
 H   _2     0.0000000000           -1.4500069280            1.0913717746


     ************************************************************************
     ****************** Vibrational average of properties. ******************
     ************************************************************************



 Vibrational averaged SPIN-SPIN couplings
 ----------------------------------------

 Definitions from Smith, Palke, and Grieg, Concepts in Mag. Res. 4 (1992) 107



                       +------------------------------------+
                       ! ABACUS - Final spin-spin couplings !
                       +------------------------------------+



              Indirect spin-spin coupling between H   _1 and O     :
              ======================================================


  Mass number atom 1:    1;   Abundance:  99.985 %;   g factor:   5.585694
  Mass number atom 2:   17;   Abundance:   0.040 %;   g factor:  -0.757516

  Isotropic coupling        :     12.1191 Hz
  Anisotropic coupling      :    -63.7819 Hz
  Asymmetry                 :      0.4178   
  S parameter               :    -65.6114 Hz
  A parameter               :     -0.2300 Hz
  Isotropic DSO contribution:     -0.4952 Hz
  Isotropic PSO contribution:     -4.5951 Hz
  Isotropic SD contribution :      1.5334 Hz
  Isotropic FC contribution :     15.6760 Hz




                           Total Coupling Tensor in Hz
                           ---------------------------

                             x              y              z

                x    42.26280      -0.000000      -0.000000    
                y   -0.000000      -2.834679      -27.67917    
                z   -0.000000      -27.21922      -3.070806    


              Indirect spin-spin coupling between H   _2 and O     :
              ======================================================


  Mass number atom 1:    1;   Abundance:  99.985 %;   g factor:   5.585694
  Mass number atom 2:   17;   Abundance:   0.040 %;   g factor:  -0.757516

  Isotropic coupling        :     12.1191 Hz
  Anisotropic coupling      :    -63.7819 Hz
  Asymmetry                 :      0.4178   
  S parameter               :    -65.6114 Hz
  A parameter               :     -0.2300 Hz
  Isotropic DSO contribution:     -0.4952 Hz
  Isotropic PSO contribution:     -4.5951 Hz
  Isotropic SD contribution :      1.5334 Hz
  Isotropic FC contribution :     15.6760 Hz




                           Total Coupling Tensor in Hz
                           ---------------------------

                             x              y              z

                x    42.26280      -0.000000      -0.000000    
                y   -0.000000      -2.834679       27.67917    
                z   -0.000000       27.21922      -3.070806    


              Indirect spin-spin coupling between H   _2 and H   _1:
              ======================================================


  Mass number atom 1:    1;   Abundance:  99.985 %;   g factor:   5.585694
  Mass number atom 2:    1;   Abundance:  99.985 %;   g factor:   5.585694

  Isotropic coupling        :    -31.9490 Hz
  Anisotropic coupling      :    -55.5922 Hz
  Asymmetry                 :     -0.4620   
  S parameter               :     57.5363 Hz
  A parameter               :     10.3436 Hz
  Isotropic DSO contribution:     -4.7096 Hz
  Isotropic PSO contribution:      3.0429 Hz
  Isotropic SD contribution :      1.2430 Hz
  Isotropic FC contribution :    -31.5254 Hz




                           Total Coupling Tensor in Hz
                           ---------------------------

                             x              y              z

                x   -69.01050       0.000000       0.000000    
                y    0.000000      -4.856238      -10.34363    
                z    0.000000       10.34363      -21.98032    


 Harmonic contribution to vibrational average of property SPIN-SPIN
 ------------------------------------------------------------------

 Definitions from Smith, Palke, and Grieg, Concepts in Mag. Res. 4 (1992) 107



                       +------------------------------------+
                       ! ABACUS - Final spin-spin couplings !
                       +------------------------------------+



              Indirect spin-spin coupling between H   _1 and O     :
              ======================================================


  Mass number atom 1:    1;   Abundance:  99.985 %;   g factor:   5.585694
  Mass number atom 2:   17;   Abundance:   0.040 %;   g factor:  -0.757516

  Isotropic coupling        :      1.4662 Hz
  Anisotropic coupling      :     -4.2725 Hz
  Asymmetry                 :      0.1971   
  S parameter               :     -4.3001 Hz
  A parameter               :     -0.0310 Hz
  Isotropic DSO contribution:     -0.0172 Hz
  Isotropic PSO contribution:     -0.0098 Hz
  Isotropic SD contribution :      0.0251 Hz
  Isotropic FC contribution :      1.4681 Hz




                           Total Coupling Tensor in Hz
                           ---------------------------

                             x              y              z

                x    3.171019      -0.000000      -0.000000    
                y   -0.000000      0.6390816      -2.026760    
                z   -0.000000      -1.964802      0.5884302    


              Indirect spin-spin coupling between H   _2 and O     :
              ======================================================


  Mass number atom 1:    1;   Abundance:  99.985 %;   g factor:   5.585694
  Mass number atom 2:   17;   Abundance:   0.040 %;   g factor:  -0.757516

  Isotropic coupling        :      1.4662 Hz
  Anisotropic coupling      :     -4.2725 Hz
  Asymmetry                 :      0.1971   
  S parameter               :     -4.3001 Hz
  A parameter               :     -0.0310 Hz
  Isotropic DSO contribution:     -0.0172 Hz
  Isotropic PSO contribution:     -0.0098 Hz
  Isotropic SD contribution :      0.0251 Hz
  Isotropic FC contribution :      1.4681 Hz




                           Total Coupling Tensor in Hz
                           ---------------------------

                             x              y              z

                x    3.171019      -0.000000      -0.000000    
                y   -0.000000      0.6390816       2.026760    
                z   -0.000000       1.964802      0.5884302    


              Indirect spin-spin coupling between H   _2 and H   _1:
              ======================================================


  Mass number atom 1:    1;   Abundance:  99.985 %;   g factor:   5.585694
  Mass number atom 2:    1;   Abundance:  99.985 %;   g factor:   5.585694

  Isotropic coupling        :     -3.7190 Hz
  Anisotropic coupling      :     -3.0065 Hz
  Asymmetry                 :     -0.1956   
  S parameter               :      3.0256 Hz
  A parameter               :      0.0434 Hz
  Isotropic DSO contribution:      0.0318 Hz
  Isotropic PSO contribution:     -0.0366 Hz
  Isotropic SD contribution :      0.0039 Hz
  Isotropic FC contribution :     -3.7182 Hz




                           Total Coupling Tensor in Hz
                           ---------------------------

                             x              y              z

                x   -5.723357       0.000000       0.000000    
                y    0.000000      -2.912897     -4.3410089E-02
                z    0.000000      4.3410090E-02  -2.520823    


 Anharmonic contribution to vibrational average of property SPIN-SPIN
 --------------------------------------------------------------------

 Definitions from Smith, Palke, and Grieg, Concepts in Mag. Res. 4 (1992) 107



                       +------------------------------------+
                       ! ABACUS - Final spin-spin couplings !
                       +------------------------------------+



              Indirect spin-spin coupling between H   _1 and O     :
              ======================================================


  Mass number atom 1:    1;   Abundance:  99.985 %;   g factor:   5.585694
  Mass number atom 2:   17;   Abundance:   0.040 %;   g factor:  -0.757516

  Isotropic coupling        :      2.9316 Hz
  Anisotropic coupling      :     -3.2992 Hz
  Asymmetry                 :      0.0818   
  S parameter               :     -3.3029 Hz
  A parameter               :     -0.0117 Hz
  Isotropic DSO contribution:      0.0204 Hz
  Isotropic PSO contribution:      0.1196 Hz
  Isotropic SD contribution :      0.0684 Hz
  Isotropic FC contribution :      2.7231 Hz




                           Total Coupling Tensor in Hz
                           ---------------------------

                             x              y              z

                x    4.121299      -0.000000      -0.000000    
                y   -0.000000       2.580414      -1.597697    
                z   -0.000000      -1.574253       2.092944    


              Indirect spin-spin coupling between H   _2 and O     :
              ======================================================


  Mass number atom 1:    1;   Abundance:  99.985 %;   g factor:   5.585694
  Mass number atom 2:   17;   Abundance:   0.040 %;   g factor:  -0.757516

  Isotropic coupling        :      2.9316 Hz
  Anisotropic coupling      :     -3.2992 Hz
  Asymmetry                 :      0.0818   
  S parameter               :     -3.3029 Hz
  A parameter               :     -0.0117 Hz
  Isotropic DSO contribution:      0.0204 Hz
  Isotropic PSO contribution:      0.1196 Hz
  Isotropic SD contribution :      0.0684 Hz
  Isotropic FC contribution :      2.7231 Hz




                           Total Coupling Tensor in Hz
                           ---------------------------

                             x              y              z

                x    4.121299      -0.000000      -0.000000    
                y   -0.000000       2.580414       1.597697    
                z   -0.000000       1.574253       2.092944    


              Indirect spin-spin coupling between H   _2 and H   _1:
              ======================================================


  Mass number atom 1:    1;   Abundance:  99.985 %;   g factor:   5.585694
  Mass number atom 2:    1;   Abundance:  99.985 %;   g factor:   5.585694

  Isotropic coupling        :     -1.6722 Hz
  Anisotropic coupling      :      0.9585 Hz
  Asymmetry                 :      0.5543   
  S parameter               :      1.0064 Hz
  A parameter               :      0.3760 Hz
  Isotropic DSO contribution:      0.1650 Hz
  Isotropic PSO contribution:     -0.1277 Hz
  Isotropic SD contribution :      0.0114 Hz
  Isotropic FC contribution :     -1.7209 Hz




                           Total Coupling Tensor in Hz
                           ---------------------------

                             x              y              z

                x   -1.814562       0.000000       0.000000    
                y    0.000000      -2.168775      0.3759524    
                z    0.000000     -0.3759524      -1.033142    


                          .-----------------------------.
                          | Geometry walk has converged |
                          `-----------------------------'


 Center of mass dipole origin  :    0.000000    0.000000    0.000000

 Center of mass gauge origin   :    0.000000    0.000000    0.000000


                 .------------------------------------------------.
                 | Starting in Static Property Section (ABACUS) - |
                 `------------------------------------------------'


 
     Date and time (Linux)  : Sun Sep  8 20:56:49 2013
     Host name              : lpqlx131.ups-tlse.fr                    


   ***************************************************************************
   ************************ FINAL RESULTS from ABACUS ************************
   ***************************************************************************


 
     Date and time (Linux)  : Sun Sep  8 20:56:49 2013
     Host name              : lpqlx131.ups-tlse.fr                    


                             Molecular geometry (au)
                             -----------------------

 O          0.0000000000            0.0000000000           -0.1209999235
 H   _1     0.0000000000            1.4325641791            1.0804935688
 H   _2     0.0000000000           -1.4325641791            1.0804935688





                        Molecular wave function and energy
                        ----------------------------------

     Spin multiplicity  1     State number       1     Total charge       0

     Total energy        -74.9659011928 au (Hartrees)
                         -2039.92594000 eV
                           -196822.9432 kJ/mol


                             Relativistic corrections
                             ------------------------

     Darwin correction:                          0.1294994100 au
     Mass-velocity correction:                  -0.1669819745 au

     Total relativistic correction:             -0.0374825645 au (0.0500%)
     Non-relativistic + relativistic energy:   -75.0033837573 au




                                  Dipole moment
                                  -------------

                 au               Debye          C m (/(10**-30)
              0.672454           1.709208           5.701303


                             Dipole moment components
                             ------------------------

                 au               Debye          C m (/(10**-30)

      z      0.67245412         1.70920778         5.70130347


   Units:   1 a.u. =   2.54175 Debye 
            1 a.u. =   8.47835 (10**-30) C m (SI)




   Interatomic separations (in Angstrom):
   --------------------------------------

            O           H   _1      H   _2
            ------      ------      ------
 O     :    0.000000
 H   _1:    0.989410    0.000000
 H   _2:    0.989410    1.516161    0.000000


  Max    interatomic separation is    1.5162 Angstrom (    2.8651 Bohr)
  between atoms    3 and    2, "H   _2" and "H   _1".

  Min HX interatomic separation is    0.9894 Angstrom (    1.8697 Bohr)


  Bond distances (Angstrom):
  --------------------------

                  atom 1     atom 2       distance
                  ------     ------       --------
  bond distance:  H   _1     O            0.989410
  bond distance:  H   _2     O            0.989410


  Bond angles (degrees):
  ----------------------

                  atom 1     atom 2     atom 3         angle
                  ------     ------     ------         -----
  bond angle:     H   _1     O          H   _2       100.027




 CPU time statistics for ABACUS
 ------------------------------

 REST       00:00:01     *** %



 >>>> Total CPU  time used in ABACUS:   0.00 seconds
 >>>> Total wall time used in ABACUS:   0.01 seconds


                   .-------------------------------------------.
                   | End of Static Property Section (ABACUS) - |
                   `-------------------------------------------'

 >>>> Total CPU  time used in DALTON:   0.67 seconds
 >>>> Total wall time used in DALTON:   0.73 seconds

 
     Date and time (Linux)  : Sun Sep  8 20:56:49 2013
     Host name              : lpqlx131.ups-tlse.fr                    
