

     ************************************************************************
     *************** Dalton - An Electronic Structure Program ***************
     ************************************************************************

    This is output from DALTON (Release Dalton2013 patch 0)
   ----------------------------------------------------------------------------
    NOTE:
     
    Dalton is an experimental code for the evaluation of molecular
    properties using (MC)SCF, DFT, CI, and CC wave functions.
    The authors accept no responsibility for the performance of
    the code or for the correctness of the results.
     
    The code (in whole or part) is provided under a licence and
    is not to be reproduced for further distribution without
    the written permission of the authors or their representatives.
     
    See the home page "http://daltonprogram.org" for further information.
     
    If results obtained with this code are published,
    the appropriate citations would be both of:
     
       K. Aidas, C. Angeli, K. L. Bak, V. Bakken, R. Bast,
       L. Boman, O. Christiansen, R. Cimiraglia, S. Coriani,
       P. Dahle, E. K. Dalskov, U. Ekstroem, T. Enevoldsen,
       J. J. Eriksen, P. Ettenhuber, B. Fernandez, L. Ferrighi,
       H. Fliegl, L. Frediani, K. Hald, A. Halkier, C. Haettig,
       H. Heiberg, T. Helgaker, A. C. Hennum, H. Hettema,
       E. Hjertenaes, S. Hoest, I.-M. Hoeyvik, M. F. Iozzi,
       B. Jansik, H. J. Aa. Jensen, D. Jonsson, P. Joergensen,
       J. Kauczor, S. Kirpekar, T. Kjaergaard, W. Klopper,
       S. Knecht, R. Kobayashi, H. Koch, J. Kongsted, A. Krapp,
       K. Kristensen, A. Ligabue, O. B. Lutnaes, J. I. Melo,
       K. V. Mikkelsen, R. H. Myhre, C. Neiss, C. B. Nielsen,
       P. Norman, J. Olsen, J. M. H. Olsen, A. Osted,
       M. J. Packer, F. Pawlowski, T. B. Pedersen, P. F. Provasi,
       S. Reine, Z. Rinkevicius, T. A. Ruden, K. Ruud, V. Rybkin,
       P. Salek, C. C. M. Samson, A. Sanchez de Meras, T. Saue,
       S. P. A. Sauer, B. Schimmelpfennig, K. Sneskov,
       A. H. Steindal, K. O. Sylvester-Hvid, P. R. Taylor,
       A. M. Teale, E. I. Tellgren, D. P. Tew, A. J. Thorvaldsen,
       L. Thoegersen, O. Vahtras, M. A. Watson, D. J. D. Wilson,
       M. Ziolkowski and H. Agren,
       "The Dalton quantum chemistry program system",
       WIREs Comput. Mol. Sci. 2013. (doi: 10.1002/wcms.1172)
    
    and
    
       Dalton, a Molecular Electronic Structure Program,
       Release DALTON2013.0 (2013), see http://daltonprogram.org
   ----------------------------------------------------------------------------

    Authors in alphabetical order (major contribution(s) in parenthesis):

  Kestutis Aidas,           Vilnius University,           Lithuania   (QM/MM)
  Celestino Angeli,         University of Ferrara,        Italy       (NEVPT2)
  Keld L. Bak,              UNI-C,                        Denmark     (AOSOPPA, non-adiabatic coupling, magnetic properties)
  Vebjoern Bakken,          University of Oslo,           Norway      (DALTON; geometry optimizer, symmetry detection)
  Radovan Bast,             KTH Stockholm                 Sweden      (DALTON installation and execution frameworks)
  Linus Boman,              NTNU,                         Norway      (Cholesky decomposition and subsystems)
  Ove Christiansen,         Aarhus University,            Denmark     (CC module)
  Renzo Cimiraglia,         University of Ferrara,        Italy       (NEVPT2)
  Sonia Coriani,            University of Trieste,        Italy       (CC module, MCD in RESPONS)
  Paal Dahle,               University of Oslo,           Norway      (Parallelization)
  Erik K. Dalskov,          UNI-C,                        Denmark     (SOPPA)
  Thomas Enevoldsen,        Univ. of Southern Denmark,    Denmark     (SOPPA)
  Janus J. Eriksen,         Aarhus University,            Denmark     (PE-MP2/SOPPA, TDA)
  Berta Fernandez,          U. of Santiago de Compostela, Spain       (doublet spin, ESR in RESPONS)
  Lara Ferrighi,            Aarhus University,            Denmark     (PCM Cubic response)
  Heike Fliegl,             University of Oslo,           Norway      (CCSD(R12))
  Luca Frediani,            UiT The Arctic U. of Norway,  Norway      (PCM)
  Bin Gao,                  UiT The Arctic U. of Norway,  Norway      (Gen1Int library)
  Christof Haettig,         Ruhr-University Bochum,       Germany     (CC module)
  Kasper Hald,              Aarhus University,            Denmark     (CC module)
  Asger Halkier,            Aarhus University,            Denmark     (CC module)
  Hanne Heiberg,            University of Oslo,           Norway      (geometry analysis, selected one-electron integrals)
  Trygve Helgaker,          University of Oslo,           Norway      (DALTON; ABACUS, ERI, DFT modules, London, and much more)
  Alf Christian Hennum,     University of Oslo,           Norway      (Parity violation)
  Hinne Hettema,            University of Auckland,       New Zealand (quadratic response in RESPONS; SIRIUS supersymmetry)
  Eirik Hjertenaes,         NTNU,                         Norway      (Cholesky decomposition)
  Maria Francesca Iozzi,    University of Oslo,           Norway      (RPA)
  Brano Jansik              Technical Univ. of Ostrava    Czech Rep.  (DFT cubic response)
  Hans Joergen Aa. Jensen,  Univ. of Southern Denmark,    Denmark     (DALTON; SIRIUS, RESPONS, ABACUS modules, London, and much more)
  Dan Jonsson,              UiT The Arctic U. of Norway,  Norway      (cubic response in RESPONS module)
  Poul Joergensen,          Aarhus University,            Denmark     (RESPONS, ABACUS, and CC modules)
  Joanna Kauczor,           Linkoeping University,        Sweden      (Complex polarization propagator (CPP) module)
  Sheela Kirpekar,          Univ. of Southern Denmark,    Denmark     (Mass-velocity & Darwin integrals)
  Wim Klopper,              KIT Karlsruhe,                Germany     (R12 code in CC, SIRIUS, and ABACUS modules)
  Stefan Knecht,            ETH Zurich,                   Switzerland (Parallel CI and MCSCF)
  Rika Kobayashi,           Australian National Univ.,    Australia   (DIIS in CC, London in MCSCF)
  Henrik Koch,              NTNU,                         Norway      (CC module, Cholesky decomposition)
  Jacob Kongsted,           Univ. of Southern Denmark,    Denmark     (Polarizable embedding, QM/MM)
  Andrea Ligabue,           University of Modena,         Italy       (CTOCD, AOSOPPA)
  Ola B. Lutnaes,           University of Oslo,           Norway      (DFT Hessian)
  Juan I. Melo,             University of Buenos Aires,   Argentina   (LRESC, Relativistic Effects on NMR Shieldings)
  Kurt V. Mikkelsen,        University of Copenhagen,     Denmark     (MC-SCRF and QM/MM)
  Rolf H. Myhre,            NTNU,                         Norway      (Cholesky, subsystems and ECC2)
  Christian Neiss,          Univ. Erlangen-Nuernberg,     Germany     (CCSD(R12))
  Christian B. Nielsen,     University of Copenhagen,     Denmark     (QM/MM)
  Patrick Norman,           Linkoeping University,        Sweden      (Cubic response and complex response in RESPONS)
  Jeppe Olsen,              Aarhus University,            Denmark     (SIRIUS CI/density modules)
  Jogvan Magnus H. Olsen,   Univ. of Southern Denmark,    Denmark     (Polarizable embedding, PE library, QM/MM)
  Anders Osted,             Copenhagen University,        Denmark     (QM/MM)
  Martin J. Packer,         University of Sheffield,      UK          (SOPPA)
  Filip Pawlowski,          Kazimierz Wielki University   Poland      (CC3)
  Thomas B. Pedersen,       University of Oslo,           Norway      (Cholesky decomposition)
  Patricio F. Provasi,      University of Northeastern,   Argentina   (Analysis of coupling constants in localized orbitals)
  Zilvinas Rinkevicius,     KTH Stockholm,                Sweden      (open-shell DFT, ESR)
  Elias Rudberg,            KTH Stockholm,                Sweden      (DFT grid and basis info)
  Torgeir A. Ruden,         University of Oslo,           Norway      (Numerical derivatives in ABACUS)
  Kenneth Ruud,             UiT The Arctic U. of Norway,  Norway      (DALTON; ABACUS magnetic properties and  much more)
  Pawel Salek,              KTH Stockholm,                Sweden      (DALTON; DFT code)
  Claire C. M. Samson       University of Karlsruhe       Germany     (Boys localization, r12 integrals in ERI)
  Alfredo Sanchez de Meras, University of Valencia,       Spain       (CC module, Cholesky decomposition)
  Trond Saue,               Paul Sabatier University,     France      (direct Fock matrix construction)
  Stephan P. A. Sauer,      University of Copenhagen,     Denmark     (SOPPA(CCSD), SOPPA prop., AOSOPPA, vibrational g-factors)
  Bernd Schimmelpfennig,    Forschungszentrum Karlsruhe,  Germany     (AMFI module)
  Kristian Sneskov,         Aarhus University,            Denmark     (QM/MM, PE-CC)
  Arnfinn H. Steindal,      UiT The Arctic U. of Norway,  Norway      (parallel QM/MM)
  K. O. Sylvester-Hvid,     University of Copenhagen,     Denmark     (MC-SCRF)
  Peter R. Taylor,          VLSCI/Univ. of Melbourne,     Australia   (Symmetry handling ABACUS, integral transformation)
  Andrew M. Teale,          University of Nottingham,     England     (DFT-AC, DFT-D)
  David P. Tew,             University of Bristol,        England     (CCSD(R12))
  Olav Vahtras,             KTH Stockholm,                Sweden      (triplet response, spin-orbit, ESR, TDDFT, open-shell DFT)
  David J. Wilson,          La Trobe University,          Australia   (DFT Hessian and DFT magnetizabilities)
  Hans Agren,               KTH Stockholm,                Sweden      (SIRIUS module, RESPONS, MC-SCRF solvation model)
 --------------------------------------------------------------------------------

     Date and time (Linux)  : Mon Oct 21 14:55:26 2013
     Host name              : c10-6.local                             

 * Work memory size             :    64000000 =  488.28 megabytes.

 * Directories for basis set searches:
   1) /home/arnfinn/release_dalton/DALTON/test/2013-10-21T14_55-testjob-pid-49661
   2) /home/arnfinn/release_dalton/build-RB-intel12.1.2-release/basis


Compilation information
-----------------------

 Who compiled             | arnfinn
 Host                     | stallo-2.local
 System                   | Linux-2.6.32-358.6.2.el6.x86_64
 CMake generator          | Unix Makefiles
 Processor                | x86_64
 64-bit integers          | OFF
 MPI                      | OFF
 Fortran compiler         | /global/apps/intel/composer_xe_2011_sp1.8.273/bin/
                          | intel64/ifort
 C compiler               | /global/apps/intel/composer_xe_2011_sp1.8.273/bin/
                          | intel64/icc
 C compiler version       | icc (ICC) 13.0.1 20121010
 C++ compiler             | /global/apps/intel/composer_xe_2011_sp1.8.273/bin/
                          | intel64/icpc
 C++ compiler version     | icpc (ICC) 13.0.1 20121010
 BLAS                     | -Wl,--start-group;/global/apps/intel/2013.1/mkl/li
                          | b/intel64/libmkl_core.so;/global/apps/intel/2013.1
                          | /mkl/lib/intel64/libmkl_intel_lp64.so;/global/apps
                          | /intel/2013.1/mkl/lib/intel64/libmkl_sequential.so
                          | ;/usr/lib64/libpthread.so;/usr/lib64/libm.so;-open
                          | mp;-Wl,--end-group
 LAPACK                   | -Wl,--start-group;/global/apps/intel/2013.1/mkl/li
                          | b/intel64/libmkl_lapack95_lp64.a;/global/apps/inte
                          | l/2013.1/mkl/lib/intel64/libmkl_intel_lp64.so;-ope
                          | nmp;-Wl,--end-group
 Static linking           | OFF
 Last Git revision        | 9e5bb7f558e1ee66d0614a37cb4fb8c71086ba4e
 Configuration time       | 2013-10-15 12:56:50.249803


   Content of the .dal input file
 ----------------------------------

**DALTON INPUT                                    
.OPTIMIZE                                         
*OPTIMIZE                                         
.REDINT                                           
.NEWTON                                           
.SADDLE                                           
.BAKER                                            
.RF                                               
**WAVE FUNCTION                                   
.HF                                               
**EACH STEP                                       
*RESPONSE                                         
.MAXRED                                           
600                                               
**END OF DALTON INPUT                             


   Content of the .mol file
 ----------------------------

BASIS                                                                          
3-21G                                                                          
Locating the rotational transition state of acrolein                           
                                                                               
    3    0                                                                     
        6.    3                                                                
C    -1.2039490098         .6299819763       -1.8443710751             *       
C     1.2056120532         .0000000000        1.9839551839             *       
C      .0666798969        -.9449729645        -.3221285864             *       
        8.    1                                                                
O      .0000000000         .0000000000        3.9490688445             *       
        1.    4                                                                
H    -2.0522570986        -.0738599558       -3.5620058833             *       
H     3.1211832712         .7038419322        1.9619811778             *       
H      .2424607776       -2.9181815653        -.8128813887             *       
H    -1.3797298905        2.6031905771       -1.3536182728             *       


       *******************************************************************
       *********** Output from DALTON general input processing ***********
       *******************************************************************

 --------------------------------------------------------------------------------
   Overall default print level:    0
   Print level for DALTON.STAT:    1

    "Old" integral transformation used (limited to max 255 basis functions)
 --------------------------------------------------------------------------------


 Chosen parameters for *OPTIMI :
 -------------------------------

 Saddle point optimization has been requested.
 2nd order Newton method will be used.
 Optimization will be performed in redundant internal coordinates.
 No extra (auxiliary) bonds will be added.
 
 
 Partitioned rational function method will be used to control step.
 The eigenvector corresponding to the lowest non-zero eigenvalue is chosen
 as reaction mode (default).
 Baker's convergence criteria will be used.



              >>>>>>>>>>>>>>>>>>>>>>>>>>>>>>>>>>>>>>>>>>>>>>>>>>>>>
              >>>>>>>>>> 2nd Order Geometry Optimization >>>>>>>>>>
              >>>>>>>>>>>>>>>>>>>>>>>>>>>>>>>>>>>>>>>>>>>>>>>>>>>>>

 Reading .mol file to determine number of atoms for parallel runs.


   ****************************************************************************
   *************** Output of molecule and basis set information ***************
   ****************************************************************************


    The two title cards from your ".mol" input:
    ------------------------------------------------------------------------
 1: Locating the rotational transition state of acrolein                    
 2:                                                                         
    ------------------------------------------------------------------------

  Atomic type no.    1
  --------------------
  Nuclear charge:   6.00000
  Number of symmetry independent centers:    3
  Number of basis sets to read;    2
  Basis set file used for this atomic type with Z =   6 :
     "/home/arnfinn/release_dalton/build-RB-intel12.1.2-release/basis/3-21G"

  Info about the basis set file: your basis has no documentation.
  Basis set: 3-21G                                                                           

  Atomic type no.    2
  --------------------
  Nuclear charge:   8.00000
  Number of symmetry independent centers:    1
  Number of basis sets to read;    2
  Basis set file used for this atomic type with Z =   8 :
     "/home/arnfinn/release_dalton/build-RB-intel12.1.2-release/basis/3-21G"

  Info about the basis set file: your basis has no documentation.
  Basis set: 3-21G                                                                           

  Atomic type no.    3
  --------------------
  Nuclear charge:   1.00000
  Number of symmetry independent centers:    4
  Number of basis sets to read;    2
  Basis set file used for this atomic type with Z =   1 :
     "/home/arnfinn/release_dalton/build-RB-intel12.1.2-release/basis/3-21G"

  Info about the basis set file: your basis has no documentation.
  Basis set: 3-21G                                                                           


                         SYMGRP: Point group information
                         -------------------------------

Point group: C1 


                                 Isotopic Masses
                                 ---------------

                           C          12.000000
                           C          12.000000
                           C          12.000000
                           O          15.994915
                           H           1.007825
                           H           1.007825
                           H           1.007825
                           H           1.007825

                       Total mass:    56.026215 amu
                       Natural abundance:  96.446 %

 Center-of-mass coordinates (a.u.):    0.013409   -0.061800    1.020567


  Atoms and basis sets
  --------------------

  Number of atom types :    3
  Total number of atoms:    8

  Basis set used is "3-21G" from the basis set library.

  label    atoms   charge   prim   cont     basis
  ----------------------------------------------------------------------
  C           3    6.0000    15     9      [6s3p|3s2p]                                        
  O           1    8.0000    15     9      [6s3p|3s2p]                                        
  H           4    1.0000     3     2      [3s|2s]                                            
  ----------------------------------------------------------------------
  total:      8   30.0000    72    44
  ----------------------------------------------------------------------

  Threshold for neglecting AO integrals:  1.00D-12


  Cartesian Coordinates (a.u.)
  ----------------------------

  Total number of coordinates:   24
  C       :     1  x  -1.2039490098    2  y   0.6299819763    3  z  -1.8443710751
  C       :     4  x   1.2056120532    5  y   0.0000000000    6  z   1.9839551839
  C       :     7  x   0.0666798969    8  y  -0.9449729645    9  z  -0.3221285864
  O       :    10  x   0.0000000000   11  y   0.0000000000   12  z   3.9490688445
  H       :    13  x  -2.0522570986   14  y  -0.0738599558   15  z  -3.5620058833
  H       :    16  x   3.1211832712   17  y   0.7038419322   18  z   1.9619811778
  H       :    19  x   0.2424607776   20  y  -2.9181815653   21  z  -0.8128813887
  H       :    22  x  -1.3797298905   23  y   2.6031905771   24  z  -1.3536182728


   Interatomic separations (in Angstrom):
   --------------------------------------

            C           C           C           O           H           H     
            ------      ------      ------      ------      ------      ------
 C     :    0.000000
 C     :    2.416837    0.000000
 C     :    1.340000    1.450000    0.000000
 O     :    3.148952    1.220000    2.315146    0.000000
 H     :    1.080000    3.403924    2.099809    4.120570    0.000000
 H     :    3.049114    1.080000    2.198840    1.993088    4.026052    0.000000
 H     :    2.099809    2.198840    1.080000    2.958226    2.420000    2.854908
 H     :    1.080000    2.624633    2.099809    3.210093    1.870615    3.124340

            H           H     
            ------      ------
 H     :    0.000000
 H     :    3.058692    0.000000


  Max    interatomic separation is    4.1206 Angstrom (    7.7867 Bohr)
  between atoms    5 and    4, "H     " and "O     ".

  Min HX interatomic separation is    1.0800 Angstrom (    2.0409 Bohr)

  Min YX interatomic separation is    1.2200 Angstrom (    2.3055 Bohr)


  Bond distances (Angstrom):
  --------------------------

                  atom 1     atom 2       distance
                  ------     ------       --------
  bond distance:  C          C            1.340000
  bond distance:  C          C            1.450000
  bond distance:  O          C            1.220000
  bond distance:  H          C            1.080000
  bond distance:  H          C            1.080000
  bond distance:  H          C            1.080000
  bond distance:  H          C            1.080000


  Bond angles (degrees):
  ----------------------

                  atom 1     atom 2     atom 3         angle
                  ------     ------     ------         -----
  bond angle:     C          C          H            120.000
  bond angle:     C          C          H            120.000
  bond angle:     H          C          H            120.000
  bond angle:     C          C          O            120.000
  bond angle:     C          C          H            120.000
  bond angle:     O          C          H            120.000
  bond angle:     C          C          C            120.000
  bond angle:     C          C          H            120.000
  bond angle:     C          C          H            120.000




 Principal moments of inertia (u*A**2) and principal axes
 --------------------------------------------------------

   IA      17.833826          0.253186   -0.031503    0.966904
   IB      95.200280          0.710773   -0.671962   -0.208011
   IC     100.721273          0.656276    0.739916   -0.147740


 Rotational constants
 --------------------

               A                   B                   C

          28338.2265           5308.5874           5017.5995 MHz
            0.945261            0.177075            0.167369 cm-1


@  Nuclear repulsion energy :  104.524595762212 Hartree


                     .---------------------------------------.
                     | Starting in Integral Section (HERMIT) |
                     `---------------------------------------'



    *************************************************************************
    ****************** Output from HERMIT input processing ******************
    *************************************************************************



     ************************************************************************
     ************************** Output from HERINT **************************
     ************************************************************************


 Threshold for neglecting two-electron integrals:  1.00D-12
 Number of two-electron integrals written:      455531 ( 92.9% )
 Megabytes written:                              5.221

 >>>  Time used in TWOINT     is   0.10 seconds
 >>>> Total CPU  time used in HERMIT:   0.13 seconds
 >>>> Total wall time used in HERMIT:   0.14 seconds


                        .----------------------------------.
                        | End of Integral Section (HERMIT) |
                        `----------------------------------'



                   .--------------------------------------------.
                   | Starting in Wave Function Section (SIRIUS) |
                   `--------------------------------------------'


 *** Output from Huckel module :

     Using EWMO model:          T
     Using EHT  model:          F
     Number of Huckel orbitals each symmetry:   24

 EWMO - Energy Weighted Maximum Overlap - is a Huckel type method,
        which normally is better than Extended Huckel Theory.
 Reference: Linderberg and Ohrn, Propagators in Quantum Chemistry (Wiley, 1973)

 Huckel EWMO eigenvalues for symmetry :  1
          -20.684692     -11.358316     -11.351928     -11.346168      -1.749011
           -1.461977      -1.086867      -0.981516      -0.827331      -0.694173
           -0.656686      -0.571329      -0.530640      -0.503543      -0.429849
           -0.294860      -0.256310      -0.150251      -0.126998      -0.125118
           -0.121051      -0.105702      -0.091624      -0.087561

 **********************************************************************
 *SIRIUS* a direct, restricted step, second order MCSCF program       *
 **********************************************************************

 
     Date and time (Linux)  : Mon Oct 21 14:55:26 2013
     Host name              : c10-6.local                             

 Title lines from ".mol" input file:
     Locating the rotational transition state of acrolein                    
                                                                             

 Print level on unit LUPRI =   2 is   0
 Print level on unit LUW4  =   2 is   5

@    Restricted, closed shell Hartree-Fock calculation.

 Initial molecular orbitals are obtained according to
 ".MOSTART EWMO  " input option

     Wave function specification
     ============================
@    For the wave function of type :      >>> HF <<<
@    Number of closed shell electrons          30
@    Number of electrons in active shells       0
@    Total charge of the molecule               0

@    Spin multiplicity and 2 M_S                1         0
     Total number of symmetries                 1
@    Reference state symmetry                   1

     Orbital specifications
     ======================
     Abelian symmetry species          All |    1
                                       --- |  ---
@    Occupied SCF orbitals              15 |   15
     Secondary orbitals                 29 |   29
     Total number of orbitals           44 |   44
     Number of basis functions          44 |   44

     Optimization information
     ========================
@    Number of configurations                 1
@    Number of orbital rotations            435
     ------------------------------------------
@    Total number of variables              436

     Maximum number of Fock   iterations      0
     Maximum number of DIIS   iterations     60
     Maximum number of QC-SCF iterations     60
     Threshold for SCF convergence     1.00D-05


 >>>>> DIIS optimization of Hartree-Fock <<<<<

 C1-DIIS algorithm; max error vectors =    5

 Iter      Total energy        Error norm    Delta(E)  DIIS dim.
 -----------------------------------------------------------------------------
     (Precalculated two-electron integrals are transformed to P-supermatrix elements.
      Threshold for discarding integrals :  1.00D-12 )
@  1    -188.917588105        3.37938D+00   -1.89D+02    1
      Virial theorem: -V/T =      2.004756
@      MULPOP C       0.22; C       0.94; C       0.39; O      -0.93; H      -0.13; H      -0.19; H      -0.15; H      -0.14; 
 -----------------------------------------------------------------------------
@  2    -189.353084511        2.51860D+00   -4.35D-01    2
      Virial theorem: -V/T =      2.003814
@      MULPOP C      -0.41; C      -0.50; C      -0.58; O       0.39; H       0.28; H       0.22; H       0.33; H       0.27; 
 -----------------------------------------------------------------------------
@  3    -189.660124855        4.49504D-01   -3.07D-01    3
      Virial theorem: -V/T =      2.000144
@      MULPOP C      -0.40; C       0.40; C      -0.31; O      -0.57; H       0.22; H       0.19; H       0.25; H       0.22; 
 -----------------------------------------------------------------------------
@  4    -189.670493028        9.04554D-02   -1.04D-02    4
      Virial theorem: -V/T =      2.003109
@      MULPOP C      -0.35; C       0.29; C      -0.35; O      -0.49; H       0.22; H       0.20; H       0.26; H       0.22; 
 -----------------------------------------------------------------------------
@  5    -189.671165534        1.69601D-02   -6.73D-04    5
      Virial theorem: -V/T =      2.002377
@      MULPOP C      -0.39; C       0.30; C      -0.35; O      -0.50; H       0.23; H       0.21; H       0.27; H       0.23; 
 -----------------------------------------------------------------------------
@  6    -189.671223365        9.17949D-03   -5.78D-05    5
      Virial theorem: -V/T =      2.002343
@      MULPOP C      -0.38; C       0.30; C      -0.36; O      -0.49; H       0.23; H       0.21; H       0.27; H       0.23; 
 -----------------------------------------------------------------------------
@  7    -189.671233990        4.22609D-03   -1.06D-05    5
      Virial theorem: -V/T =      2.002357
@      MULPOP C      -0.39; C       0.30; C      -0.35; O      -0.49; H       0.23; H       0.21; H       0.27; H       0.23; 
 -----------------------------------------------------------------------------
@  8    -189.671239577        2.16928D-03   -5.59D-06    5
      Virial theorem: -V/T =      2.002350
@      MULPOP C      -0.38; C       0.30; C      -0.35; O      -0.49; H       0.23; H       0.21; H       0.27; H       0.23; 
 -----------------------------------------------------------------------------
@  9    -189.671241216        8.66030D-04   -1.64D-06    5
      Virial theorem: -V/T =      2.002348
@      MULPOP C      -0.39; C       0.30; C      -0.35; O      -0.49; H       0.23; H       0.21; H       0.27; H       0.23; 
 -----------------------------------------------------------------------------
@ 10    -189.671241426        5.56158D-04   -2.10D-07    5
      Virial theorem: -V/T =      2.002350
@      MULPOP C      -0.39; C       0.30; C      -0.35; O      -0.49; H       0.23; H       0.21; H       0.27; H       0.23; 
 -----------------------------------------------------------------------------
@ 11    -189.671241558        2.87426D-04   -1.32D-07    5
      Virial theorem: -V/T =      2.002348
@      MULPOP C      -0.39; C       0.30; C      -0.35; O      -0.49; H       0.23; H       0.21; H       0.27; H       0.23; 
 -----------------------------------------------------------------------------
@ 12    -189.671241577        9.40598D-05   -1.87D-08    5
      Virial theorem: -V/T =      2.002349
@      MULPOP C      -0.38; C       0.30; C      -0.35; O      -0.49; H       0.23; H       0.21; H       0.27; H       0.23; 
 -----------------------------------------------------------------------------
@ 13    -189.671241580        3.54435D-05   -3.34D-09    5
      Virial theorem: -V/T =      2.002349
@      MULPOP C      -0.38; C       0.30; C      -0.35; O      -0.49; H       0.23; H       0.21; H       0.27; H       0.23; 
 -----------------------------------------------------------------------------
@ 14    -189.671241580        1.41483D-05   -2.32D-10    5
      Virial theorem: -V/T =      2.002349
@      MULPOP C      -0.38; C       0.30; C      -0.35; O      -0.49; H       0.23; H       0.21; H       0.27; H       0.23; 
 -----------------------------------------------------------------------------
@ 15    -189.671241580        6.10006D-06   -2.41D-11    5

@ *** DIIS converged in  15 iterations !
@     Converged SCF energy, gradient:   -189.671241580328    6.10D-06
    - total time used in SIRFCK :              0.00 seconds


 *** SCF orbital energy analysis ***

 Only the five lowest virtual orbital energies printed in each symmetry.

 Number of electrons :   30
 Orbital occupations :   15

 Sym       Hartree-Fock orbital energies

  1    -20.46783329   -11.27799525   -11.19553928   -11.19508720    -1.40422979
        -1.08108754    -0.88880939    -0.77345098    -0.69806729    -0.64307356
        -0.61952063    -0.55769137    -0.49902572    -0.42526515    -0.39230281
         0.14602255     0.15476081     0.29974500     0.30488628     0.31842221

    E(LUMO) :     0.14602255 au (symmetry 1)
  - E(HOMO) :    -0.39230281 au (symmetry 1)
  ------------------------------------------
    gap     :     0.53832536 au

 >>> Writing SIRIFC interface file <<<

 >>>> CPU and wall time for SCF :       0.119       0.146


                       .-----------------------------------.
                       | >>> Final results from SIRIUS <<< |
                       `-----------------------------------'


@    Spin multiplicity:           1
@    Spatial symmetry:            1
@    Total charge of molecule:    0

@    Final HF energy:            -189.671241580328                 
@    Nuclear repulsion:           104.524595762212
@    Electronic energy:          -294.195837342540

@    Final gradient norm:           0.000006100062

 
     Date and time (Linux)  : Mon Oct 21 14:55:26 2013
     Host name              : c10-6.local                             

 (Only coefficients >0.0100 are printed.)

 Molecular orbitals for symmetry species  1
 ------------------------------------------

    Orbital        11       12       13       14       15       16       17
   1 C   :1s    -0.0056  -0.0029   0.0198   0.0072   0.0003  -0.0454   0.0167
   2 C   :1s    -0.0030   0.0076  -0.0261  -0.0076   0.0012   0.0338  -0.0080
   3 C   :1s     0.0771  -0.0213  -0.0280  -0.0336  -0.0033   0.5025  -0.2185
   4 C   :2px   -0.1155  -0.0303  -0.0613  -0.0044  -0.2682  -0.0559  -0.2540
   5 C   :2py    0.1788  -0.2563   0.0692  -0.0038  -0.0641  -0.0440  -0.0488
   6 C   :2pz   -0.1561  -0.1556  -0.0711  -0.0818   0.1512   0.0841   0.1332
   7 C   :2px   -0.0635  -0.0491  -0.0352  -0.0160  -0.3141  -0.2113  -0.5851
   8 C   :2py    0.1052  -0.2336   0.0425  -0.0438  -0.0826  -0.1082  -0.0986
   9 C   :2pz   -0.0919  -0.1753  -0.0205  -0.1156   0.1704   0.1163   0.3338
  10 C   :1s     0.0114  -0.0245   0.0006  -0.0026  -0.0041   0.0035  -0.0070
  11 C   :1s    -0.0324   0.0220  -0.0024   0.0166   0.0027   0.0011   0.0012
  12 C   :1s     0.0488   0.0999   0.0132  -0.0816   0.0338  -0.0671   0.1070
  13 C   :2px    0.1120  -0.0166  -0.0921  -0.1480   0.0322   0.1267  -0.0157
  14 C   :2py   -0.0929   0.0267   0.2384  -0.0798  -0.0019  -0.2995   0.1188
  15 C   :2pz   -0.2173  -0.1482  -0.0534  -0.0966  -0.0330   0.0769  -0.0393
  16 C   :2px    0.0138  -0.0513  -0.1174  -0.0027   0.0452   0.2367   0.0242
  17 C   :2py   -0.0736   0.0104   0.2890   0.0019   0.0167  -0.5043   0.1767
  18 C   :2pz   -0.0687  -0.0970  -0.0704   0.0522   0.0428   0.0977  -0.2170
  19 C   :1s     0.0146   0.0173  -0.0014  -0.0336  -0.0060  -0.0091   0.0084
  20 C   :1s    -0.0220  -0.0148  -0.0003   0.0327   0.0088   0.0058  -0.0097
  21 C   :1s    -0.0382  -0.0920   0.0060   0.2405   0.0488   0.0859  -0.0974
  22 C   :2px    0.1604  -0.0072   0.0441   0.1171  -0.2583   0.0832   0.2376
  23 C   :2py   -0.1320   0.1659  -0.1240   0.0881  -0.0512   0.0093   0.0579
  24 C   :2pz    0.1480   0.0416   0.0299   0.1577   0.1848  -0.0732  -0.1558
  25 C   :2px    0.1142  -0.0158   0.0484   0.1592  -0.2938   0.2901   0.4565
  26 C   :2py   -0.0987   0.1809  -0.1529   0.1566  -0.0490  -0.1411   0.1886
  27 C   :2pz    0.0844   0.0436   0.0133   0.1790   0.2264  -0.0511  -0.4131
  28 O   :1s    -0.0586  -0.0123   0.0003  -0.0003   0.0061  -0.0082  -0.0203
  29 O   :1s     0.0535   0.0106   0.0001   0.0019  -0.0033   0.0040   0.0091
  30 O   :1s     0.2444   0.0543  -0.0042  -0.0071  -0.0471   0.0731   0.1848
  31 O   :2px   -0.1706  -0.1842  -0.1152   0.3431   0.0406  -0.1049   0.0389
  32 O   :2py   -0.0794  -0.0060   0.3456   0.1747   0.0371   0.2644  -0.1225
  33 O   :2pz    0.2303  -0.0032  -0.0720   0.2019   0.1143  -0.0930  -0.0411
  34 O   :2px   -0.1691  -0.1913  -0.1306   0.4041   0.0347  -0.1682   0.0886
  35 O   :2py   -0.0824  -0.0019   0.3922   0.2064   0.0424   0.4482  -0.1899
  36 O   :2pz    0.2376  -0.0017  -0.0799   0.2395   0.1379  -0.1632  -0.0818
  37 H   :1s     0.0841   0.1741   0.0253   0.0591   0.0074  -0.0354   0.0106
  38 H   :1s     0.0729   0.1278   0.0389   0.0530   0.0068  -0.2842   0.0947
  39 H   :1s     0.0358   0.0324  -0.0048  -0.1771   0.0382  -0.0121  -0.0517
  40 H   :1s     0.0528   0.0408  -0.0026  -0.2682   0.0265  -0.0605  -0.2495
  41 H   :1s     0.0545  -0.1465   0.0993  -0.0567  -0.0062  -0.0774   0.0296
  42 H   :1s     0.0435  -0.1100   0.0769  -0.0466  -0.0033  -0.3769   0.1443
  43 H   :1s     0.1016  -0.2026   0.0274  -0.0368  -0.0036   0.0179  -0.0000
  44 H   :1s     0.0871  -0.1641   0.0428  -0.0294  -0.0011  -0.1073   0.0446



 >>>> Total CPU  time used in SIRIUS :      0.16 seconds
 >>>> Total wall time used in SIRIUS :      0.20 seconds

 
     Date and time (Linux)  : Mon Oct 21 14:55:26 2013
     Host name              : c10-6.local                             


                     .---------------------------------------.
                     | End of Wave Function Section (SIRIUS) |
                     `---------------------------------------'


     Order of analytical energy-derivatives available:   2
     This will be the default.


        *****************************************************************
        ******** Output from **START input processing for ABACUS ********
        *****************************************************************



 The following molecular properties will be calculated in this run:
 ------------------------------------------------------------------

 Default print level:        0

      The molecular gradient
      The molecular Hessian
      Natural orbital connection is used
      for perturbation dependent basis sets.


 Changes of defaults for RESPON in ABACUS:
 -----------------------------------------

 Maximum dimension of reduced space (MAXRED):  600

 Center of mass dipole origin  :    0.013409   -0.061800    1.020567

 Center of mass gauge origin   :    0.013409   -0.061800    1.020567


                 .------------------------------------------------.
                 | Starting in Static Property Section (ABACUS) - |
                 `------------------------------------------------'


 
     Date and time (Linux)  : Mon Oct 21 14:55:26 2013
     Host name              : c10-6.local                             


            +---------------------------------------------------------+
            ! Gradient elements calculated directly and from symmetry !
            +---------------------------------------------------------+



        Coordinate    Direct calc.     Tra.-rot. sym.   Difference
        ----------------------------------------------------------

        C    x       -0.0143049312    -0.0143080300     0.0000030989
        C    y        0.0227124478     0.0227123255     0.0000001222
        C    x        0.0118273785     0.0118360681    -0.0000086897
        O    x       -0.0125020149    -0.0125076057     0.0000055908
        O    y       -0.0047794762    -0.0047793539    -0.0000001222
        O    z        0.0018675995     0.0018675995    -0.0000000000



 >>> WARNING from TRAROT:

 Largest deviation from tra-rot symmetry is in gradient element  4:  8.69E-06


   ***************************************************************************
   ************************ FINAL RESULTS from ABACUS ************************
   ***************************************************************************


 
     Date and time (Linux)  : Mon Oct 21 14:55:28 2013
     Host name              : c10-6.local                             

 WARNING: warnings have been issued, please check the output above !


                             Molecular geometry (au)
                             -----------------------

 C         -1.2039490098            0.6299819763           -1.8443710751
 C          1.2056120532            0.0000000000            1.9839551839
 C          0.0666798969           -0.9449729645           -0.3221285864
 O          0.0000000000            0.0000000000            3.9490688445
 H         -2.0522570986           -0.0738599558           -3.5620058833
 H          3.1211832712            0.7038419322            1.9619811778
 H          0.2424607776           -2.9181815653           -0.8128813887
 H         -1.3797298905            2.6031905771           -1.3536182728





                        Molecular wave function and energy
                        ----------------------------------

     Spin multiplicity  1     State number       1     Total charge       0

     Total energy       -189.6712415803 au (Hartrees)
                         -5161.21702822 eV
                           -497981.7680 kJ/mol


                             Relativistic corrections
                             ------------------------

     Darwin correction:                          0.2981495318 au
     Mass-velocity correction:                  -0.3829118851 au

     Total relativistic correction:             -0.0847623533 au (0.0447%)
     Non-relativistic + relativistic energy:  -189.7560039336 au




                             Molecular gradient (au)
                             -----------------------

 C         -0.0143049312            0.0227124478           -0.0148753901
 C          0.0118273785            0.0037969519           -0.0396933069
 C          0.0155053234           -0.0155985216            0.0504783079
 O         -0.0125020149           -0.0047794762            0.0018675995
 H          0.0002016245           -0.0068442508           -0.0047774590
 H         -0.0015734343            0.0004355839            0.0050890173
 H         -0.0013917850           -0.0037711109           -0.0041248760
 H          0.0022378389            0.0040483759            0.0060361073





                              Molecular Hessian (au)
                              ----------------------

           C    x      C    y      C    z      C    x      C    y      C    z

 C    x    0.367968
 C    y   -0.141644    0.757991
 C    z    0.291166   -0.001134    0.649763

 C    x   -0.003553   -0.008206   -0.026328    0.738234
 C    y    0.011501    0.015768    0.026840    0.127836    0.320524
 C    z   -0.019060   -0.006490   -0.027240   -0.196055    0.069398    0.915530

 C    x   -0.207446    0.140824   -0.155401   -0.143089   -0.032752   -0.080866
 C    y    0.144191   -0.301546    0.152043   -0.025758   -0.135438   -0.048680
 C    z   -0.154731    0.149976   -0.280617   -0.072314   -0.059134   -0.215298

 O    x   -0.000281    0.001219    0.001031   -0.300848   -0.011746    0.311799
 O    y    0.001134   -0.002751   -0.004609   -0.010485   -0.083317   -0.005893
 O    z    0.000307   -0.005630    0.001449    0.315659   -0.004830   -0.607319

 H    x   -0.105570   -0.036818   -0.107484    0.011332    0.007283   -0.004966
 H    y   -0.042154   -0.108004   -0.093979    0.005199   -0.002770   -0.000808
 H    z   -0.110078   -0.084530   -0.269795   -0.008098    0.001151    0.003565

 H    x    0.001005   -0.000513   -0.000262   -0.302277   -0.087544   -0.013292
 H    y   -0.002405   -0.002958   -0.002996   -0.089427   -0.109608   -0.006617
 H    z    0.001036   -0.001210   -0.000646   -0.020017   -0.007164   -0.068236

 H    x    0.007628    0.021926    0.002325    0.007412   -0.012883   -0.001708
 H    y    0.002066   -0.019226   -0.008852    0.002372   -0.004966    0.000433
 H    z   -0.005952    0.025726    0.011974    0.002727   -0.029148   -0.000331

 H    x   -0.059751    0.023212   -0.005048   -0.007213   -0.001693    0.004147
 H    y    0.027311   -0.339274   -0.067314   -0.001531   -0.000194   -0.001343
 H    z   -0.002688   -0.076706   -0.084888    0.004426    0.002888   -0.000671


           C    x      C    y      C    z      O    x      O    y      O    z

 C    x    0.384099
 C    y   -0.141025    0.735180
 C    z    0.254400   -0.016352    0.646281

 O    x    0.023195   -0.001533   -0.008026    0.300099
 O    y    0.005180    0.025842   -0.022523    0.019698    0.034893
 O    z    0.026898   -0.009747   -0.065216   -0.359594    0.016859    0.682100

 H    x   -0.002806   -0.007256   -0.019657   -0.000970   -0.002760   -0.004147
 H    y    0.014397    0.011680    0.025161   -0.001149    0.000307    0.000635
 H    z   -0.011074   -0.010285   -0.014757    0.001212    0.000796    0.001103

 H    x   -0.004183   -0.010662    0.003530   -0.021511   -0.012965    0.020313
 H    y   -0.016281    0.020195   -0.001012   -0.005638    0.024560    0.001147
 H    z   -0.026513   -0.013646    0.001506    0.053962    0.012602   -0.007401

 H    x   -0.056888    0.019821   -0.005180   -0.000234   -0.000878   -0.001633
 H    y    0.026793   -0.336745   -0.068399   -0.000291   -0.000132   -0.000346
 H    z   -0.001415   -0.079030   -0.082181   -0.000295    0.003735   -0.003341

 H    x    0.007118    0.022221    0.001977    0.000550    0.001076    0.002197
 H    y    0.002864   -0.019167   -0.007717   -0.000560    0.000597    0.001913
 H    z   -0.006028    0.025696    0.010281   -0.000090   -0.000967   -0.001375


           H    x      H    y      H    z      H    x      H    y      H    z

 H    x    0.099176
 H    y    0.038636    0.101136
 H    z    0.126791    0.092290    0.283416

 H    x    0.000089    0.000335   -0.000324    0.329740
 H    y    0.000295    0.000899   -0.001127    0.111601    0.067680
 H    z    0.001501    0.000710   -0.001095   -0.008135    0.009304    0.076795

 H    x   -0.006866   -0.002050    0.004776   -0.002292    0.002361   -0.000652
 H    y   -0.001861    0.001113    0.001259   -0.000567   -0.000372   -0.000995
 H    z    0.005139    0.001042   -0.001683   -0.002041    0.000954   -0.001577

 H    x    0.005615   -0.013214   -0.003206   -0.000571   -0.000506   -0.001181
 H    y    0.002482   -0.004361    0.000446    0.000314   -0.000397    0.000400
 H    z    0.002822   -0.025051   -0.000754    0.000209    0.000347    0.000654


           H    x      H    y      H    z      H    x      H    y      H    z

 H    x    0.042931
 H    y   -0.032322    0.360291
 H    z    0.009785    0.075775    0.075810

 H    x    0.008309    0.003810   -0.007949    0.045943
 H    y    0.004025    0.000036    0.000946   -0.034906    0.362759
 H    z   -0.007715    0.001126    0.001328    0.009063    0.072669    0.075423





                                  Dipole moment
                                  -------------

                 au               Debye          C m (/(10**-30)
              1.172972           2.981397           9.944871


                             Dipole moment components
                             ------------------------

                 au               Debye          C m (/(10**-30)

      x      0.44379861         1.12802349         3.76268133
      y     -0.02026741        -0.05151462        -0.17183426
      z     -1.08558522        -2.75928222        -9.20397479


   Units:   1 a.u. =   2.54175 Debye 
            1 a.u. =   8.47835 (10**-30) C m (SI)




   Interatomic separations (in Angstrom):
   --------------------------------------

            C           C           C           O           H           H     
            ------      ------      ------      ------      ------      ------
 C     :    0.000000
 C     :    2.416837    0.000000
 C     :    1.340000    1.450000    0.000000
 O     :    3.148952    1.220000    2.315146    0.000000
 H     :    1.080000    3.403924    2.099809    4.120570    0.000000
 H     :    3.049114    1.080000    2.198840    1.993088    4.026052    0.000000
 H     :    2.099809    2.198840    1.080000    2.958226    2.420000    2.854908
 H     :    1.080000    2.624633    2.099809    3.210093    1.870615    3.124340

            H           H     
            ------      ------
 H     :    0.000000
 H     :    3.058692    0.000000


  Max    interatomic separation is    4.1206 Angstrom (    7.7867 Bohr)
  between atoms    5 and    4, "H     " and "O     ".

  Min HX interatomic separation is    1.0800 Angstrom (    2.0409 Bohr)

  Min YX interatomic separation is    1.2200 Angstrom (    2.3055 Bohr)


  Bond distances (Angstrom):
  --------------------------

                  atom 1     atom 2       distance
                  ------     ------       --------
  bond distance:  C          C            1.340000
  bond distance:  C          C            1.450000
  bond distance:  O          C            1.220000
  bond distance:  H          C            1.080000
  bond distance:  H          C            1.080000
  bond distance:  H          C            1.080000
  bond distance:  H          C            1.080000


  Bond angles (degrees):
  ----------------------

                  atom 1     atom 2     atom 3         angle
                  ------     ------     ------         -----
  bond angle:     C          C          H            120.000
  bond angle:     C          C          H            120.000
  bond angle:     H          C          H            120.000
  bond angle:     C          C          O            120.000
  bond angle:     C          C          H            120.000
  bond angle:     O          C          H            120.000
  bond angle:     C          C          C            120.000
  bond angle:     C          C          H            120.000
  bond angle:     C          C          H            120.000




 CPU time statistics for ABACUS
 ------------------------------

 REST       00:00:01     100 %

 TOTAL      00:00:01     100 %


 >>>> Total CPU  time used in ABACUS:   1.38 seconds
 >>>> Total wall time used in ABACUS:   1.51 seconds


                   .-------------------------------------------.
                   | End of Static Property Section (ABACUS) - |
                   `-------------------------------------------'



           :::::::::::::::::::::::::::::::::::::::::::::::::::::::::::
           ::::::::::::::: Optimization Control Center :::::::::::::::
           :::::::::::::::::::::::::::::::::::::::::::::::::::::::::::



                                Next geometry (au)
                                ------------------

 C         -1.1936343670            0.6206378032           -1.8807537557
 C          1.1702692945           -0.0169957958            2.0688729943
 C          0.0293392833           -0.8989426044           -0.3458213041
 O          0.1061914220           -0.0605980056            4.0966199603
 H         -2.0205648985           -0.0483490023           -3.6061803516
 H          3.0963720587            0.6824322958            1.9132088885
 H          0.2417050269           -2.8748489875           -0.7782030539
 H         -1.4296778198            2.5966642966           -1.4677433779





                             Optimization information
                             ------------------------

 Iteration number               :       0
 End of optimization            :       F 
 Energy at this geometry is     :    -189.671242
 Norm of gradient               :       0.077944
 Norm of step                   :       0.201453
 Updated trust radius           :       0.500000
 Total Hessian index            :       1




 **************************************************************************************
 ****************** Output of molecule and basis set info suppressed ******************
 **************************************************************************************



                     .---------------------------------------.
                     | Starting in Integral Section (HERMIT) |
                     `---------------------------------------'



    *************************************************************************
    ****************** Output from HERMIT input processing ******************
    *************************************************************************


 Threshold for neglecting two-electron integrals:  1.00D-12
 Number of two-electron integrals written:      458194 ( 93.4% )
 Megabytes written:                              5.249

 >>>  Time used in TWOINT     is   0.10 seconds
 >>>> Total CPU  time used in HERMIT:   0.12 seconds
 >>>> Total wall time used in HERMIT:   0.13 seconds


                        .----------------------------------.
                        | End of Integral Section (HERMIT) |
                        `----------------------------------'



                   .--------------------------------------------.
                   | Starting in Wave Function Section (SIRIUS) |
                   `--------------------------------------------'


 **********************************************************************
 *SIRIUS* a direct, restricted step, second order MCSCF program       *
 **********************************************************************

 (Wave function specification suppressed here, see output above for initial geometry.)


 >>>>> DIIS optimization of Hartree-Fock <<<<<

 C1-DIIS algorithm; max error vectors =    5

 Iter      Total energy        Error norm    Delta(E)  DIIS dim.
 -----------------------------------------------------------------------------
     (Precalculated two-electron integrals are transformed to P-supermatrix elements.
      Threshold for discarding integrals :  1.00D-12 )
@  1    -189.670226104        2.56749D-01    1.02D-03    1
      Virial theorem: -V/T =      2.002480
@      MULPOP C      -0.38; C       0.29; C      -0.36; O      -0.48; H       0.23; H       0.21; H       0.26; H       0.23; 
 -----------------------------------------------------------------------------
@  2    -189.675020220        7.15906D-02   -4.79D-03    2
      Virial theorem: -V/T =      2.002071
@      MULPOP C      -0.40; C       0.32; C      -0.35; O      -0.50; H       0.23; H       0.20; H       0.26; H       0.23; 
 -----------------------------------------------------------------------------
@  3    -189.675516547        4.09810D-02   -4.96D-04    3
      Virial theorem: -V/T =      2.002407
@      MULPOP C      -0.38; C       0.30; C      -0.36; O      -0.48; H       0.23; H       0.20; H       0.27; H       0.23; 
 -----------------------------------------------------------------------------
@  4    -189.675631239        1.14149D-02   -1.15D-04    4
      Virial theorem: -V/T =      2.002232
@      MULPOP C      -0.38; C       0.31; C      -0.36; O      -0.50; H       0.23; H       0.20; H       0.26; H       0.23; 
 -----------------------------------------------------------------------------
@  5    -189.675653454        4.24414D-03   -2.22D-05    5
      Virial theorem: -V/T =      2.002254
@      MULPOP C      -0.38; C       0.31; C      -0.36; O      -0.49; H       0.23; H       0.20; H       0.26; H       0.23; 
 -----------------------------------------------------------------------------
@  6    -189.675657854        1.97570D-03   -4.40D-06    5
      Virial theorem: -V/T =      2.002253
@      MULPOP C      -0.38; C       0.31; C      -0.36; O      -0.49; H       0.23; H       0.20; H       0.26; H       0.23; 
 -----------------------------------------------------------------------------
@  7    -189.675658992        7.36334D-04   -1.14D-06    5
      Virial theorem: -V/T =      2.002254
@      MULPOP C      -0.38; C       0.31; C      -0.36; O      -0.49; H       0.23; H       0.20; H       0.26; H       0.23; 
 -----------------------------------------------------------------------------
@  8    -189.675659161        4.02083D-04   -1.70D-07    5
      Virial theorem: -V/T =      2.002253
@      MULPOP C      -0.38; C       0.31; C      -0.36; O      -0.49; H       0.23; H       0.20; H       0.26; H       0.23; 
 -----------------------------------------------------------------------------
@  9    -189.675659218        2.26246D-04   -5.67D-08    5
      Virial theorem: -V/T =      2.002253
@      MULPOP C      -0.38; C       0.31; C      -0.36; O      -0.49; H       0.23; H       0.20; H       0.26; H       0.23; 
 -----------------------------------------------------------------------------
@ 10    -189.675659241        8.97715D-05   -2.33D-08    5
      Virial theorem: -V/T =      2.002253
@      MULPOP C      -0.38; C       0.31; C      -0.36; O      -0.49; H       0.23; H       0.20; H       0.26; H       0.23; 
 -----------------------------------------------------------------------------
@ 11    -189.675659245        4.46839D-05   -3.10D-09    5
      Virial theorem: -V/T =      2.002253
@      MULPOP C      -0.38; C       0.31; C      -0.36; O      -0.49; H       0.23; H       0.20; H       0.26; H       0.23; 
 -----------------------------------------------------------------------------
@ 12    -189.675659245        2.10724D-05   -4.68D-10    5
      Virial theorem: -V/T =      2.002253
@      MULPOP C      -0.38; C       0.31; C      -0.36; O      -0.49; H       0.23; H       0.20; H       0.26; H       0.23; 
 -----------------------------------------------------------------------------
@ 13    -189.675659245        7.48197D-06   -8.92D-11    5

@ *** DIIS converged in  13 iterations !
@     Converged SCF energy, gradient:   -189.675659245116    7.48D-06
    - total time used in SIRFCK :              0.00 seconds


 *** SCF orbital energy analysis ***

 Only the five lowest virtual orbital energies printed in each symmetry.

 Number of electrons :   30
 Orbital occupations :   15

 Sym       Hartree-Fock orbital energies

  1    -20.47263172   -11.28309975   -11.19520073   -11.19211155    -1.41028276
        -1.08425558    -0.88885278    -0.77207937    -0.69157690    -0.65040337
        -0.62829177    -0.55512962    -0.50714530    -0.42028568    -0.40072927
         0.14664830     0.16081436     0.29848530     0.30563540     0.31742274

    E(LUMO) :     0.14664830 au (symmetry 1)
  - E(HOMO) :    -0.40072927 au (symmetry 1)
  ------------------------------------------
    gap     :     0.54737757 au

 >>> Writing SIRIFC interface file <<<

 >>>> CPU and wall time for SCF :       0.106       0.129


                       .-----------------------------------.
                       | >>> Final results from SIRIUS <<< |
                       `-----------------------------------'


@    Spin multiplicity:           1
@    Spatial symmetry:            1
@    Total charge of molecule:    0

@    Final HF energy:            -189.675659245116                 
@    Nuclear repulsion:           103.785556766820
@    Electronic energy:          -293.461216011936

@    Final gradient norm:           0.000007481972

 
     Date and time (Linux)  : Mon Oct 21 14:55:28 2013
     Host name              : c10-6.local                             



 >>>> Total CPU  time used in SIRIUS :      0.13 seconds
 >>>> Total wall time used in SIRIUS :      0.17 seconds

 
     Date and time (Linux)  : Mon Oct 21 14:55:28 2013
     Host name              : c10-6.local                             


                     .---------------------------------------.
                     | End of Wave Function Section (SIRIUS) |
                     `---------------------------------------'

 Trust radius squarely increased due to very good ratio.
 Updated trust radius   0.50000

     Order of analytical energy-derivatives available:   2
     This will be the default.


        *****************************************************************
        ******** Output from **EACH  input processing for ABACUS ********
        *****************************************************************



 The following molecular properties will be calculated in this run:
 ------------------------------------------------------------------

 Default print level:       -2

      The molecular gradient
      The molecular Hessian
      Natural orbital connection is used
      for perturbation dependent basis sets.


 Changes of defaults for RESPON in ABACUS:
 -----------------------------------------

 Maximum dimension of reduced space (MAXRED):  600

 Center of mass dipole origin  :    0.029578   -0.074147    1.064911

 Center of mass gauge origin   :    0.029578   -0.074147    1.064911


                 .------------------------------------------------.
                 | Starting in Static Property Section (ABACUS) - |
                 `------------------------------------------------'


 
     Date and time (Linux)  : Mon Oct 21 14:55:28 2013
     Host name              : c10-6.local                             


            +---------------------------------------------------------+
            ! Gradient elements calculated directly and from symmetry !
            +---------------------------------------------------------+



        Coordinate    Direct calc.     Tra.-rot. sym.   Difference
        ----------------------------------------------------------

        C    x        0.0010018354     0.0010020561    -0.0000002207
        C    y       -0.0015550389    -0.0015554762     0.0000004373
        C    x        0.0003182232     0.0003163456     0.0000018776
        O    x       -0.0028519622    -0.0028503054    -0.0000016569
        O    y       -0.0005144519    -0.0005140147    -0.0000004373
        O    z        0.0029823565     0.0029823565    -0.0000000000



 >>> WARNING from TRAROT:

 Largest deviation from tra-rot symmetry is in gradient element  4:  1.88E-06


   ***************************************************************************
   ************************ FINAL RESULTS from ABACUS ************************
   ***************************************************************************


 
     Date and time (Linux)  : Mon Oct 21 14:55:29 2013
     Host name              : c10-6.local                             

 WARNING: warnings have been issued, please check the output above !


 CPU time statistics for ABACUS
 ------------------------------

 REST       00:00:01     100 %

 TOTAL      00:00:01     100 %


 >>>> Total CPU  time used in ABACUS:   1.37 seconds
 >>>> Total wall time used in ABACUS:   1.48 seconds


                   .-------------------------------------------.
                   | End of Static Property Section (ABACUS) - |
                   `-------------------------------------------'



           :::::::::::::::::::::::::::::::::::::::::::::::::::::::::::
           ::::::::::::::: Optimization Control Center :::::::::::::::
           :::::::::::::::::::::::::::::::::::::::::::::::::::::::::::



                                Next geometry (au)
                                ------------------

 C         -1.1996667265            0.6252961021           -1.8894741981
 C          1.1692429441           -0.0206444426            2.0857803772
 C          0.0175183179           -0.8897559147           -0.3421095471
 O          0.1316931604           -0.0660007235            4.1214248900
 H         -2.0032536502           -0.0499966049           -3.6236846215
 H          3.0947139371            0.6655954148            1.9090134747
 H          0.2426093302           -2.8634159469           -0.7729786808
 H         -1.4528573130            2.5989221156           -1.4879716944





                             Optimization information
                             ------------------------

 Iteration number               :       1
 End of optimization            :       F 
 Energy at this geometry is     :    -189.675659
 Energy change from last geom.  :      -0.004418
 Norm of gradient               :       0.009090
 Norm of step                   :       0.033341
 Updated trust radius           :       0.500000
 Total Hessian index            :       1




 **************************************************************************************
 ****************** Output of molecule and basis set info suppressed ******************
 **************************************************************************************



                     .---------------------------------------.
                     | Starting in Integral Section (HERMIT) |
                     `---------------------------------------'



    *************************************************************************
    ****************** Output from HERMIT input processing ******************
    *************************************************************************


 Threshold for neglecting two-electron integrals:  1.00D-12
 Number of two-electron integrals written:      457598 ( 93.3% )
 Megabytes written:                              5.242

 >>>  Time used in TWOINT     is   0.10 seconds
 >>>> Total CPU  time used in HERMIT:   0.12 seconds
 >>>> Total wall time used in HERMIT:   0.13 seconds


                        .----------------------------------.
                        | End of Integral Section (HERMIT) |
                        `----------------------------------'



                   .--------------------------------------------.
                   | Starting in Wave Function Section (SIRIUS) |
                   `--------------------------------------------'


 **********************************************************************
 *SIRIUS* a direct, restricted step, second order MCSCF program       *
 **********************************************************************

 (Wave function specification suppressed here, see output above for initial geometry.)


 >>>>> DIIS optimization of Hartree-Fock <<<<<

 C1-DIIS algorithm; max error vectors =    5

 Iter      Total energy        Error norm    Delta(E)  DIIS dim.
 -----------------------------------------------------------------------------
     (Precalculated two-electron integrals are transformed to P-supermatrix elements.
      Threshold for discarding integrals :  1.00D-12 )
@  1    -189.675563545        4.54440D-02    9.57D-05    1
      Virial theorem: -V/T =      2.002300
@      MULPOP C      -0.38; C       0.31; C      -0.36; O      -0.49; H       0.23; H       0.20; H       0.26; H       0.23; 
 -----------------------------------------------------------------------------
@  2    -189.675717772        1.24209D-02   -1.54D-04    2
      Virial theorem: -V/T =      2.002245
@      MULPOP C      -0.39; C       0.31; C      -0.35; O      -0.49; H       0.23; H       0.20; H       0.26; H       0.23; 
 -----------------------------------------------------------------------------
@  3    -189.675735191        6.86385D-03   -1.74D-05    3
      Virial theorem: -V/T =      2.002287
@      MULPOP C      -0.38; C       0.31; C      -0.36; O      -0.49; H       0.23; H       0.20; H       0.26; H       0.23; 
 -----------------------------------------------------------------------------
@  4    -189.675738852        2.20507D-03   -3.66D-06    4
      Virial theorem: -V/T =      2.002261
@      MULPOP C      -0.39; C       0.31; C      -0.36; O      -0.49; H       0.23; H       0.20; H       0.26; H       0.23; 
 -----------------------------------------------------------------------------
@  5    -189.675739922        8.82578D-04   -1.07D-06    5
      Virial theorem: -V/T =      2.002267
@      MULPOP C      -0.39; C       0.31; C      -0.36; O      -0.49; H       0.23; H       0.20; H       0.26; H       0.23; 
 -----------------------------------------------------------------------------
@  6    -189.675740195        4.72615D-04   -2.73D-07    5
      Virial theorem: -V/T =      2.002266
@      MULPOP C      -0.39; C       0.31; C      -0.36; O      -0.49; H       0.23; H       0.20; H       0.26; H       0.23; 
 -----------------------------------------------------------------------------
@  7    -189.675740284        2.31133D-04   -8.89D-08    5
      Virial theorem: -V/T =      2.002266
@      MULPOP C      -0.39; C       0.31; C      -0.36; O      -0.49; H       0.23; H       0.20; H       0.26; H       0.23; 
 -----------------------------------------------------------------------------
@  8    -189.675740307        1.04004D-04   -2.37D-08    5
      Virial theorem: -V/T =      2.002266
@      MULPOP C      -0.39; C       0.31; C      -0.36; O      -0.49; H       0.23; H       0.20; H       0.26; H       0.23; 
 -----------------------------------------------------------------------------
@  9    -189.675740312        3.94434D-05   -4.46D-09    5
      Virial theorem: -V/T =      2.002266
@      MULPOP C      -0.39; C       0.31; C      -0.36; O      -0.49; H       0.23; H       0.20; H       0.26; H       0.23; 
 -----------------------------------------------------------------------------
@ 10    -189.675740312        1.35842D-05   -4.44D-10    5
      Virial theorem: -V/T =      2.002266
@      MULPOP C      -0.39; C       0.31; C      -0.36; O      -0.49; H       0.23; H       0.20; H       0.26; H       0.23; 
 -----------------------------------------------------------------------------
@ 11    -189.675740312        5.53003D-06   -4.60D-11    5

@ *** DIIS converged in  11 iterations !
@     Converged SCF energy, gradient:   -189.675740312353    5.53D-06
    - total time used in SIRFCK :              0.00 seconds


 *** SCF orbital energy analysis ***

 Only the five lowest virtual orbital energies printed in each symmetry.

 Number of electrons :   30
 Orbital occupations :   15

 Sym       Hartree-Fock orbital energies

  1    -20.47319878   -11.28350237   -11.19580678   -11.19226066    -1.41233119
        -1.08304076    -0.88896234    -0.77222511    -0.69090277    -0.65074126
        -0.62928137    -0.55556921    -0.50865125    -0.41972002    -0.40047963
         0.14707912     0.16073218     0.29802725     0.30603674     0.31768755

    E(LUMO) :     0.14707912 au (symmetry 1)
  - E(HOMO) :    -0.40047963 au (symmetry 1)
  ------------------------------------------
    gap     :     0.54755875 au

 >>> Writing SIRIFC interface file <<<

 >>>> CPU and wall time for SCF :       0.096       0.117


                       .-----------------------------------.
                       | >>> Final results from SIRIUS <<< |
                       `-----------------------------------'


@    Spin multiplicity:           1
@    Spatial symmetry:            1
@    Total charge of molecule:    0

@    Final HF energy:            -189.675740312353                 
@    Nuclear repulsion:           103.614136725580
@    Electronic energy:          -293.289877037932

@    Final gradient norm:           0.000005530031

 
     Date and time (Linux)  : Mon Oct 21 14:55:30 2013
     Host name              : c10-6.local                             



 >>>> Total CPU  time used in SIRIUS :      0.13 seconds
 >>>> Total wall time used in SIRIUS :      0.15 seconds

 
     Date and time (Linux)  : Mon Oct 21 14:55:30 2013
     Host name              : c10-6.local                             


                     .---------------------------------------.
                     | End of Wave Function Section (SIRIUS) |
                     `---------------------------------------'

 Trust radius squarely increased due to very good ratio.
 Updated trust radius   0.50000

     Order of analytical energy-derivatives available:   2
     This will be the default.


        *****************************************************************
        ******** Output from **EACH  input processing for ABACUS ********
        *****************************************************************



 The following molecular properties will be calculated in this run:
 ------------------------------------------------------------------

 Default print level:       -2

      The molecular gradient
      The molecular Hessian
      Natural orbital connection is used
      for perturbation dependent basis sets.


 Changes of defaults for RESPON in ABACUS:
 -----------------------------------------

 Maximum dimension of reduced space (MAXRED):  600

 Center of mass dipole origin  :    0.032696   -0.073592    1.073881

 Center of mass gauge origin   :    0.032696   -0.073592    1.073881


                 .------------------------------------------------.
                 | Starting in Static Property Section (ABACUS) - |
                 `------------------------------------------------'


 
     Date and time (Linux)  : Mon Oct 21 14:55:30 2013
     Host name              : c10-6.local                             

 Largest deviation from tra-rot symmetry is in gradient element  1:  3.82E-07


   ***************************************************************************
   ************************ FINAL RESULTS from ABACUS ************************
   ***************************************************************************


 
     Date and time (Linux)  : Mon Oct 21 14:55:31 2013
     Host name              : c10-6.local                             


 CPU time statistics for ABACUS
 ------------------------------

 REST       00:00:01     100 %

 TOTAL      00:00:01     100 %


 >>>> Total CPU  time used in ABACUS:   1.37 seconds
 >>>> Total wall time used in ABACUS:   1.46 seconds


                   .-------------------------------------------.
                   | End of Static Property Section (ABACUS) - |
                   `-------------------------------------------'



           :::::::::::::::::::::::::::::::::::::::::::::::::::::::::::
           ::::::::::::::: Optimization Control Center :::::::::::::::
           :::::::::::::::::::::::::::::::::::::::::::::::::::::::::::



                                Next geometry (au)
                                ------------------

 C         -1.1997259721            0.6253785159           -1.8896883202
 C          1.1692866153           -0.0206753211            2.0860839433
 C          0.0171414049           -0.8895343295           -0.3419789120
 O          0.1323002375           -0.0666563911            4.1218546601
 H         -2.0029093289           -0.0500950276           -3.6238291890
 H          3.0945040548            0.6657674867            1.9088943551
 H          0.2423719039           -2.8631642268           -0.7727530795
 H         -1.4529689153            2.5989792935           -1.4885834579





                             Optimization information
                             ------------------------

 Iteration number               :       2
 End of optimization            :       F 
 Energy at this geometry is     :    -189.675740
 Energy change from last geom.  :      -0.000081
 Norm of gradient               :       0.000239
 Norm of step                   :       0.001035
 Updated trust radius           :       0.500000
 Total Hessian index            :       1




 **************************************************************************************
 ****************** Output of molecule and basis set info suppressed ******************
 **************************************************************************************



                     .---------------------------------------.
                     | Starting in Integral Section (HERMIT) |
                     `---------------------------------------'



    *************************************************************************
    ****************** Output from HERMIT input processing ******************
    *************************************************************************


 Threshold for neglecting two-electron integrals:  1.00D-12
 Number of two-electron integrals written:      457588 ( 93.3% )
 Megabytes written:                              5.242

 >>>  Time used in TWOINT     is   0.10 seconds
 >>>> Total CPU  time used in HERMIT:   0.12 seconds
 >>>> Total wall time used in HERMIT:   0.13 seconds


                        .----------------------------------.
                        | End of Integral Section (HERMIT) |
                        `----------------------------------'



                   .--------------------------------------------.
                   | Starting in Wave Function Section (SIRIUS) |
                   `--------------------------------------------'


 **********************************************************************
 *SIRIUS* a direct, restricted step, second order MCSCF program       *
 **********************************************************************

 (Wave function specification suppressed here, see output above for initial geometry.)


 >>>>> DIIS optimization of Hartree-Fock <<<<<

 C1-DIIS algorithm; max error vectors =    5

 Iter      Total energy        Error norm    Delta(E)  DIIS dim.
 -----------------------------------------------------------------------------
     (Precalculated two-electron integrals are transformed to P-supermatrix elements.
      Threshold for discarding integrals :  1.00D-12 )
@  1    -189.675740192        1.26262D-03    1.21D-07    1
      Virial theorem: -V/T =      2.002266
@      MULPOP C      -0.39; C       0.31; C      -0.36; O      -0.49; H       0.23; H       0.20; H       0.26; H       0.23; 
 -----------------------------------------------------------------------------
@  2    -189.675740330        3.57526D-04   -1.39D-07    2
      Virial theorem: -V/T =      2.002263
@      MULPOP C      -0.39; C       0.31; C      -0.36; O      -0.49; H       0.23; H       0.20; H       0.26; H       0.23; 
 -----------------------------------------------------------------------------
@  3    -189.675740347        1.60301D-04   -1.70D-08    3
      Virial theorem: -V/T =      2.002264
@      MULPOP C      -0.39; C       0.31; C      -0.36; O      -0.49; H       0.23; H       0.20; H       0.26; H       0.23; 
 -----------------------------------------------------------------------------
@  4    -189.675740350        6.09941D-05   -2.25D-09    4
      Virial theorem: -V/T =      2.002264
@      MULPOP C      -0.39; C       0.31; C      -0.36; O      -0.49; H       0.23; H       0.20; H       0.26; H       0.23; 
 -----------------------------------------------------------------------------
@  5    -189.675740350        2.46709D-05   -6.33D-10    5
      Virial theorem: -V/T =      2.002264
@      MULPOP C      -0.39; C       0.31; C      -0.36; O      -0.49; H       0.23; H       0.20; H       0.26; H       0.23; 
 -----------------------------------------------------------------------------
@  6    -189.675740350        1.04853D-05   -1.19D-10    5
      Virial theorem: -V/T =      2.002264
@      MULPOP C      -0.39; C       0.31; C      -0.36; O      -0.49; H       0.23; H       0.20; H       0.26; H       0.23; 
 -----------------------------------------------------------------------------
@  7    -189.675740350        2.13676D-06   -1.91D-11    5

@ *** DIIS converged in   7 iterations !
@     Converged SCF energy, gradient:   -189.675740350443    2.14D-06
    - total time used in SIRFCK :              0.00 seconds


 *** SCF orbital energy analysis ***

 Only the five lowest virtual orbital energies printed in each symmetry.

 Number of electrons :   30
 Orbital occupations :   15

 Sym       Hartree-Fock orbital energies

  1    -20.47320585   -11.28350366   -11.19580647   -11.19224033    -1.41238339
        -1.08302390    -0.88896398    -0.77224366    -0.69089572    -0.65076723
        -0.62929774    -0.55558517    -0.50868368    -0.41970761    -0.40048083
         0.14707718     0.16076281     0.29803079     0.30605733     0.31770374

    E(LUMO) :     0.14707718 au (symmetry 1)
  - E(HOMO) :    -0.40048083 au (symmetry 1)
  ------------------------------------------
    gap     :     0.54755802 au

 >>> Writing SIRIFC interface file <<<

 >>>> CPU and wall time for SCF :       0.077       0.092


                       .-----------------------------------.
                       | >>> Final results from SIRIUS <<< |
                       `-----------------------------------'


@    Spin multiplicity:           1
@    Spatial symmetry:            1
@    Total charge of molecule:    0

@    Final HF energy:            -189.675740350443                 
@    Nuclear repulsion:           103.612561816499
@    Electronic energy:          -293.288302166942

@    Final gradient norm:           0.000002136757

 
     Date and time (Linux)  : Mon Oct 21 14:55:31 2013
     Host name              : c10-6.local                             



 >>>> Total CPU  time used in SIRIUS :      0.11 seconds
 >>>> Total wall time used in SIRIUS :      0.13 seconds

 
     Date and time (Linux)  : Mon Oct 21 14:55:31 2013
     Host name              : c10-6.local                             


                     .---------------------------------------.
                     | End of Wave Function Section (SIRIUS) |
                     `---------------------------------------'

 Trust radius squarely increased due to very good ratio.
 Updated trust radius   0.50000

     Order of analytical energy-derivatives available:   2
     This will be the default.


        *****************************************************************
        ******** Output from **EACH  input processing for ABACUS ********
        *****************************************************************



 The following molecular properties will be calculated in this run:
 ------------------------------------------------------------------

 Default print level:       -2

      The molecular gradient
      The molecular Hessian
      Natural orbital connection is used
      for perturbation dependent basis sets.


 Changes of defaults for RESPON in ABACUS:
 -----------------------------------------

 Maximum dimension of reduced space (MAXRED):  600

 Center of mass dipole origin  :    0.032781   -0.073714    1.074039

 Center of mass gauge origin   :    0.032781   -0.073714    1.074039


                 .------------------------------------------------.
                 | Starting in Static Property Section (ABACUS) - |
                 `------------------------------------------------'


 
     Date and time (Linux)  : Mon Oct 21 14:55:31 2013
     Host name              : c10-6.local                             

 Largest deviation from tra-rot symmetry is in gradient element  4:  4.18E-07


   ***************************************************************************
   ************************ FINAL RESULTS from ABACUS ************************
   ***************************************************************************


 
     Date and time (Linux)  : Mon Oct 21 14:55:33 2013
     Host name              : c10-6.local                             


 CPU time statistics for ABACUS
 ------------------------------

 REST       00:00:01     100 %

 TOTAL      00:00:01     100 %


 >>>> Total CPU  time used in ABACUS:   1.37 seconds
 >>>> Total wall time used in ABACUS:   1.47 seconds


                   .-------------------------------------------.
                   | End of Static Property Section (ABACUS) - |
                   `-------------------------------------------'



           :::::::::::::::::::::::::::::::::::::::::::::::::::::::::::
           ::::::::::::::: Optimization Control Center :::::::::::::::
           :::::::::::::::::::::::::::::::::::::::::::::::::::::::::::



                               Final geometry (au)
                               -------------------

 C         -1.1997259721            0.6253785159           -1.8896883202
 C          1.1692866153           -0.0206753211            2.0860839433
 C          0.0171414049           -0.8895343295           -0.3419789120
 O          0.1323002375           -0.0666563911            4.1218546601
 H         -2.0029093289           -0.0500950276           -3.6238291890
 H          3.0945040548            0.6657674867            1.9088943551
 H          0.2423719039           -2.8631642268           -0.7727530795
 H         -1.4529689153            2.5989792935           -1.4885834579





                             Optimization information
                             ------------------------

 Iteration number               :       3
 End of optimization            :       T 
 Energy at this geometry is     :    -189.675740
 Energy change from last geom.  :      -0.000000
 Norm of gradient               :       0.000002
 Norm of step                   :       0.000057
 Updated trust radius           :       0.500000
 Total Hessian index            :       1



 Center of mass dipole origin  :    0.032781   -0.073714    1.074039

 Center of mass gauge origin   :    0.032781   -0.073714    1.074039


                 .------------------------------------------------.
                 | Starting in Static Property Section (ABACUS) - |
                 `------------------------------------------------'


 
     Date and time (Linux)  : Mon Oct 21 14:55:33 2013
     Host name              : c10-6.local                             


   ***************************************************************************
   ************************ FINAL RESULTS from ABACUS ************************
   ***************************************************************************


 
     Date and time (Linux)  : Mon Oct 21 14:55:33 2013
     Host name              : c10-6.local                             


                             Molecular geometry (au)
                             -----------------------

 C         -1.1997259721            0.6253785159           -1.8896883202
 C          1.1692866153           -0.0206753211            2.0860839433
 C          0.0171414049           -0.8895343295           -0.3419789120
 O          0.1323002375           -0.0666563911            4.1218546601
 H         -2.0029093289           -0.0500950276           -3.6238291890
 H          3.0945040548            0.6657674867            1.9088943551
 H          0.2423719039           -2.8631642268           -0.7727530795
 H         -1.4529689153            2.5989792935           -1.4885834579





                        Molecular wave function and energy
                        ----------------------------------

     Spin multiplicity  1     State number       1     Total charge       0

     Total energy       -189.6757403504 au (Hartrees)
                         -5161.33944598 eV
                           -497993.5795 kJ/mol


                             Relativistic corrections
                             ------------------------

     Darwin correction:                          0.2981442260 au
     Mass-velocity correction:                  -0.3829078869 au

     Total relativistic correction:             -0.0847636609 au (0.0447%)
     Non-relativistic + relativistic energy:  -189.7605040113 au




                                  Dipole moment
                                  -------------

                 au               Debye          C m (/(10**-30)
              1.174582           2.985490           9.958524


                             Dipole moment components
                             ------------------------

                 au               Debye          C m (/(10**-30)

      x      0.35660062         0.90638830         3.02338594
      y      0.00389812         0.00990802         0.03304961
      z     -1.11913558        -2.84455874        -9.48842661


   Units:   1 a.u. =   2.54175 Debye 
            1 a.u. =   8.47835 (10**-30) C m (SI)




   Interatomic separations (in Angstrom):
   --------------------------------------

            C           C           C           O           H           H     
            ------      ------      ------      ------      ------      ------
 C     :    0.000000
 C     :    2.472814    0.000000
 C     :    1.314569    1.494665    0.000000
 O     :    3.278843    1.209239    2.402733    0.000000
 H     :    1.072627    3.456576    2.087120    4.251734    0.000000
 H     :    3.033957    1.085660    2.179000    1.994674    3.998952    0.000000
 H     :    2.083179    2.189020    1.075612    2.983628    2.429798    2.789083
 H     :    1.074128    2.724983    2.093139    3.392340    1.823882    3.173284

            H           H     
            ------      ------
 H     :    0.000000
 H     :    3.050081    0.000000


  Max    interatomic separation is    4.2517 Angstrom (    8.0346 Bohr)
  between atoms    5 and    4, "H     " and "O     ".

  Min HX interatomic separation is    1.0726 Angstrom (    2.0270 Bohr)

  Min YX interatomic separation is    1.2092 Angstrom (    2.2851 Bohr)


  Bond distances (Angstrom):
  --------------------------

                  atom 1     atom 2       distance
                  ------     ------       --------
  bond distance:  C          C            1.314569
  bond distance:  C          C            1.494665
  bond distance:  O          C            1.209239
  bond distance:  H          C            1.072627
  bond distance:  H          C            1.085660
  bond distance:  H          C            1.075612
  bond distance:  H          C            1.074128


  Bond angles (degrees):
  ----------------------

                  atom 1     atom 2     atom 3         angle
                  ------     ------     ------         -----
  bond angle:     C          C          H            121.594
  bond angle:     C          C          H            122.069
  bond angle:     H          C          H            116.336
  bond angle:     C          C          O            125.067
  bond angle:     C          C          H            114.297
  bond angle:     O          C          H            120.632
  bond angle:     C          C          C            123.216
  bond angle:     C          C          H            120.955
  bond angle:     C          C          H            115.828




 CPU time statistics for ABACUS
 ------------------------------




 >>>> Total CPU  time used in ABACUS:   0.01 seconds
 >>>> Total wall time used in ABACUS:   0.02 seconds


                   .-------------------------------------------.
                   | End of Static Property Section (ABACUS) - |
                   `-------------------------------------------'



          <<<<<<<<<<<<<<<<<<<<<<<<<<<<<<<<<<<<<<<<<<<<<<<<<<<<<<<<<<<<<<
          <<<<<<<<<<<<<<<<<<<<  End of Optimization <<<<<<<<<<<<<<<<<<<<
          <<<<<<<<<<<<<<<<<<<<<<<<<<<<<<<<<<<<<<<<<<<<<<<<<<<<<<<<<<<<<<



                                  Final geometry
                                  --------------

 C         -1.1997259721            0.6253785159           -1.8896883202
 C          1.1692866153           -0.0206753211            2.0860839433
 C          0.0171414049           -0.8895343295           -0.3419789120
 O          0.1323002375           -0.0666563911            4.1218546601
 H         -2.0029093289           -0.0500950276           -3.6238291890
 H          3.0945040548            0.6657674867            1.9088943551
 H          0.2423719039           -2.8631642268           -0.7727530795
 H         -1.4529689153            2.5989792935           -1.4885834579



@ Iter      Energy        Change       GradNorm  Index   StepLen    TrustRad #Rej
@ -------------------------------------------------------------------------------
@   0     -189.671242     0.000000     0.077944    1    0.201453*   0.500000   0 
@   1     -189.675659    -0.004418     0.009090    1    0.033341*   0.500000   0 
@   2     -189.675740    -0.000081     0.000239    1    0.001035*   0.500000   0 
@   3     -189.675740    -0.000000     0.000002    1    0.000057*   0.500000   0 

@  *) Newton step taken.


   Interatomic separations (in Angstrom):
   --------------------------------------

            C           C           C           O           H           H     
            ------      ------      ------      ------      ------      ------
 C     :    0.000000
 C     :    2.472814    0.000000
 C     :    1.314569    1.494665    0.000000
 O     :    3.278843    1.209239    2.402733    0.000000
 H     :    1.072627    3.456576    2.087120    4.251734    0.000000
 H     :    3.033957    1.085660    2.179000    1.994674    3.998952    0.000000
 H     :    2.083179    2.189020    1.075612    2.983628    2.429798    2.789083
 H     :    1.074128    2.724983    2.093139    3.392340    1.823882    3.173284

            H           H     
            ------      ------
 H     :    0.000000
 H     :    3.050081    0.000000


  Max    interatomic separation is    4.2517 Angstrom (    8.0346 Bohr)
  between atoms    5 and    4, "H     " and "O     ".

  Min HX interatomic separation is    1.0726 Angstrom (    2.0270 Bohr)

  Min YX interatomic separation is    1.2092 Angstrom (    2.2851 Bohr)


  Bond distances (Angstrom):
  --------------------------

                  atom 1     atom 2       distance
                  ------     ------       --------
  bond distance:  C          C            1.314569
  bond distance:  C          C            1.494665
  bond distance:  O          C            1.209239
  bond distance:  H          C            1.072627
  bond distance:  H          C            1.085660
  bond distance:  H          C            1.075612
  bond distance:  H          C            1.074128


  Bond angles (degrees):
  ----------------------

                  atom 1     atom 2     atom 3         angle
                  ------     ------     ------         -----
  bond angle:     C          C          H            121.594
  bond angle:     C          C          H            122.069
  bond angle:     H          C          H            116.336
  bond angle:     C          C          O            125.067
  bond angle:     C          C          H            114.297
  bond angle:     O          C          H            120.632
  bond angle:     C          C          C            123.216
  bond angle:     C          C          H            120.955
  bond angle:     C          C          H            115.828



@ Geometry converged in  4 iterations!

@ Energy at final geometry is       :    -189.675740 a.u.
@ Energy change during optimization :      -0.004499 a.u.
@                                            -11.812 kJ/mol
 
 >>>> Total CPU  time used in DALTON:   6.69 seconds
 >>>> Total wall time used in DALTON:   7.37 seconds

 
     Date and time (Linux)  : Mon Oct 21 14:55:33 2013
     Host name              : c10-6.local                             
