

     ************************************************************************
     *************** Dalton - An Electronic Structure Program ***************
     ************************************************************************

    This is output from DALTON (Release Dalton2013 patch 0)
   ----------------------------------------------------------------------------
    NOTE:
     
    Dalton is an experimental code for the evaluation of molecular
    properties using (MC)SCF, DFT, CI, and CC wave functions.
    The authors accept no responsibility for the performance of
    the code or for the correctness of the results.
     
    The code (in whole or part) is provided under a licence and
    is not to be reproduced for further distribution without
    the written permission of the authors or their representatives.
     
    See the home page "http://daltonprogram.org" for further information.
     
    If results obtained with this code are published,
    the appropriate citations would be both of:
     
       K. Aidas, C. Angeli, K. L. Bak, V. Bakken, R. Bast,
       L. Boman, O. Christiansen, R. Cimiraglia, S. Coriani,
       P. Dahle, E. K. Dalskov, U. Ekstroem, T. Enevoldsen,
       J. J. Eriksen, P. Ettenhuber, B. Fernandez, L. Ferrighi,
       H. Fliegl, L. Frediani, K. Hald, A. Halkier, C. Haettig,
       H. Heiberg, T. Helgaker, A. C. Hennum, H. Hettema,
       E. Hjertenaes, S. Hoest, I.-M. Hoeyvik, M. F. Iozzi,
       B. Jansik, H. J. Aa. Jensen, D. Jonsson, P. Joergensen,
       J. Kauczor, S. Kirpekar, T. Kjaergaard, W. Klopper,
       S. Knecht, R. Kobayashi, H. Koch, J. Kongsted, A. Krapp,
       K. Kristensen, A. Ligabue, O. B. Lutnaes, J. I. Melo,
       K. V. Mikkelsen, R. H. Myhre, C. Neiss, C. B. Nielsen,
       P. Norman, J. Olsen, J. M. H. Olsen, A. Osted,
       M. J. Packer, F. Pawlowski, T. B. Pedersen, P. F. Provasi,
       S. Reine, Z. Rinkevicius, T. A. Ruden, K. Ruud, V. Rybkin,
       P. Salek, C. C. M. Samson, A. Sanchez de Meras, T. Saue,
       S. P. A. Sauer, B. Schimmelpfennig, K. Sneskov,
       A. H. Steindal, K. O. Sylvester-Hvid, P. R. Taylor,
       A. M. Teale, E. I. Tellgren, D. P. Tew, A. J. Thorvaldsen,
       L. Thoegersen, O. Vahtras, M. A. Watson, D. J. D. Wilson,
       M. Ziolkowski and H. Agren.
       The Dalton quantum chemistry program system.
       WIREs Comput. Mol. Sci. 2013. doi: 10.1002/wcms.1172
    
    and
    
       Dalton, a Molecular Electronic Structure Program,
       Release DALTON2013.0 (2013), see http://daltonprogram.org
   ----------------------------------------------------------------------------

    Authors in alphabetical order (major contribution(s) in parenthesis):

  Kestutis Aidas,           Vilnius University,           Lithuania   (QM/MM)
  Celestino Angeli,         University of Ferrara,        Italy       (NEVPT2)
  Keld L. Bak,              UNI-C,                        Denmark     (AOSOPPA, non-adiabatic coupling, magnetic properties)
  Vebjoern Bakken,          University of Oslo,           Norway      (DALTON; geometry optimizer, symmetry detection)
  Radovan Bast,             KTH Stockholm                 Sweden      (DALTON installation and execution frameworks)
  Linus Boman,              NTNU,                         Norway      (Cholesky decomposition and subsystems)
  Ove Christiansen,         Aarhus University,            Denmark     (CC module)
  Renzo Cimiraglia,         University of Ferrara,        Italy       (NEVPT2)
  Sonia Coriani,            University of Trieste,        Italy       (CC module, MCD in RESPONS)
  Paal Dahle,               University of Oslo,           Norway      (Parallelization)
  Erik K. Dalskov,          UNI-C,                        Denmark     (SOPPA)
  Thomas Enevoldsen,        Univ. of Southern Denmark,    Denmark     (SOPPA)
  Janus J. Eriksen,         Aarhus University,            Denmark     (PE-MP2/SOPPA, TDA)
  Berta Fernandez,          U. of Santiago de Compostela, Spain       (doublet spin, ESR in RESPONS)
  Lara Ferrighi,            Aarhus University,            Denmark     (PCM Cubic response)
  Heike Fliegl,             University of Oslo,           Norway      (CCSD(R12))
  Luca Frediani,            UiT The Arctic U. of Norway,  Norway      (PCM)
  Bin Gao,                  UiT The Arctic U. of Norway,  Norway      (Gen1Int library)
  Christof Haettig,         Ruhr-University Bochum,       Germany     (CC module)
  Kasper Hald,              Aarhus University,            Denmark     (CC module)
  Asger Halkier,            Aarhus University,            Denmark     (CC module)
  Hanne Heiberg,            University of Oslo,           Norway      (geometry analysis, selected one-electron integrals)
  Trygve Helgaker,          University of Oslo,           Norway      (DALTON; ABACUS, ERI, DFT modules, London, and much more)
  Alf Christian Hennum,     University of Oslo,           Norway      (Parity violation)
  Hinne Hettema,            University of Auckland,       New Zealand (quadratic response in RESPONS; SIRIUS supersymmetry)
  Eirik Hjertenaes,         NTNU,                         Norway      (Cholesky decomposition)
  Maria Francesca Iozzi,    University of Oslo,           Norway      (RPA)
  Brano Jansik              Technical Univ. of Ostrava    Czech Rep.  (DFT cubic response)
  Hans Joergen Aa. Jensen,  Univ. of Southern Denmark,    Denmark     (DALTON; SIRIUS, RESPONS, ABACUS modules, London, and much more)
  Dan Jonsson,              UiT The Arctic U. of Norway,  Norway      (cubic response in RESPONS module)
  Poul Joergensen,          Aarhus University,            Denmark     (RESPONS, ABACUS, and CC modules)
  Joanna Kauczor,           Linkoeping University,        Sweden      (Complex polarization propagator (CPP) module)
  Sheela Kirpekar,          Univ. of Southern Denmark,    Denmark     (Mass-velocity & Darwin integrals)
  Wim Klopper,              KIT Karlsruhe,                Germany     (R12 code in CC, SIRIUS, and ABACUS modules)
  Stefan Knecht,            ETH Zurich,                   Switzerland (Parallel CI and MCSCF)
  Rika Kobayashi,           Australian National Univ.,    Australia   (DIIS in CC, London in MCSCF)
  Henrik Koch,              NTNU,                         Norway      (CC module, Cholesky decomposition)
  Jacob Kongsted,           Univ. of Southern Denmark,    Denmark     (Polarizable embedding, QM/MM)
  Andrea Ligabue,           University of Modena,         Italy       (CTOCD, AOSOPPA)
  Ola B. Lutnaes,           University of Oslo,           Norway      (DFT Hessian)
  Juan I. Melo,             University of Buenos Aires,   Argentina   (LRESC, Relativistic Effects on NMR Shieldings)
  Kurt V. Mikkelsen,        University of Copenhagen,     Denmark     (MC-SCRF and QM/MM)
  Rolf H. Myhre,            NTNU,                         Norway      (Cholesky, subsystems and ECC2)
  Christian Neiss,          Univ. Erlangen-Nuernberg,     Germany     (CCSD(R12))
  Christian B. Nielsen,     University of Copenhagen,     Denmark     (QM/MM)
  Patrick Norman,           Linkoeping University,        Sweden      (Cubic response and complex response in RESPONS)
  Jeppe Olsen,              Aarhus University,            Denmark     (SIRIUS CI/density modules)
  Jogvan Magnus H. Olsen,   Univ. of Southern Denmark,    Denmark     (Polarizable embedding, PE library, QM/MM)
  Anders Osted,             Copenhagen University,        Denmark     (QM/MM)
  Martin J. Packer,         University of Sheffield,      UK          (SOPPA)
  Filip Pawlowski,          Kazimierz Wielki University   Poland      (CC3)
  Thomas B. Pedersen,       University of Oslo,           Norway      (Cholesky decomposition)
  Patricio F. Provasi,      University of Northeastern,   Argentina   (Analysis of coupling constants in localized orbitals)
  Zilvinas Rinkevicius,     KTH Stockholm,                Sweden      (open-shell DFT, ESR)
  Elias Rudberg,            KTH Stockholm,                Sweden      (DFT grid and basis info)
  Torgeir A. Ruden,         University of Oslo,           Norway      (Numerical derivatives in ABACUS)
  Kenneth Ruud,             UiT The Arctic U. of Norway,  Norway      (DALTON; ABACUS magnetic properties and  much more)
  Pawel Salek,              KTH Stockholm,                Sweden      (DALTON; DFT code)
  Claire C. M. Samson       University of Karlsruhe       Germany     (Boys localization, r12 integrals in ERI)
  Alfredo Sanchez de Meras, University of Valencia,       Spain       (CC module, Cholesky decomposition)
  Trond Saue,               Paul Sabatier University,     France      (direct Fock matrix construction)
  Stephan P. A. Sauer,      University of Copenhagen,     Denmark     (SOPPA(CCSD), SOPPA prop., AOSOPPA, vibrational g-factors)
  Bernd Schimmelpfennig,    Forschungszentrum Karlsruhe,  Germany     (AMFI module)
  Kristian Sneskov,         Aarhus University,            Denmark     (QM/MM, PE-CC)
  Arnfinn H. Steindal,      UiT The Arctic U. of Norway,  Norway      (parallel QM/MM)
  K. O. Sylvester-Hvid,     University of Copenhagen,     Denmark     (MC-SCRF)
  Peter R. Taylor,          VLSCI/Univ. of Melbourne,     Australia   (Symmetry handling ABACUS, integral transformation)
  Andrew M. Teale,          University of Nottingham,     England     (DFT-AC, DFT-D)
  David P. Tew,             University of Bristol,        England     (CCSD(R12))
  Olav Vahtras,             KTH Stockholm,                Sweden      (triplet response, spin-orbit, ESR, TDDFT, open-shell DFT)
  David J. Wilson,          La Trobe University,          Australia   (DFT Hessian and DFT magnetizabilities)
  Hans Agren,               KTH Stockholm,                Sweden      (SIRIUS module, RESPONS, MC-SCRF solvation model)
 --------------------------------------------------------------------------------

     Date and time (Linux)  : Sun Sep  8 20:41:15 2013
     Host name              : lpqlx131.ups-tlse.fr                    

 * Work memory size             :    64000000 =  488.28 megabytes.

 * Directories for basis set searches:
   1) /home/bast/DALTON-2013.0-Source/build/test_cc2mm_atmvdw
   2) /home/bast/DALTON-2013.0-Source/build/basis


Compilation information
-----------------------

 Who compiled             | bast
 Host                     | lpqlx131.ups-tlse.fr
 System                   | Linux-3.8.5-201.fc18.x86_64
 CMake generator          | Unix Makefiles
 Processor                | x86_64
 64-bit integers          | OFF
 MPI                      | OFF
 Fortran compiler         | /usr/bin/gfortran
 Fortran compiler version | GNU Fortran (GCC) 4.7.2 20121109 (Red Hat 4.7.2-8)
 C compiler               | /usr/bin/gcc
 C compiler version       | gcc (GCC) 4.7.2 20121109 (Red Hat 4.7.2-8)
 C++ compiler             | /usr/bin/g++
 C++ compiler version     | g++ (GCC) 4.7.2 20121109 (Red Hat 4.7.2-8)
 Static linking           | OFF
 Last Git revision        | f34203295a86316e27f9e7b44f9b6769c4a046c0
 Configuration time       | 2013-09-08 20:31:27.952056


   Content of the .dal input file
 ----------------------------------

**DALTON                                          
.RUN WAVEFUNCTION                                 
*QM3                                              
.QM3                                              
.THRDIP                                           
 1.0D-9                                           
.MAXDIP                                           
 180                                              
.ATMVDW  # (Giving the Van der Waals sigma and eps
 SIGMLT  # (Sigma_ij= sqrt[sigma_i*sigma_j]: Optio
 EPSMLT  # (epsilon_ij=sqrt[epsilon_i*epsilon_j]: 
**INTEGRALS                                       
.DIPLEN                                           
.NUCPOT                                           
.THETA                                            
.NELFLD                                           
**WAVE FUNCTIONS                                  
.CC                                               
*SCF INP                                          
.THRESH                                           
1.0D-10                                           
*CC INP                                           
.FREEZE                                           
 7 0                                              
.CC2                                              
.THRLEQ                                           
 1.0D-8                                           
.THRENR                                           
 1.0D-8                                           
.MAX IT                                           
 200                                              
.MAXRED                                           
 600                                              
.MXLRV                                            
 200                                              
*CCSLV                                            
.CCMM                                             
.ETOLSL                                           
 1.0D-7                                           
.TTOLSL                                           
 1.0D-7                                           
.LTOLSL                                           
 1.0D-7                                           
.MXSLIT                                           
 200                                              
*CCFOP                                            
.DIPMOM                                           
.QUADRU                                           
.NONREL                                           
*CCEXCI                                           
.NCCEXC                                           
 2                                                
**END OF                                          


   Content of the .mol file
 ----------------------------

ATOMBASIS                                                                      
QM/MM WATER_1                                                                  
------------------------                                                       
    5    0         1 1.00D-15                                                  
        6.0   6    Bas=STO-3G                                                  
C          -0.000011        1.204184       -0.241226   0   1                   
C          -0.000055       -1.179775        1.190184   0   2                   
C           0.000055       -0.014769       -0.917402   0   3                   
C          -0.000043        1.225561        1.151838   0   4                   
C          -0.000082        0.035394        1.873987   0   5                   
C           0.000048       -1.209960       -0.200235   0   6                   
        8.0   1    Bas=STO-3G                                                  
O           0.000001       -0.102091       -2.281945   0   7                   
        1.0   6    Bas=STO-3G                                                  
H          -0.000071        2.175812        1.667937   0   8                   
H          -0.000133        0.053625        2.954254   0   9                   
H           0.000124       -2.144132       -0.743618   0  10                   
H          -0.000068       -2.110990        1.739952   0  11                   
H           0.001282        0.792008       -2.639041   0  12                   
H          -0.000072        2.131743       -0.801250   0  13                   
   -0.669    10     Bas=MM                                                     
O          -0.418929       -1.660265       -4.781945   1   1                   
O          -4.002114        0.473829       -4.193504   2   1                   
O           4.342195       -0.872334       -4.151706   3   1                   
O           4.814551        2.386398       -3.676682   4   1                   
O          -0.893202        1.678174       -6.674935   5   1                   
O           0.326288        3.925564       -5.780771   6   1                   
O          -2.626564       -5.029064       -4.197251   7   1                   
O           3.402347        1.075004       -6.083000   8   1                   
O          -2.901438       -0.658868       -6.792613   9   1                   
O           0.000011       -5.991097       -4.781945  10   1                   
    0.3345   20     Bas=MM                                                     
H          -0.179685       -2.505377       -5.162322   1   2                   
H          -0.336975       -1.039749       -5.506087   1   3                   
H          -3.838459        1.406843       -4.056214   2   2                   
H          -4.906396        0.432394       -4.504486   2   3                   
H           4.063907       -0.374436       -4.920337   3   2                   
H           3.934742       -0.420264       -3.412950   3   3                   
H           5.472248        2.674706       -4.309505   4   2                   
H           4.254348        1.786929       -4.169589   4   3                   
H          -0.131046        1.268891       -7.084514   5   2                   
H          -0.541443        2.450293       -6.231966   5   3                   
H          -0.072098        3.888013       -4.911281   6   2                   
H           0.050144        4.770969       -6.134576   6   3                   
H          -2.610723       -4.593898       -5.049610   7   2                   
H          -1.858094       -5.599612       -4.205179   7   3                   
H           2.810562        1.398417       -6.762236   8   2                   
H           4.194348        0.820678       -6.556489   8   3                   
H          -2.070827       -0.323058       -7.129474   9   2                   
H          -3.045368       -0.171928       -5.981257   9   3                   
H           0.266280       -5.556879       -5.592314  10   2                   
H           0.658520       -6.672642       -4.647754  10   3                   


       *******************************************************************
       *********** Output from DALTON general input processing ***********
       *******************************************************************

 --------------------------------------------------------------------------------
   Overall default print level:    0
   Print level for DALTON.STAT:    1

    HERMIT 1- and 2-electron integral sections will be executed
    "Old" integral transformation used (limited to max 255 basis functions)
    Wave function sections will be executed (SIRIUS module)
 --------------------------------------------------------------------------------


 Changes of defaults for *QM3   :
 --------------------------------

 +------------------+
 |  WORD: | CHANGE: |
 +------------------+
 |    QM3 |       T |
 | MXDIIT |     180 |
 |  PRINT |       0 |
 | ATMVDW |       T |
 | EPSMLT |       T |
 | SIGMLT |       T |
 +------------------+
  Settings for determination of induced dipoles:
  Iterative Method is used
 +------------------+


    *************************************************************************
    *************** Output from MM potential input processing ***************
    *************************************************************************



 ------------------------------------------------------------------------
 | QM-sys type: | Systems:    | Model:  | Electric properties:          |
 ------------------------------------------------------------------------
 |          0   | [   0;   0] | SPC     |     No classical polarization |
 ------------------------------------------------------------------------


 ------------------------------------------------------------------------
 | MM-sys type: | Systems:    | Model:  | Electric properties:          |
 ------------------------------------------------------------------------
 |          1   | [   1;  10] | SPC_E01 | Isotropic polarizability:     |
 |              |             |         | alp( 1)=  9.7180              |
 ------------------------------------------------------------------------




   ****************************************************************************
   *************** Output of molecule and basis set information ***************
   ****************************************************************************


    The two title cards from your ".mol" input:
    ------------------------------------------------------------------------
 1: QM/MM WATER_1                                                           
 2: ------------------------                                                
    ------------------------------------------------------------------------

  Coordinates are entered in Angstrom and converted to atomic units.
          - Conversion factor : 1 bohr = 0.52917721 A

  Atomic type no.    1
  --------------------
  Nuclear charge:   6.00000
  Number of symmetry independent centers:    6
  Number of basis sets to read;    2
  The basis set is "STO-3G" from the basis set library.
  Basis set file used for this atomic type with Z =   6 :
     "/home/bast/DALTON-2013.0-Source/build/basis/STO-3G"

  Atomic type no.    2
  --------------------
  Nuclear charge:   8.00000
  Number of symmetry independent centers:    1
  Number of basis sets to read;    2
  The basis set is "STO-3G" from the basis set library.
  Basis set file used for this atomic type with Z =   8 :
     "/home/bast/DALTON-2013.0-Source/build/basis/STO-3G"

  Atomic type no.    3
  --------------------
  Nuclear charge:   1.00000
  Number of symmetry independent centers:    6
  Number of basis sets to read;    2
  The basis set is "STO-3G" from the basis set library.
  Basis set file used for this atomic type with Z =   1 :
     "/home/bast/DALTON-2013.0-Source/build/basis/STO-3G"

  Atomic type no.    4
  --------------------
  Nuclear charge:  -0.66900
  Number of symmetry independent centers:   10
  Number of basis sets to read;    2
  This is an MM atom without basis functions.

  Atomic type no.    5
  --------------------
  Nuclear charge:   0.33450
  Number of symmetry independent centers:   20
  Number of basis sets to read;    2
  This is an MM atom without basis functions.


                         SYMGRP: Point group information
                         -------------------------------

Point group: C1 


                                 Isotopic Masses
                                 ---------------

                           C          12.000000
                           C          12.000000
                           C          12.000000
                           C          12.000000
                           C          12.000000
                           C          12.000000
                           O          15.994915
                           H           1.007825
                           H           1.007825
                           H           1.007825
                           H           1.007825
                           H           1.007825
                           H           1.007825

                       Total mass:    94.041865 amu
                       Natural abundance:  93.270 %

 Center-of-mass coordinates (a.u.):    0.000001   -0.000004   -0.000371


  Atoms and basis sets
  --------------------

  Number of atom types :    6
  Total number of atoms:   53

  label    atoms   charge   prim   cont     basis
  ----------------------------------------------------------------------
  C           6    6.0000    15     5      [6s3p|2s1p]                                        
  O           1    8.0000    15     5      [6s3p|2s1p]                                        
  H           6    1.0000     3     1      [3s|1s]                                            
  O          10   -0.6690     0     0      Point Charge                                       
  H          20    0.3345     0     0      Point Charge                                       
  a          10    0.0000     0     0      Point Charge                                       
  ----------------------------------------------------------------------
  total:     53   50.0000   123    41
  ----------------------------------------------------------------------

  Threshold for neglecting AO integrals:  1.00D-15


  Cartesian Coordinates (a.u.)
  ----------------------------

  Total number of coordinates:  159
  C       :     1  x  -0.0000207870    2  y   2.2755779641    3  z  -0.4558510742
  C       :     4  x  -0.0001039349    5  y  -2.2294516391    6  z   2.2491217983
  C       :     7  x   0.0001039349    8  y  -0.0279093651    9  z  -1.7336385265
  C       :    10  x  -0.0000812582   11  y   2.3159746395   12  z   2.1766583604
  C       :    13  x  -0.0001549575   14  y   0.0668849665   15  z   3.5413221918
  C       :    16  x   0.0000907069   17  y  -2.2864930222   18  z  -0.3783893106
  O       :    19  x   0.0000018897   20  y  -0.1929240298   21  z  -4.3122510823
  H       :    22  x  -0.0001341706   23  y   4.1116887795   24  z   3.1519441237
  H       :    25  x  -0.0002513336   26  y   0.1013365635   27  z   5.5827309637
  H       :    28  x   0.0002343260   29  y  -4.0518222558   30  z  -1.4052343616
  H       :    31  x  -0.0001285014   32  y  -3.9891929526   33  z   3.2880327506
  H       :    34  x   0.0024226289   35  y   1.4966782088   36  z  -4.9870647226
  H       :    37  x  -0.0001360603   38  y   4.0284104389   39  z  -1.5141430577

  Max    interatomic separation is    5.6418 Angstrom (   10.6615 Bohr)
  between atoms   12 and    9, "H     " and "H     ".

  Min HX interatomic separation is    0.9628 Angstrom (    1.8194 Bohr)

  Min YX interatomic separation is    1.3673 Angstrom (    2.5839 Bohr)

  Max QM+MM interatomic separation is   11.5558 Angstrom (   21.8373 Bohr)
  between the QM+MM centers   43 and   35, "H     " and "H     ".




 Principal moments of inertia (u*A**2) and principal axes
 --------------------------------------------------------

   IA      88.947922         -0.000042    0.020185    0.999796
   IB     192.546345         -0.000000    0.999796   -0.020185
   IC     281.494265          1.000000    0.000001    0.000042


 Rotational constants
 --------------------

 The molecule is planar.

               A                   B                   C

           5681.7404           2624.7136           1795.3439 MHz
            0.189522            0.087551            0.059886 cm-1


@  Nuclear repulsion energy :  271.498351688676 Hartree
      QM3 induced dipole vector converged in  12 iterations.
      Final norm2 of QM3 induced dipole moment vector:    0.126144522343058


    **************************************************************************
    ***************** The MM/MM classical interaction energy *****************
    **************************************************************************


 ------------------------------------------------------------------------
 |  Eelec = Sum_n,s[ (Q_n*Q_s)/|R_n - R_s| ]        |       -0.02355955 |
 |  Epol  = - 1/2*Sum_a[ Pind_a*E^site_a ]          |       -0.00570793 |
 |  Evdw  = Sum_a[ A_ma/|R_ma|^12 - B_ma/|R_ma|^6 ] |        0.00465966 |
 ------------------------------------------------------------------------
 |  E(MM/MM) = Eelec + Epol + Evdw                  |       -0.02460781 |
 ------------------------------------------------------------------------




     ************************************************************************
     *************** The "QM"/MM classical interaction energy ***************
     ************************************************************************


 ------------------------------------------------------------------------
 |  Eelec = Sum_n,s[ (Q_n*Q_s)/|R_n - R_s| ]        |        0.00435354 |
 |  Epol  = - 1/2*Sum_a[ Pind_a*E^(QMclassic)_a ]   |       -0.00006190 |
 |  Evdw  = Sum_a[ A_ma/|R_ma|^12 - B_ma/|R_ma|^6 ] |       -0.00092224 |
 ------------------------------------------------------------------------
 |  E("QM"/MM) = Eelec + Epol + Evdw                |        0.00336940 |
 ------------------------------------------------------------------------




                     .---------------------------------------.
                     | Starting in Integral Section (HERMIT) |
                     `---------------------------------------'



    *************************************************************************
    ****************** Output from HERMIT input processing ******************
    *************************************************************************


 Default print level:        1

 * Nuclear model: Point charge

 Calculation of one- and two-electron Hamiltonian integrals.

 The following one-electron property integrals are calculated as requested:
          - overlap integrals
          - dipole length integrals
          - traceless quadrupole moment integrals
          - Electric field at the nuclei
          - Potential energy at the nuclei

 Center of mass  (bohr):      0.000000608966     -0.000004491142     -0.000371459832
 Operator center (bohr):      0.000000000000      0.000000000000      0.000000000000
 Gauge origin    (bohr):      0.000000000000      0.000000000000      0.000000000000
 Dipole origin   (bohr):      0.000000000000      0.000000000000      0.000000000000


     ************************************************************************
     ************************** Output from HERINT **************************
     ************************************************************************


 Threshold for neglecting two-electron integrals:  1.00D-15
 Number of two-electron integrals written:      355705 ( 95.9% )
 Megabytes written:                              4.074

 >>>  Time used in TWOINT     is   0.81 seconds
 >>>> Total CPU  time used in HERMIT:   0.93 seconds
 >>>> Total wall time used in HERMIT:   0.94 seconds


                        .----------------------------------.
                        | End of Integral Section (HERMIT) |
                        `----------------------------------'



                   .--------------------------------------------.
                   | Starting in Wave Function Section (SIRIUS) |
                   `--------------------------------------------'

 NCCEXCI for singlet:           2

 *** Output from Huckel module :

     Using EWMO model:          F
     Using EHT  model:          T
     Number of Huckel orbitals each symmetry:   41

 Huckel EHT eigenvalues for symmetry :  1
          -20.707904     -11.414983     -11.395948     -11.395384     -11.377663
          -11.377425     -11.362837      -1.655860      -1.499264      -1.228158
           -1.114688      -0.912695      -0.843093      -0.746980      -0.745103
           -0.679452      -0.634034      -0.609918      -0.540090      -0.530872
           -0.472199      -0.459487      -0.444274      -0.434457      -0.410202
           -0.288672      -0.283322      -0.278429      -0.253731      -0.236640
           -0.227583      -0.214155      -0.212919      -0.205517      -0.202602
           -0.178134      -0.176753      -0.166156      -0.165818      -0.163629
           -0.160068

 **********************************************************************
 *SIRIUS* a direct, restricted step, second order MCSCF program       *
 **********************************************************************

 
     Date and time (Linux)  : Sun Sep  8 20:41:16 2013
     Host name              : lpqlx131.ups-tlse.fr                    

 Title lines from ".mol" input file:
     QM/MM WATER_1                                                           
     ------------------------                                                

 Print level on unit LUPRI =   2 is   0
 Print level on unit LUW4  =   2 is   5

@    (Integral direct) CC calculation.

@    This is a combination run starting with
@              a restricted, closed shell Hartree-Fock calculation


 Initial molecular orbitals are obtained according to
 ".MOSTART EHT   " input option

@    QM part is embedded in an environment :

@         Model: QM3

     Wave function specification
     ============================

     For the specification of the Coupled Cluster: see later.

@    For the wave function of type :      >>> CC <<<
@    Number of closed shell electrons          50
@    Number of electrons in active shells       0
@    Total charge of the molecule               0

@    Spin multiplicity and 2 M_S                1         0
     Total number of symmetries                 1
@    Reference state symmetry                   1

     Orbital specifications
     ======================
     Abelian symmetry species          All |    1
                                       --- |  ---
@    Occupied SCF orbitals              25 |   25
     Secondary orbitals                 16 |   16
     Total number of orbitals           41 |   41
     Number of basis functions          41 |   41

     Optimization information
     ========================
@    Number of configurations                 1
@    Number of orbital rotations            400
     ------------------------------------------
@    Total number of variables              401

     Maximum number of Fock   iterations      0
     Maximum number of DIIS   iterations     60
     Maximum number of QC-SCF iterations     60
     Threshold for SCF convergence     1.00D-10


 Changes of defaults for CC:
 ---------------------------


 -Implicit frozen core calculation
 -Excitation energies calculated
 -Dipole moment calculated
 -Traceless quadrupole moment calculated
  


 >>>>> DIIS optimization of Hartree-Fock <<<<<

 C1-DIIS algorithm; max error vectors =   10

 Iter      Total energy       Solvation energy    Error norm    Delta(E)
 -----------------------------------------------------------------------------
     (Precalculated two-electron integrals are transformed to P-supermatrix elements.
      Threshold for discarding integrals :  1.00D-15 )
@  1  -300.552119495       0.00000000000        3.53729D+00   -3.01D+02
      Virial theorem: -V/T =      1.998607
@      MULPOP C       0.09; C       0.19; C       0.47; C       0.19; C       0.11; C       0.09; O      -0.56; H      -0.15; H      -0.15; H      -0.15; 
@             H      -0.16; H       0.16; H      -0.14; 
 -----------------------------------------------------------------------------
@  2  -300.934914638       0.00000000000        4.97461D-01   -3.83D-01
      Virial theorem: -V/T =      2.006560
@      MULPOP C      -0.17; C      -0.07; C       0.07; C      -0.08; C      -0.08; C      -0.09; O      -0.10; H       0.07; H       0.06; H       0.09; 
@             H       0.07; H       0.14; H       0.07; 
 -----------------------------------------------------------------------------
@  3  -300.954094333       0.00000000000        1.52295D-01   -1.92D-02
      Virial theorem: -V/T =      2.005971
@      MULPOP C      -0.07; C      -0.05; C       0.16; C      -0.04; C      -0.08; C      -0.08; O      -0.34; H       0.05; H       0.05; H       0.07; 
@             H       0.06; H       0.23; H       0.04; 
 -----------------------------------------------------------------------------
@  4  -300.956339089       0.00000000000        4.05076D-02   -2.24D-03
      Virial theorem: -V/T =      2.006107
@      MULPOP C      -0.11; C      -0.05; C       0.14; C      -0.05; C      -0.08; C      -0.08; O      -0.28; H       0.06; H       0.06; H       0.08; 
@             H       0.06; H       0.20; H       0.05; 
 -----------------------------------------------------------------------------
@  5  -300.956639270       0.00000000000        1.44762D-02   -3.00D-04
      Virial theorem: -V/T =      2.006053
@      MULPOP C      -0.10; C      -0.05; C       0.14; C      -0.05; C      -0.08; C      -0.09; O      -0.28; H       0.06; H       0.06; H       0.08; 
@             H       0.07; H       0.20; H       0.05; 
 -----------------------------------------------------------------------------
@  6  -300.956670431       0.00000000000        4.24221D-03   -3.12D-05
      Virial theorem: -V/T =      2.006044
@      MULPOP C      -0.10; C      -0.05; C       0.14; C      -0.05; C      -0.08; C      -0.08; O      -0.28; H       0.06; H       0.06; H       0.08; 
@             H       0.06; H       0.20; H       0.05; 
 -----------------------------------------------------------------------------
@  7  -300.956673825       0.00000000000        5.72027D-04   -3.39D-06
      Virial theorem: -V/T =      2.006042
@      MULPOP C      -0.10; C      -0.05; C       0.14; C      -0.05; C      -0.08; C      -0.08; O      -0.28; H       0.06; H       0.06; H       0.08; 
@             H       0.06; H       0.20; H       0.05; 
 -----------------------------------------------------------------------------
@  8  -300.956673859       0.00000000000        1.73992D-04   -3.38D-08
      Virial theorem: -V/T =      2.006042
@      MULPOP C      -0.10; C      -0.05; C       0.14; C      -0.05; C      -0.08; C      -0.08; O      -0.28; H       0.06; H       0.06; H       0.08; 
@             H       0.06; H       0.20; H       0.05; 
 -----------------------------------------------------------------------------
@  9  -300.956673862       0.00000000000        4.38247D-05   -3.61D-09
      Virial theorem: -V/T =      2.006042
@      MULPOP C      -0.10; C      -0.05; C       0.14; C      -0.05; C      -0.08; C      -0.08; O      -0.28; H       0.06; H       0.06; H       0.08; 
@             H       0.06; H       0.20; H       0.05; 
 -----------------------------------------------------------------------------
@ 10  -300.956673863       0.00000000000        1.23994D-05   -3.81D-10
      Virial theorem: -V/T =      2.006042
@      MULPOP C      -0.10; C      -0.05; C       0.14; C      -0.05; C      -0.08; C      -0.08; O      -0.28; H       0.06; H       0.06; H       0.08; 
@             H       0.06; H       0.20; H       0.05; 
 -----------------------------------------------------------------------------
@ 11  -300.956673863       0.00000000000        4.33642D-06   -3.64D-11
      Virial theorem: -V/T =      2.006042
@      MULPOP C      -0.10; C      -0.05; C       0.14; C      -0.05; C      -0.08; C      -0.08; O      -0.28; H       0.06; H       0.06; H       0.08; 
@             H       0.06; H       0.20; H       0.05; 
 -----------------------------------------------------------------------------
@ 12  -300.956673863       0.00000000000        2.30716D-06   -5.23D-12
      Virial theorem: -V/T =      2.006042
@      MULPOP C      -0.10; C      -0.05; C       0.14; C      -0.05; C      -0.08; C      -0.08; O      -0.28; H       0.06; H       0.06; H       0.08; 
@             H       0.06; H       0.20; H       0.05; 
 -----------------------------------------------------------------------------
@ 13  -300.956673863       0.00000000000        4.27077D-07   -1.59D-12
      Virial theorem: -V/T =      2.006042
@      MULPOP C      -0.10; C      -0.05; C       0.14; C      -0.05; C      -0.08; C      -0.08; O      -0.28; H       0.06; H       0.06; H       0.08; 
@             H       0.06; H       0.20; H       0.05; 
 -----------------------------------------------------------------------------
@ 14  -300.956673863       0.00000000000        1.27341D-07   -5.68D-13
      Virial theorem: -V/T =      2.006042
@      MULPOP C      -0.10; C      -0.05; C       0.14; C      -0.05; C      -0.08; C      -0.08; O      -0.28; H       0.06; H       0.06; H       0.08; 
@             H       0.06; H       0.20; H       0.05; 
 -----------------------------------------------------------------------------
@ 15  -300.956673863       0.00000000000        5.09735D-08    1.14D-13
      Virial theorem: -V/T =      2.006042
@      MULPOP C      -0.10; C      -0.05; C       0.14; C      -0.05; C      -0.08; C      -0.08; O      -0.28; H       0.06; H       0.06; H       0.08; 
@             H       0.06; H       0.20; H       0.05; 
 -----------------------------------------------------------------------------
@ 16  -300.956673863       0.00000000000        9.60146D-09    2.27D-13
      Virial theorem: -V/T =      2.006042
@      MULPOP C      -0.10; C      -0.05; C       0.14; C      -0.05; C      -0.08; C      -0.08; O      -0.28; H       0.06; H       0.06; H       0.08; 
@             H       0.06; H       0.20; H       0.05; 
 -----------------------------------------------------------------------------
@ 17  -300.956673863       0.00000000000        3.45499D-09   -4.55D-13
      Virial theorem: -V/T =      2.006042
@      MULPOP C      -0.10; C      -0.05; C       0.14; C      -0.05; C      -0.08; C      -0.08; O      -0.28; H       0.06; H       0.06; H       0.08; 
@             H       0.06; H       0.20; H       0.05; 
 -----------------------------------------------------------------------------
@ 18  -300.956673863       0.00000000000        1.46825D-09    2.27D-13
      Virial theorem: -V/T =      2.006042
@      MULPOP C      -0.10; C      -0.05; C       0.14; C      -0.05; C      -0.08; C      -0.08; O      -0.28; H       0.06; H       0.06; H       0.08; 
@             H       0.06; H       0.20; H       0.05; 
 -----------------------------------------------------------------------------
@ 19  -300.956673863       0.00000000000        4.23027D-10    9.09D-13
      Virial theorem: -V/T =      2.006042
@      MULPOP C      -0.10; C      -0.05; C       0.14; C      -0.05; C      -0.08; C      -0.08; O      -0.28; H       0.06; H       0.06; H       0.08; 
@             H       0.06; H       0.20; H       0.05; 
 -----------------------------------------------------------------------------
@ 20  -300.956673863       0.00000000000        1.11045D-10    2.27D-13
      Virial theorem: -V/T =      2.006042
@      MULPOP C      -0.10; C      -0.05; C       0.14; C      -0.05; C      -0.08; C      -0.08; O      -0.28; H       0.06; H       0.06; H       0.08; 
@             H       0.06; H       0.20; H       0.05; 
 -----------------------------------------------------------------------------
@ 21  -300.956673863       0.00000000000        3.45782D-11   -9.09D-13

@ *** DIIS converged in  21 iterations !
@     Converged SCF energy, gradient:   -300.956673862905    3.46D-11
    - total time used in SIRFCK :              0.00 seconds


 *** SCF orbital energy analysis ***
    (incl. solvent contribution)

 Only the five lowest virtual orbital energies printed in each symmetry.

 Number of electrons :   50
 Orbital occupations :   25

 Sym       Hartree-Fock orbital energies

  1    -20.28285539   -11.08051774   -11.02411832   -11.02104915   -11.01086426
       -11.00794944   -11.00684465    -1.31139299    -1.07412140    -0.94731368
        -0.92950232    -0.77237357    -0.74626198    -0.65203283    -0.60914448
        -0.57124036    -0.53307446    -0.52448426    -0.49708286    -0.46451438
        -0.43406414    -0.40058353    -0.39972660    -0.27356869    -0.23230231
         0.27756828     0.29121253     0.51875534     0.57366064     0.60791508

    E(LUMO) :     0.27756828 au (symmetry 1)
  - E(HOMO) :    -0.23230231 au (symmetry 1)
  ------------------------------------------
    gap     :     0.50987059 au

 >>> Writing SIRIFC interface file <<<

 >>>> CPU and wall time for SCF :       0.117       0.118


                       .-----------------------------------.
                       | >>> Final results from SIRIUS <<< |
                       `-----------------------------------'


@    Spin multiplicity:           1
@    Spatial symmetry:            1
@    Total charge of molecule:    0

     QM/MM "QM3" calculation converged :

        Electrostatic energy:       0.000000000000
        Polarization energy:        0.000000000000
        van der Waals energy:      -0.000922236556
        Total QM/MM energy:         0.000000000000

@    Final HF energy:            -300.956673862905                 
@    Nuclear repulsion:           271.498351688676
@    Electronic energy:          -572.455025551581

@    Final gradient norm:           0.000000000035

 
     Date and time (Linux)  : Sun Sep  8 20:41:16 2013
     Host name              : lpqlx131.ups-tlse.fr                    

 (Only coefficients >0.0100 are printed.)

 Molecular orbitals for symmetry species  1
 ------------------------------------------

    Orbital        21       22       23       24       25       26       27
   1 C   :1s    -0.0090  -0.0109   0.0183   0.0000   0.0000   0.0000   0.0001
   2 C   :1s     0.0218   0.0390  -0.0659  -0.0000  -0.0002  -0.0001  -0.0006
   3 C   :2px    0.0024  -0.1744  -0.1037   0.4846  -0.3113  -0.5798  -0.2549
   4 C   :2py   -0.1267  -0.1345   0.2212   0.0002   0.0001  -0.0001   0.0004
   5 C   :2pz    0.2492  -0.1029   0.1722  -0.0000   0.0002  -0.0001   0.0003
   7 C   :1s    -0.0002   0.0115  -0.0185   0.0001  -0.0001  -0.0005   0.0002
   8 C   :2px    0.0024  -0.2784  -0.1675  -0.4729   0.1555  -0.5892  -0.3174
   9 C   :2py    0.1753   0.0963  -0.1557  -0.0000  -0.0001  -0.0000  -0.0002
  10 C   :2pz   -0.2240   0.0346  -0.0576  -0.0002  -0.0000   0.0002  -0.0005
  12 C   :1s    -0.0143  -0.0226   0.0390   0.0001   0.0004  -0.0002   0.0015
  13 C   :2px    0.0015   0.0425   0.0291   0.0184  -0.4205   0.0543   0.6693
  14 C   :2py    0.1828   0.1485  -0.2429  -0.0004  -0.0004   0.0005  -0.0001
  15 C   :2pz   -0.1954   0.0810  -0.1379   0.0001  -0.0003  -0.0002  -0.0004
  16 C   :1s     0.0056   0.0081  -0.0135   0.0000  -0.0000  -0.0000  -0.0000
  17 C   :1s    -0.0194  -0.0256   0.0429  -0.0001   0.0001   0.0001   0.0000
  18 C   :2px    0.0025  -0.2943  -0.1772   0.4276   0.2304   0.5637  -0.3784
  19 C   :2py    0.2082   0.0912  -0.1480   0.0001   0.0000  -0.0000   0.0001
  20 C   :2pz   -0.2811   0.0736  -0.1239   0.0001  -0.0001  -0.0001  -0.0002
  23 C   :2px    0.0025  -0.3349  -0.2023  -0.0417   0.4914   0.0201   0.6497
  24 C   :2py   -0.2154  -0.0959   0.1548  -0.0001   0.0001  -0.0002  -0.0001
  25 C   :2pz    0.2401  -0.0394   0.0650  -0.0001   0.0001  -0.0001  -0.0001
  26 C   :1s    -0.0119   0.0074  -0.0125  -0.0002  -0.0002  -0.0000   0.0001
  27 C   :1s     0.0481  -0.0251   0.0424   0.0002   0.0004   0.0007  -0.0009
  28 C   :2px    0.0021  -0.1554  -0.0922  -0.4517  -0.3527   0.5449  -0.3186
  29 C   :2py   -0.1614  -0.1202   0.1955  -0.0002   0.0003  -0.0000  -0.0007
  30 C   :2pz    0.2304  -0.0113   0.0189  -0.0001  -0.0005   0.0003   0.0005
  31 O   :1s     0.0126  -0.0296   0.0509   0.0000   0.0005  -0.0000   0.0000
  32 O   :1s    -0.0676   0.1580  -0.2705  -0.0000  -0.0021   0.0002  -0.0004
  33 O   :2px   -0.0023   0.5187   0.3134  -0.0218   0.4784  -0.0232  -0.2469
  34 O   :2py    0.1384  -0.2302   0.3881   0.0000   0.0018  -0.0000  -0.0006
  35 O   :2pz    0.2626  -0.1514   0.2576  -0.0001   0.0021  -0.0001  -0.0015
  36 H   :1s     0.0403   0.1182  -0.1938   0.0001  -0.0000   0.0001  -0.0002
  37 H   :1s     0.2500  -0.0446   0.0741  -0.0000   0.0000  -0.0001  -0.0001
  38 H   :1s     0.0499   0.1123  -0.1827   0.0007   0.0004  -0.0009   0.0004
  39 H   :1s    -0.2804  -0.0672   0.1082   0.0001   0.0000   0.0003  -0.0001
  40 H   :1s    -0.0409  -0.1019   0.1700   0.0001   0.0003  -0.0002   0.0004
  41 H   :1s    -0.2555  -0.0566   0.0906   0.0001  -0.0000  -0.0001  -0.0000



 >>>> Total CPU  time used in SIRIUS :      0.13 seconds
 >>>> Total wall time used in SIRIUS :      0.13 seconds

 
     Date and time (Linux)  : Sun Sep  8 20:41:16 2013
     Host name              : lpqlx131.ups-tlse.fr                    


                     .---------------------------------------.
                     | End of Wave Function Section (SIRIUS) |
                     `---------------------------------------'



                    .------------------------------------------.
                    | Starting in Coupled Cluster Section (CC) |
                    `------------------------------------------'

  

 *******************************************************************************
 *******************************************************************************
 *                                                                             *
 *                                                                             *
 *                    START OF COUPLED CLUSTER CALCULATION                     *
 *                                                                             *
 *                                                                             *
 *******************************************************************************
 *******************************************************************************


  I am freezing!
 Freezing HF-orbital   1 of symmetry   1 and with orbital energy  -20.2829
 Freezing HF-orbital   2 of symmetry   1 and with orbital energy  -11.0805
 Freezing HF-orbital   3 of symmetry   1 and with orbital energy  -11.0241
 Freezing HF-orbital   4 of symmetry   1 and with orbital energy  -11.0210
 Freezing HF-orbital   5 of symmetry   1 and with orbital energy  -11.0109
 Freezing HF-orbital   6 of symmetry   1 and with orbital energy  -11.0079
 Freezing HF-orbital   7 of symmetry   1 and with orbital energy  -11.0068
 In total frozen-core per symmetry-class:  7
 


 CCR12 ANSATZ =   0

 CCR12 APPROX =   0

   

 *******************************************************************
 *                                                                 *
 *<<<<<<<<<<                                             >>>>>>>>>>*
 *<<<<<<<<<< OUTPUT FROM COUPLED CLUSTER ENERGY PROGRAM  >>>>>>>>>>*
 *<<<<<<<<<<                                             >>>>>>>>>>*
 *                                                                 *
 *******************************************************************


             The Direct Coupled Cluster Energy Program
             -----------------------------------------


          Number of t1 amplitudes                 :       288
          Number of t2 amplitudes                 :     41616
          Total number of amplitudes in ccsd      :     41904

 Iter.  1: Coupled cluster MP2   energy :    -301.3378404860897035
 Iter.  1: Coupled cluster CC2   energy :    -301.3377305563657842
 Iter.  2: Coupled cluster CC2   energy :    -301.3398266439213558
 Iter.  3: Coupled cluster CC2   energy :    -301.3403918127490329
 Iter.  4: Coupled cluster CC2   energy :    -301.3404848973395360
 Iter.  5: Coupled cluster CC2   energy :    -301.3404882778984870
 Iter.  6: Coupled cluster CC2   energy :    -301.3404898248901418
 Iter.  7: Coupled cluster CC2   energy :    -301.3404907680377391
 Iter.  8: Coupled cluster CC2   energy :    -301.3404912355103420
 Iter.  9: Coupled cluster CC2   energy :    -301.3404912043503145
 Iter. 10: Coupled cluster CC2   energy :    -301.3404911782013755
 Iter. 11: Coupled cluster CC2   energy :    -301.3404911725878037

 CC2   energy converged to within   0.10D-07 is         -301.340491172588
 Final 2-norm of the CC vector function:  1.96112440D-06
  Change in norm^2 of T-amplitudes in this solvent it.:   8.9970936508326174E-002




                   +--------------------------------------------+
                   ! Calculating singlet intermediates for CCLR !
                   +--------------------------------------------+



            E-intermediates calculated 
            Fock-intermediate calculated 


   

 *******************************************************************
 *                                                                 *
 *<<<<<<<<<<<<< OUTPUT FROM COUPLED CLUSTER RESPONSE  >>>>>>>>>>>>>*
 *                                                                 *
 *<<<<<<<<<<    CALCULATION OF FIRST ORDER PROPERTIES    >>>>>>>>>>*
 *                                                                 *
 *******************************************************************



                         +-------------------------------+
                         ! Coupled Cluster model is: CC2 !
                         +-------------------------------+

 RPA: call cceq_str
 RPA: exit cceq_str
  Change in norm^2 of L-amplitudes in this ccmm it.:  0.66707777991088335     
 >>>  Time used in LR=R       is   0.19 seconds
 Total <Lambda|H|CC> energy:   -301.34049116774474     
            The singles contribution is:            -0.0000000005
            The doubles contribution is:             0.0000000054
 CCFOP: call CC_D1AO to recalc the 1e Density
   

 *****************************************************************
 **** Output from Coupled Cluster/Molecular Mechanics program ****
 *****************************************************************


                         +-------------------------------+
                         ! Coupled Cluster model is: CC2 !
                         +-------------------------------+

      QM3 induced Dipole vector converged in  10 iterations.
      Final norm2 of QM3 induced dipole moment vector:    0.126484499229216


 E(QM/MM) contribution in iteration  0:            0.0026598616
 CC energy in the  current CCMM iteration:      -302.1113167755
 CC energy in the previous CCMM iteration:         0.0000000000
 Change in Total energy in this CCMM it.:         -0.302111E+03


 *****************************************************************
 ******* End of Coupled Cluster/Molecular Mechanics program ******
 *****************************************************************
  


             +--------------------------------------------------------+
             ! Unrelaxed  CC2    First-order one-electron properties: !
             +--------------------------------------------------------+



                            +-------------------------+
                            !  Electric Dipole Moment !
                            +-------------------------+



                          Total Molecular Dipole Moment
                          -----------------------------

                 au               Debye          C m (/(10**-30)

      x     -0.00430300        -0.01093712        -0.03648232
      y      0.37581583         0.95522849         3.18629927
      z     -0.22398822        -0.56932123        -1.89905120




                          +-----------------------------+
                          !  Electric Quadrupole Moment !
                          +-----------------------------+



                        Total Molecular quadrupole moment
                        ---------------------------------

                    X              Y              Z

               Column   1     Column   2     Column   3
       1      -2.99191740     0.01159755     0.00411354
       2       0.01159755     1.80664634    -3.78806583
       3       0.00411354    -3.78806583     1.18527106
    ==== End of matrix output ====
   

 *******************************************************************
 *                                                                 *
 *<<<<<<<<<<                                             >>>>>>>>>>*
 *<<<<<<<<<< OUTPUT FROM COUPLED CLUSTER ENERGY PROGRAM  >>>>>>>>>>*
 *<<<<<<<<<<                                             >>>>>>>>>>*
 *                                                                 *
 *******************************************************************


             The Direct Coupled Cluster Energy Program
             -----------------------------------------


          Number of t1 amplitudes                 :       288
          Number of t2 amplitudes                 :     41616
          Total number of amplitudes in ccsd      :     41904

 Iter.  1: Coupled cluster RSTAR energy :    -301.3404911725878037
 Iter.  1: Coupled cluster CC2   energy :    -301.3404908203271475
 Iter.  2: Coupled cluster CC2   energy :    -301.3404853283209945
 Iter.  3: Coupled cluster CC2   energy :    -301.3404850977210003
 Iter.  4: Coupled cluster CC2   energy :    -301.3404848454775333
 Iter.  5: Coupled cluster CC2   energy :    -301.3404848121861619
 Iter.  6: Coupled cluster CC2   energy :    -301.3404847412098775
 Iter.  7: Coupled cluster CC2   energy :    -301.3404847276423197
 Iter.  8: Coupled cluster CC2   energy :    -301.3404847232579300

 CC2   energy converged to within   0.10D-07 is         -301.340484723258
 Final 2-norm of the CC vector function:  1.19696966D-07
  Change in norm^2 of T-amplitudes in this solvent it.:  -1.8191919734178441E-005




                   +--------------------------------------------+
                   ! Calculating singlet intermediates for CCLR !
                   +--------------------------------------------+



            E-intermediates calculated 
            Fock-intermediate calculated 


   

 *******************************************************************
 *                                                                 *
 *<<<<<<<<<<<<< OUTPUT FROM COUPLED CLUSTER RESPONSE  >>>>>>>>>>>>>*
 *                                                                 *
 *<<<<<<<<<<    CALCULATION OF FIRST ORDER PROPERTIES    >>>>>>>>>>*
 *                                                                 *
 *******************************************************************



                         +-------------------------------+
                         ! Coupled Cluster model is: CC2 !
                         +-------------------------------+

 RPA: call cceq_str
 Vector nr.  1 of symmetry  1 found on file - RESTART SUCCESS
 Start vector is a CC2       L0  vector
 RPA: exit cceq_str
  Change in norm^2 of L-amplitudes in this ccmm it.:  -5.2149577574489570E-005
 >>>  Time used in LR=R       is   0.19 seconds
 Total <Lambda|H|CC> energy:   -301.34049092162161     
            The singles contribution is:            -0.0000033214
            The doubles contribution is:            -0.0000028769
 CCFOP: call CC_D1AO to recalc the 1e Density
   

 *****************************************************************
 **** Output from Coupled Cluster/Molecular Mechanics program ****
 *****************************************************************


                         +-------------------------------+
                         ! Coupled Cluster model is: CC2 !
                         +-------------------------------+

      QM3 induced Dipole vector converged in   6 iterations.
      Final norm2 of QM3 induced dipole moment vector:    0.126492359691951


 E(QM/MM) contribution in iteration  1:            0.0026666662
 CC energy in the  current CCMM iteration:      -302.1113168919
 CC energy in the previous CCMM iteration:      -302.1113167755
 Change in Total energy in this CCMM it.:         -0.116306E-06


 *****************************************************************
 ******* End of Coupled Cluster/Molecular Mechanics program ******
 *****************************************************************
  


             +--------------------------------------------------------+
             ! Unrelaxed  CC2    First-order one-electron properties: !
             +--------------------------------------------------------+



                            +-------------------------+
                            !  Electric Dipole Moment !
                            +-------------------------+



                          Total Molecular Dipole Moment
                          -----------------------------

                 au               Debye          C m (/(10**-30)

      x     -0.00380024        -0.00965925        -0.03221980
      y      0.37539869         0.95416824         3.18276266
      z     -0.22169119        -0.56348275        -1.87957615




                          +-----------------------------+
                          !  Electric Quadrupole Moment !
                          +-----------------------------+



                        Total Molecular quadrupole moment
                        ---------------------------------

                    X              Y              Z

               Column   1     Column   2     Column   3
       1      -2.99511409     0.01163418     0.00365008
       2       0.01163418     1.80032952    -3.79639380
       3       0.00365008    -3.79639380     1.19478457
    ==== End of matrix output ====
   

 *******************************************************************
 *                                                                 *
 *<<<<<<<<<<                                             >>>>>>>>>>*
 *<<<<<<<<<< OUTPUT FROM COUPLED CLUSTER ENERGY PROGRAM  >>>>>>>>>>*
 *<<<<<<<<<<                                             >>>>>>>>>>*
 *                                                                 *
 *******************************************************************


             The Direct Coupled Cluster Energy Program
             -----------------------------------------


          Number of t1 amplitudes                 :       288
          Number of t2 amplitudes                 :     41616
          Total number of amplitudes in ccsd      :     41904

 Iter.  1: Coupled cluster RSTAR energy :    -301.3404847232579300
 Iter.  1: Coupled cluster CC2   energy :    -301.3404847177777128

 CC2   energy converged to within   0.10D-07 is         -301.340484717778
 Final 2-norm of the CC vector function:  7.83928389D-07
  Change in norm^2 of T-amplitudes in this solvent it.:  -6.4811607525250281E-008




                   +--------------------------------------------+
                   ! Calculating singlet intermediates for CCLR !
                   +--------------------------------------------+



            E-intermediates calculated 
            Fock-intermediate calculated 


   

 *******************************************************************
 *                                                                 *
 *<<<<<<<<<<<<< OUTPUT FROM COUPLED CLUSTER RESPONSE  >>>>>>>>>>>>>*
 *                                                                 *
 *<<<<<<<<<<    CALCULATION OF FIRST ORDER PROPERTIES    >>>>>>>>>>*
 *                                                                 *
 *******************************************************************



                         +-------------------------------+
                         ! Coupled Cluster model is: CC2 !
                         +-------------------------------+

 RPA: call cceq_str
 Vector nr.  1 of symmetry  1 found on file - RESTART SUCCESS
 Start vector is a CC2       L0  vector
 RPA: exit cceq_str
  Change in norm^2 of L-amplitudes in this ccmm it.:  -4.6080253346403310E-007
 >>>  Time used in LR=R       is   0.19 seconds
 Total <Lambda|H|CC> energy:   -301.34049091643993     
            The singles contribution is:            -0.0000033249
            The doubles contribution is:            -0.0000028737
 CCFOP: call CC_D1AO to recalc the 1e Density
   

 *****************************************************************
 **** Output from Coupled Cluster/Molecular Mechanics program ****
 *****************************************************************


                         +-------------------------------+
                         ! Coupled Cluster model is: CC2 !
                         +-------------------------------+

      QM3 induced Dipole vector converged in   3 iterations.
      Final norm2 of QM3 induced dipole moment vector:    0.126492362962552


 E(QM/MM) contribution in iteration  2:            0.0026666963
 CC energy in the  current CCMM iteration:      -302.1113168874
 CC energy in the previous CCMM iteration:      -302.1113168919
 Change in Total energy in this CCMM it.:          0.444379E-08


 *****************************************************************
 ******* End of Coupled Cluster/Molecular Mechanics program ******
 *****************************************************************
  


             +--------------------------------------------------------+
             ! Unrelaxed  CC2    First-order one-electron properties: !
             +--------------------------------------------------------+



                            +-------------------------+
                            !  Electric Dipole Moment !
                            +-------------------------+



                          Total Molecular Dipole Moment
                          -----------------------------

                 au               Debye          C m (/(10**-30)

      x     -0.00380003        -0.00965870        -0.03221795
      y      0.37540209         0.95417689         3.18279150
      z     -0.22168167        -0.56345857        -1.87949549




                          +-----------------------------+
                          !  Electric Quadrupole Moment !
                          +-----------------------------+



                        Total Molecular quadrupole moment
                        ---------------------------------

                    X              Y              Z

               Column   1     Column   2     Column   3
       1      -2.99511534     0.01163408     0.00364977
       2       0.01163408     1.80033984    -3.79640184
       3       0.00364977    -3.79640184     1.19477550
    ==== End of matrix output ====
   

 *******************************************************************
 *                                                                 *
 *<<<<<<<<<<                                             >>>>>>>>>>*
 *<<<<<<<<<< OUTPUT FROM COUPLED CLUSTER ENERGY PROGRAM  >>>>>>>>>>*
 *<<<<<<<<<<                                             >>>>>>>>>>*
 *                                                                 *
 *******************************************************************


             The Direct Coupled Cluster Energy Program
             -----------------------------------------


          Number of t1 amplitudes                 :       288
          Number of t2 amplitudes                 :     41616
          Total number of amplitudes in ccsd      :     41904

 Iter.  1: Coupled cluster RSTAR energy :    -301.3404847177777128
 Iter.  1: Coupled cluster CC2   energy :    -301.3404846918552380
 Iter.  2: Coupled cluster CC2   energy :    -301.3404846884549784

 CC2   energy converged to within   0.10D-07 is         -301.340484688455
 Final 2-norm of the CC vector function:  1.23749519D-07
  Change in norm^2 of T-amplitudes in this solvent it.:  -4.2271774636226667E-008




                   +--------------------------------------------+
                   ! Calculating singlet intermediates for CCLR !
                   +--------------------------------------------+



            E-intermediates calculated 
            Fock-intermediate calculated 


   

 *******************************************************************
 *                                                                 *
 *<<<<<<<<<<<<< OUTPUT FROM COUPLED CLUSTER RESPONSE  >>>>>>>>>>>>>*
 *                                                                 *
 *<<<<<<<<<<    CALCULATION OF FIRST ORDER PROPERTIES    >>>>>>>>>>*
 *                                                                 *
 *******************************************************************



                         +-------------------------------+
                         ! Coupled Cluster model is: CC2 !
                         +-------------------------------+

 RPA: call cceq_str
 Vector nr.  1 of symmetry  1 found on file - RESTART SUCCESS
 Start vector is a CC2       L0  vector
 RPA: exit cceq_str
  Change in norm^2 of L-amplitudes in this ccmm it.:   2.0874821871075255E-008
 >>>  Time used in LR=R       is   0.20 seconds
 Total <Lambda|H|CC> energy:   -301.34049092169926     
            The singles contribution is:            -0.0000033440
            The doubles contribution is:            -0.0000028892
 CCFOP: call CC_D1AO to recalc the 1e Density
   

 *****************************************************************
 **** Output from Coupled Cluster/Molecular Mechanics program ****
 *****************************************************************


                         +-------------------------------+
                         ! Coupled Cluster model is: CC2 !
                         +-------------------------------+

      QM3 induced Dipole vector converged in   2 iterations.
      Final norm2 of QM3 induced dipole moment vector:    0.126492363115924


 E(QM/MM) contribution in iteration  3:            0.0026666996
 CC energy in the  current CCMM iteration:      -302.1113168927
 CC energy in the previous CCMM iteration:      -302.1113168874
 Change in Total energy in this CCMM it.:         -0.532725E-08




 ------------------------------------------------------------------------
 |<<<<<<<<<<<<<<< The MM/MM classical interaction energy >>>>>>>>>>>>>>>|
 ------------------------------------------------------------------------
 |  Eelec = Sum_n,s[ (Q_n*Q_s)/|R_n - R_s| ]        |       -0.02355955 |
 ------------------------------------------------------------------------
 |  Epol  = - 1/2*Sum_a[ MYind_a*E^site_a ]         |       -0.00572354 |
 ------------------------------------------------------------------------
 |  Evdw  = Sum_a[ A_ma/|R_ma|^12 - B_ma/|R_ma|^6 ] |        0.00465966 |
 ------------------------------------------------------------------------
 |**************************************************|*******************|
 ------------------------------------------------------------------------
 |  E(MM/MM) = Eelec + Epol + Evdw                  |       -0.02462343 |
 ------------------------------------------------------------------------


 +======================================================================+
 |<<<<<<<<<<<<<< Final output from CC2/MM energy program >>>>>>>>>>>>>>>|
 +======================================================================+
 |      Eelec      |      Epol       |      Evdw       |    E(QM/MM)    |
 +----------------------------------------------------------------------+
 |    0.0036436606 |   -0.0000547244 |   -0.0009222366 |   0.0026666996 |
 +----------------------------------------------------------------------+
 +======================================================================+
 +----------------------------------------------------------------------+
 |  <L|H(vac)|CC>  | <H(qm)+H(qmmm)> | Delta E(mm/mm)  | E_rep          |
 +----------------------------------------------------------------------+
 | -302.1139835923 | -302.1113168927 |   -0.0000156180 |   0.0000000000 |
 +======================================================================+



  CCMM equations are converged in   3 outer iterations
  CCMM equations are converged in  60 inner iterations
 *****************************************************************
 ******* End of Coupled Cluster/Molecular Mechanics program ******
 *****************************************************************
  


             +--------------------------------------------------------+
             ! Unrelaxed  CC2    First-order one-electron properties: !
             +--------------------------------------------------------+



                            +-------------------------+
                            !  Electric Dipole Moment !
                            +-------------------------+



                          Total Molecular Dipole Moment
                          -----------------------------

                 au               Debye          C m (/(10**-30)

      x     -0.00380000        -0.00965863        -0.03221772
      y      0.37540240         0.95417766         3.18279406
      z     -0.22168041        -0.56345537        -1.87948482




                          +-----------------------------+
                          !  Electric Quadrupole Moment !
                          +-----------------------------+



                        Total Molecular quadrupole moment
                        ---------------------------------

                    X              Y              Z

               Column   1     Column   2     Column   3
       1      -2.99511539     0.01163407     0.00364972
       2       0.01163407     1.80034150    -3.79640214
       3       0.00364972    -3.79640214     1.19477389
    ==== End of matrix output ====
   

 *******************************************************************
 *                                                                 *
 *<<<<<<<<<< OUTPUT FROM COUPLED CLUSTER LINEAR RESPONSE >>>>>>>>>>*
 *                                                                 *
 *<<<<<<<<<<     CALCULATION OF EXCITATION ENERGIES      >>>>>>>>>>*
 *                                                                 *
 *******************************************************************



                            +--------------------------+
                            !  CC2 Excitation Energies !
                            +--------------------------+


 --------------------------
 Symmetry class Nr.:     1
 Multiplicity      :     1
 --------------------------

 Length of Excitation vectors in this class is:     41904
 Converging for  2 roots.
 Vector nr.  1 of type RE  and symmetry  1 was not found on file.
 Start vector guessed from diagonal
 ... selected element no.273
 Vector nr.  2 of type RE  and symmetry  1 was not found on file.
 Start vector guessed from diagonal
 ... selected element no.274


 SYMMETRY CLASS NR.    1
 MULTIPLICITY          1


 CC2        right excitation energies:
 ====================================
 (conversion factor used: 1 au = 27.2113957 eV)

 Excitation no.       Hartree               eV 
 --------------       -------               --
         1            0.2173460900        5.9142879625
         2            0.2883479052        7.8463456353


 Total excited state energies for states of symmetry/spin    1    1
 Excitation no.       Energy (Hartree) 
 ------------------------------------- 
@@    1    1          -301.123144831663240
@@    1    2          -301.052143016470154


 Analysis of the Coupled Cluster Excitation Vector Number :  1
 -------------------------------------------------------------

          Excitation Energy :                             5.9143 eV


          CC_PRAM:Overall Contribution of the Different Components
          --------------------------------------------------------



          Single Excitation Contribution :              90.7896 %

          Double Excitation Contribution :               9.2104 %

          ||T1||/||T2||                  :               3.1396

          Norm of Total Amplitude Vector :               1.0000


 +=============================================================================+
 | symmetry|  orbital index  |   Excitation Numbers             |   Amplitude  |
 |  Index  |   a   b   i   j |      NAI      NBJ |     NAIBJ    |              |
 +=============================================================================+
 | 1   1   |   2      17     |      258          |              |    0.524099  |
 | 1   1   |   1      18     |      273          |              |    0.793846  |
 +-----------------------------------------------------------------------------+
 | 1 1 1 1 |   1   1  17  15 |      257      225 |        33121 |   -0.066324  |
 | 1 1 1 1 |   2   1  18  15 |      274      225 |        37626 |   -0.078087  |
 | 1 1 1 1 |   1   2  18  15 |      273      226 |        37354 |   -0.068807  |
 | 1 1 1 1 |   3   1  17  17 |      259      257 |        33668 |    0.077084  |
 | 1 1 1 1 |   3   2  18  17 |      275      258 |        37933 |    0.086378  |
 | 1 1 1 1 |   2   3  18  17 |      274      259 |        37660 |    0.077855  |
 | 1 1 1 1 |   3   1  18  18 |      275      273 |        37948 |   -0.107658  |
 +=============================================================================+


          Norm of Printed Amplitude Vector :             0.9753

          Printed all single excitations greater than 0.190567

          Printed all double excitations greater than 0.060697


 Analysis of the Coupled Cluster Excitation Vector Number :  2
 -------------------------------------------------------------

          Excitation Energy :                             7.8463 eV


          CC_PRAM:Overall Contribution of the Different Components
          --------------------------------------------------------



          Single Excitation Contribution :              93.1780 %

          Double Excitation Contribution :               6.8220 %

          ||T1||/||T2||                  :               3.6957

          Norm of Total Amplitude Vector :               1.0000


 +=============================================================================+
 | symmetry|  orbital index  |   Excitation Numbers             |   Amplitude  |
 |  Index  |   a   b   i   j |      NAI      NBJ |     NAIBJ    |              |
 +=============================================================================+
 | 1   1   |   2      15     |      226          |              |    0.275675  |
 | 1   1   |   2      18     |      274          |              |    0.869954  |
 +-----------------------------------------------------------------------------+
 | 1 1 1 1 |   2   2  15  12 |      226      178 |        25603 |   -0.068338  |
 | 1 1 1 1 |   2   2  18  15 |      274      226 |        37627 |   -0.076882  |
 | 1 1 1 1 |   3   1  18  17 |      275      257 |        37932 |    0.063576  |
 | 1 1 1 1 |   3   2  18  18 |      275      274 |        37949 |    0.065968  |
 +=============================================================================+


          Norm of Printed Amplitude Vector :             0.9229

          Printed all single excitations greater than 0.193058

          Printed all double excitations greater than 0.052238

 --------------------------
 Symmetry class Nr.:     1
 Multiplicity      :     3
 --------------------------

 Length of Excitation vectors in this class is:     83520
 No Excitation Energies calculated in this symmetry class
  

 *******************************************************************************
 *******************************************************************************
 *                                                                             *
 *                                                                             *
 *                   SUMMARY OF COUPLED CLUSTER CALCULATION                    *
 *                                                                             *
 *                                                                             *
 *******************************************************************************
 *******************************************************************************

             CC2 Total  energy:                  -302.1113168927                
             CC2 E(QM/MM)     :                     0.0026666996                
                                                                                
                                                                                
                                                                                
 +=============================================================================+
 |  sym. | Exci.  |        CC2        Excitation energies            | ||T1||  |
 |(spin, |        +------------------------------------------------------------+
 | spat) |        |     Hartree    |       eV.      |     cm-1       |    %    |
 +=============================================================================+
 | ^1A   |    1   |     0.2173461  |       5.91429  |     47701.953  |  90.79  |
 | ^1A   |    2   |     0.2883479  |       7.84635  |     63285.050  |  93.18  |
 +=============================================================================+
                                                                                
                                                                                
     Total energies in Hartree:                                                 
             1 ^1A       -301.1231448317                                        
             2 ^1A       -301.0521430165                                        

  1 a.u. =        27.21138 eV.  
  1 a.u. =    219474.62934 cm-1.
  

 *******************************************************************************
 *******************************************************************************
 *                                                                             *
 *                                                                             *
 *                      END OF COUPLED CLUSTER CALCULATION                     *
 *                                                                             *
 *                                                                             *
 *******************************************************************************
 *******************************************************************************


 >>>> CPU and wall time for CC :      37.404      38.402

 
     Date and time (Linux)  : Sun Sep  8 20:41:55 2013
     Host name              : lpqlx131.ups-tlse.fr                    


                      .-------------------------------------.
                      | End of Coupled Cluster Section (CC) |
                      `-------------------------------------'

 >>>> Total CPU  time used in DALTON:  38.48 seconds
 >>>> Total wall time used in DALTON:  39.48 seconds

 
     Date and time (Linux)  : Sun Sep  8 20:41:55 2013
     Host name              : lpqlx131.ups-tlse.fr                    
