

     ************************************************************************
     *************** Dalton - An Electronic Structure Program ***************
     ************************************************************************

    This is output from DALTON (Release Dalton2013 patch 0)
   ----------------------------------------------------------------------------
    NOTE:
     
    Dalton is an experimental code for the evaluation of molecular
    properties using (MC)SCF, DFT, CI, and CC wave functions.
    The authors accept no responsibility for the performance of
    the code or for the correctness of the results.
     
    The code (in whole or part) is provided under a licence and
    is not to be reproduced for further distribution without
    the written permission of the authors or their representatives.
     
    See the home page "http://daltonprogram.org" for further information.
     
    If results obtained with this code are published,
    the appropriate citations would be both of:
     
       K. Aidas, C. Angeli, K. L. Bak, V. Bakken, R. Bast,
       L. Boman, O. Christiansen, R. Cimiraglia, S. Coriani,
       P. Dahle, E. K. Dalskov, U. Ekstroem, T. Enevoldsen,
       J. J. Eriksen, P. Ettenhuber, B. Fernandez, L. Ferrighi,
       H. Fliegl, L. Frediani, K. Hald, A. Halkier, C. Haettig,
       H. Heiberg, T. Helgaker, A. C. Hennum, H. Hettema,
       E. Hjertenaes, S. Hoest, I.-M. Hoeyvik, M. F. Iozzi,
       B. Jansik, H. J. Aa. Jensen, D. Jonsson, P. Joergensen,
       J. Kauczor, S. Kirpekar, T. Kjaergaard, W. Klopper,
       S. Knecht, R. Kobayashi, H. Koch, J. Kongsted, A. Krapp,
       K. Kristensen, A. Ligabue, O. B. Lutnaes, J. I. Melo,
       K. V. Mikkelsen, R. H. Myhre, C. Neiss, C. B. Nielsen,
       P. Norman, J. Olsen, J. M. H. Olsen, A. Osted,
       M. J. Packer, F. Pawlowski, T. B. Pedersen, P. F. Provasi,
       S. Reine, Z. Rinkevicius, T. A. Ruden, K. Ruud, V. Rybkin,
       P. Salek, C. C. M. Samson, A. Sanchez de Meras, T. Saue,
       S. P. A. Sauer, B. Schimmelpfennig, K. Sneskov,
       A. H. Steindal, K. O. Sylvester-Hvid, P. R. Taylor,
       A. M. Teale, E. I. Tellgren, D. P. Tew, A. J. Thorvaldsen,
       L. Thoegersen, O. Vahtras, M. A. Watson, D. J. D. Wilson,
       M. Ziolkowski and H. Agren,
       "The Dalton quantum chemistry program system",
       WIREs Comput. Mol. Sci. 2013. (doi: 10.1002/wcms.1172)
    
    and
    
       Dalton, a Molecular Electronic Structure Program,
       Release DALTON2013.0 (2013), see http://daltonprogram.org
   ----------------------------------------------------------------------------

    Authors in alphabetical order (major contribution(s) in parenthesis):

  Kestutis Aidas,           Vilnius University,           Lithuania   (QM/MM)
  Celestino Angeli,         University of Ferrara,        Italy       (NEVPT2)
  Keld L. Bak,              UNI-C,                        Denmark     (AOSOPPA, non-adiabatic coupling, magnetic properties)
  Vebjoern Bakken,          University of Oslo,           Norway      (DALTON; geometry optimizer, symmetry detection)
  Radovan Bast,             KTH Stockholm                 Sweden      (DALTON installation and execution frameworks)
  Linus Boman,              NTNU,                         Norway      (Cholesky decomposition and subsystems)
  Ove Christiansen,         Aarhus University,            Denmark     (CC module)
  Renzo Cimiraglia,         University of Ferrara,        Italy       (NEVPT2)
  Sonia Coriani,            University of Trieste,        Italy       (CC module, MCD in RESPONS)
  Paal Dahle,               University of Oslo,           Norway      (Parallelization)
  Erik K. Dalskov,          UNI-C,                        Denmark     (SOPPA)
  Thomas Enevoldsen,        Univ. of Southern Denmark,    Denmark     (SOPPA)
  Janus J. Eriksen,         Aarhus University,            Denmark     (PE-MP2/SOPPA, TDA)
  Berta Fernandez,          U. of Santiago de Compostela, Spain       (doublet spin, ESR in RESPONS)
  Lara Ferrighi,            Aarhus University,            Denmark     (PCM Cubic response)
  Heike Fliegl,             University of Oslo,           Norway      (CCSD(R12))
  Luca Frediani,            UiT The Arctic U. of Norway,  Norway      (PCM)
  Bin Gao,                  UiT The Arctic U. of Norway,  Norway      (Gen1Int library)
  Christof Haettig,         Ruhr-University Bochum,       Germany     (CC module)
  Kasper Hald,              Aarhus University,            Denmark     (CC module)
  Asger Halkier,            Aarhus University,            Denmark     (CC module)
  Hanne Heiberg,            University of Oslo,           Norway      (geometry analysis, selected one-electron integrals)
  Trygve Helgaker,          University of Oslo,           Norway      (DALTON; ABACUS, ERI, DFT modules, London, and much more)
  Alf Christian Hennum,     University of Oslo,           Norway      (Parity violation)
  Hinne Hettema,            University of Auckland,       New Zealand (quadratic response in RESPONS; SIRIUS supersymmetry)
  Eirik Hjertenaes,         NTNU,                         Norway      (Cholesky decomposition)
  Maria Francesca Iozzi,    University of Oslo,           Norway      (RPA)
  Brano Jansik              Technical Univ. of Ostrava    Czech Rep.  (DFT cubic response)
  Hans Joergen Aa. Jensen,  Univ. of Southern Denmark,    Denmark     (DALTON; SIRIUS, RESPONS, ABACUS modules, London, and much more)
  Dan Jonsson,              UiT The Arctic U. of Norway,  Norway      (cubic response in RESPONS module)
  Poul Joergensen,          Aarhus University,            Denmark     (RESPONS, ABACUS, and CC modules)
  Joanna Kauczor,           Linkoeping University,        Sweden      (Complex polarization propagator (CPP) module)
  Sheela Kirpekar,          Univ. of Southern Denmark,    Denmark     (Mass-velocity & Darwin integrals)
  Wim Klopper,              KIT Karlsruhe,                Germany     (R12 code in CC, SIRIUS, and ABACUS modules)
  Stefan Knecht,            ETH Zurich,                   Switzerland (Parallel CI and MCSCF)
  Rika Kobayashi,           Australian National Univ.,    Australia   (DIIS in CC, London in MCSCF)
  Henrik Koch,              NTNU,                         Norway      (CC module, Cholesky decomposition)
  Jacob Kongsted,           Univ. of Southern Denmark,    Denmark     (Polarizable embedding, QM/MM)
  Andrea Ligabue,           University of Modena,         Italy       (CTOCD, AOSOPPA)
  Ola B. Lutnaes,           University of Oslo,           Norway      (DFT Hessian)
  Juan I. Melo,             University of Buenos Aires,   Argentina   (LRESC, Relativistic Effects on NMR Shieldings)
  Kurt V. Mikkelsen,        University of Copenhagen,     Denmark     (MC-SCRF and QM/MM)
  Rolf H. Myhre,            NTNU,                         Norway      (Cholesky, subsystems and ECC2)
  Christian Neiss,          Univ. Erlangen-Nuernberg,     Germany     (CCSD(R12))
  Christian B. Nielsen,     University of Copenhagen,     Denmark     (QM/MM)
  Patrick Norman,           Linkoeping University,        Sweden      (Cubic response and complex response in RESPONS)
  Jeppe Olsen,              Aarhus University,            Denmark     (SIRIUS CI/density modules)
  Jogvan Magnus H. Olsen,   Univ. of Southern Denmark,    Denmark     (Polarizable embedding, PE library, QM/MM)
  Anders Osted,             Copenhagen University,        Denmark     (QM/MM)
  Martin J. Packer,         University of Sheffield,      UK          (SOPPA)
  Filip Pawlowski,          Kazimierz Wielki University   Poland      (CC3)
  Thomas B. Pedersen,       University of Oslo,           Norway      (Cholesky decomposition)
  Patricio F. Provasi,      University of Northeastern,   Argentina   (Analysis of coupling constants in localized orbitals)
  Zilvinas Rinkevicius,     KTH Stockholm,                Sweden      (open-shell DFT, ESR)
  Elias Rudberg,            KTH Stockholm,                Sweden      (DFT grid and basis info)
  Torgeir A. Ruden,         University of Oslo,           Norway      (Numerical derivatives in ABACUS)
  Kenneth Ruud,             UiT The Arctic U. of Norway,  Norway      (DALTON; ABACUS magnetic properties and  much more)
  Pawel Salek,              KTH Stockholm,                Sweden      (DALTON; DFT code)
  Claire C. M. Samson       University of Karlsruhe       Germany     (Boys localization, r12 integrals in ERI)
  Alfredo Sanchez de Meras, University of Valencia,       Spain       (CC module, Cholesky decomposition)
  Trond Saue,               Paul Sabatier University,     France      (direct Fock matrix construction)
  Stephan P. A. Sauer,      University of Copenhagen,     Denmark     (SOPPA(CCSD), SOPPA prop., AOSOPPA, vibrational g-factors)
  Bernd Schimmelpfennig,    Forschungszentrum Karlsruhe,  Germany     (AMFI module)
  Kristian Sneskov,         Aarhus University,            Denmark     (QM/MM, PE-CC)
  Arnfinn H. Steindal,      UiT The Arctic U. of Norway,  Norway      (parallel QM/MM)
  K. O. Sylvester-Hvid,     University of Copenhagen,     Denmark     (MC-SCRF)
  Peter R. Taylor,          VLSCI/Univ. of Melbourne,     Australia   (Symmetry handling ABACUS, integral transformation)
  Andrew M. Teale,          University of Nottingham,     England     (DFT-AC, DFT-D)
  David P. Tew,             University of Bristol,        England     (CCSD(R12))
  Olav Vahtras,             KTH Stockholm,                Sweden      (triplet response, spin-orbit, ESR, TDDFT, open-shell DFT)
  David J. Wilson,          La Trobe University,          Australia   (DFT Hessian and DFT magnetizabilities)
  Hans Agren,               KTH Stockholm,                Sweden      (SIRIUS module, RESPONS, MC-SCRF solvation model)
 --------------------------------------------------------------------------------

     Date and time (Linux)  : Tue Sep 17 22:39:10 2013
     Host name              : TheSocialist                            

 * Work memory size             :    64000000 =  488.28 megabytes.

 * Directories for basis set searches:
   1) /home/magnus/Projects/dalton_devel/dalton/DALTON/test/2013-09-17T22_38-testjob-pid-10519
   2) /home/magnus/Projects/dalton_devel/dalton/build/basis


Compilation information
-----------------------

 Who compiled             | magnus
 Host                     | TheSocialist
 System                   | Linux-3.10.11-200.fc19.x86_64
 CMake generator          | Unix Makefiles
 Processor                | x86_64
 64-bit integers          | OFF
 MPI                      | OFF
 Fortran compiler         | /usr/bin/gfortran
 Fortran compiler version | GNU Fortran (GCC) 4.8.1 20130603 (Red Hat 4.8.1-1)
 C compiler               | /usr/lib64/ccache/gcc
 C compiler version       | gcc (GCC) 4.8.1 20130603 (Red Hat 4.8.1-1)
 C++ compiler             | /usr/lib64/ccache/g++
 C++ compiler version     | g++ (GCC) 4.8.1 20130603 (Red Hat 4.8.1-1)
 BLAS                     | /lib64/libblas.so
 LAPACK                   | /lib64/liblapack.so
 Static linking           | OFF
 Last Git revision        | 125c293ec00a6e285dc76690c5a7c9e35d3b061c
 Configuration time       | 2013-09-17 22:19:49.616906


   Content of the .dal input file
 ----------------------------------

**DALTON                                          
.RUN WAVE FUNCTION                                
.PEQM                                             
*PEQM                                             
.VERBOSE                                          
.DIRECT                                           
.DAMP                                             
**WAVE FUNCTIONS                                  
.HF                                               
**END OF                                          


   Content of the .mol file
 ----------------------------

BASIS                                                                          
STO-3G                                                                         
Acrolein                                                                       
------------------------                                                       
AtomTypes=3 NoSymmetry Angstrom                                                
Charge=6.0 Atoms=3                                                             
C             -0.145335   -0.546770    0.000607                                
C              1.274009   -0.912471   -0.000167                                
C              1.630116   -2.207690   -0.000132                                
Charge=8.0 Atoms=1                                                             
O             -0.560104    0.608977    0.000534                                
Charge=1.0 Atoms=4                                                             
H             -0.871904   -1.386459    0.001253                                
H              2.004448   -0.101417   -0.000710                                
H              0.879028   -3.000685    0.000484                                
H              2.675323   -2.516779   -0.000673                                


       *******************************************************************
       *********** Output from DALTON general input processing ***********
       *******************************************************************

 --------------------------------------------------------------------------------
   Overall default print level:    0
   Print level for DALTON.STAT:    1

    HERMIT 1- and 2-electron integral sections will be executed
    "Old" integral transformation used (limited to max 255 basis functions)
    Wave function sections will be executed (SIRIUS module)
    Environment is modeled using polarizable embedding scheme (PE library)
 --------------------------------------------------------------------------------


   ****************************************************************************
   *************** Output of molecule and basis set information ***************
   ****************************************************************************


    The two title cards from your ".mol" input:
    ------------------------------------------------------------------------
 1: Acrolein                                                                
 2: ------------------------                                                
    ------------------------------------------------------------------------

  Coordinates are entered in Angstrom and converted to atomic units.
          - Conversion factor : 1 bohr = 0.52917721 A

  Atomic type no.    1
  --------------------
  Nuclear charge:   6.00000
  Number of symmetry independent centers:    3
  Number of basis sets to read;    2
  Basis set file used for this atomic type with Z =   6 :
     "/home/magnus/Projects/dalton_devel/dalton/build/basis/STO-3G"

  Atomic type no.    2
  --------------------
  Nuclear charge:   8.00000
  Number of symmetry independent centers:    1
  Number of basis sets to read;    2
  Basis set file used for this atomic type with Z =   8 :
     "/home/magnus/Projects/dalton_devel/dalton/build/basis/STO-3G"

  Atomic type no.    3
  --------------------
  Nuclear charge:   1.00000
  Number of symmetry independent centers:    4
  Number of basis sets to read;    2
  Basis set file used for this atomic type with Z =   1 :
     "/home/magnus/Projects/dalton_devel/dalton/build/basis/STO-3G"


                         SYMGRP: Point group information
                         -------------------------------

Point group: C1 


                                 Isotopic Masses
                                 ---------------

                           C          12.000000
                           C          12.000000
                           C          12.000000
                           O          15.994915
                           H           1.007825
                           H           1.007825
                           H           1.007825
                           H           1.007825

                       Total mass:    56.026215 amu
                       Natural abundance:  96.446 %

 Center-of-mass coordinates (a.u.):    0.973773   -1.393790    0.000425


  Atoms and basis sets
  --------------------

  Number of atom types :    3
  Total number of atoms:    8

  Basis set used is "STO-3G" from the basis set library.

  label    atoms   charge   prim   cont     basis
  ----------------------------------------------------------------------
  C           3    6.0000    15     5      [6s3p|2s1p]                                        
  O           1    8.0000    15     5      [6s3p|2s1p]                                        
  H           4    1.0000     3     1      [3s|1s]                                            
  ----------------------------------------------------------------------
  total:      8   30.0000    72    24
  ----------------------------------------------------------------------

  Threshold for neglecting AO integrals:  1.00D-12


  Cartesian Coordinates (a.u.)
  ----------------------------

  Total number of coordinates:   24
  C       :     1  x  -0.2746433464    2  y  -1.0332455534    3  z   0.0011470638
  C       :     4  x   2.4075280908    5  y  -1.7243202870    6  z  -0.0003155843
  C       :     7  x   3.0804727920    8  y  -4.1719294689    9  z  -0.0002494438
  O       :    10  x  -1.0584431615   11  y   1.1507997464   12  z   0.0010091138
  H       :    13  x  -1.6476597673   14  y  -2.6200277935   15  z   0.0023678268
  H       :    16  x   3.7878577518   17  y  -0.1916503544   18  z  -0.0013417055
  H       :    19  x   1.6611221762   20  y  -5.6704728374   21  z   0.0009146274
  H       :    22  x   5.0556277659   23  y  -4.7560230271   24  z  -0.0012717857


   Interatomic separations (in Angstrom):
   --------------------------------------

            C           C           C           O           H           H     
            ------      ------      ------      ------      ------      ------
 C     :    0.000000
 C     :    1.465700    0.000000
 C     :    2.431231    1.343281    0.000000
 O     :    1.227919    2.383018    3.568007    0.000000
 H     :    1.110397    2.197637    2.633349    2.019650    0.000000
 H     :    2.195429    1.091490    2.139278    2.661125    3.150355    0.000000
 H     :    2.659139    2.125241    1.092234    3.885970    2.381489    3.110036
 H     :    3.440501    2.130137    1.089951    4.498704    3.722962    2.506800

            H           H     
            ------      ------
 H     :    0.000000
 H     :    1.860334    0.000000


  Max    interatomic separation is    4.4987 Angstrom (    8.5013 Bohr)
  between atoms    8 and    4, "H     " and "O     ".

  Min HX interatomic separation is    1.0900 Angstrom (    2.0597 Bohr)

  Min YX interatomic separation is    1.2279 Angstrom (    2.3204 Bohr)


  Bond distances (Angstrom):
  --------------------------

                  atom 1     atom 2       distance
                  ------     ------       --------
  bond distance:  C          C            1.465700
  bond distance:  C          C            1.343281
  bond distance:  O          C            1.227919
  bond distance:  H          C            1.110397
  bond distance:  H          C            1.091490
  bond distance:  H          C            1.092234
  bond distance:  H          C            1.089951


  Bond angles (degrees):
  ----------------------

                  atom 1     atom 2     atom 3         angle
                  ------     ------     ------         -----
  bond angle:     C          C          O            124.190
  bond angle:     C          C          H            116.421
  bond angle:     O          C          H            119.389
  bond angle:     C          C          C            119.821
  bond angle:     C          C          H            117.558
  bond angle:     C          C          H            122.621
  bond angle:     C          C          H            121.182
  bond angle:     C          C          H            121.847
  bond angle:     H          C          H            116.971




 Principal moments of inertia (u*A**2) and principal axes
 --------------------------------------------------------

   IA      10.696865         -0.668732    0.743503    0.000230
   IB     108.794831          0.743503    0.668732   -0.000587
   IC     119.491696          0.000590    0.000221    1.000000


 Rotational constants
 --------------------

 The molecule is planar.

               A                   B                   C

          47245.5253           4645.2483           4229.4069 MHz
            1.575941            0.154949            0.141078 cm-1


@  Nuclear repulsion energy :  102.664846860515 Hartree

  Reading potential input file

  Polarizable embedding information
  ---------------------------------

    Number of classical sites:     10

    Multipole moments upto 3rd order.

    Dipole-dipole polarizabilities.

    Direct solver for induced moments will be used.

    Interactions between inducible moments will be damped
    using damping coefficient:  2.1304


                     .---------------------------------------.
                     | Starting in Integral Section (HERMIT) |
                     `---------------------------------------'



    *************************************************************************
    ****************** Output from HERMIT input processing ******************
    *************************************************************************



     ************************************************************************
     ************************** Output from HERINT **************************
     ************************************************************************


 Threshold for neglecting two-electron integrals:  1.00D-12
 Number of two-electron integrals written:       43383 ( 96.1% )
 Megabytes written:                              0.502

 >>>  Time used in TWOINT     is   0.30 seconds
 >>>> Total CPU  time used in HERMIT:   0.35 seconds
 >>>> Total wall time used in HERMIT:   0.35 seconds


                        .----------------------------------.
                        | End of Integral Section (HERMIT) |
                        `----------------------------------'



                   .--------------------------------------------.
                   | Starting in Wave Function Section (SIRIUS) |
                   `--------------------------------------------'


 *** Output from Huckel module :

     Using EWMO model:          T
     Using EHT  model:          F
     Number of Huckel orbitals each symmetry:   24

 EWMO - Energy Weighted Maximum Overlap - is a Huckel type method,
        which normally is better than Extended Huckel Theory.
 Reference: Linderberg and Ohrn, Propagators in Quantum Chemistry (Wiley, 1973)

 Huckel EWMO eigenvalues for symmetry :  1
          -20.684561     -11.357400     -11.351264     -11.346036      -1.724840
           -1.477979      -1.046134      -1.031570      -0.744448      -0.729231
           -0.672044      -0.551742      -0.540543      -0.516178      -0.438809
           -0.319925      -0.220785      -0.162868      -0.131432      -0.129120
           -0.123435      -0.114530      -0.093199      -0.085427

 **********************************************************************
 *SIRIUS* a direct, restricted step, second order MCSCF program       *
 **********************************************************************

 
     Date and time (Linux)  : Tue Sep 17 22:39:11 2013
     Host name              : TheSocialist                            

 Title lines from ".mol" input file:
     Acrolein                                                                
     ------------------------                                                

 Print level on unit LUPRI =   2 is   0
 Print level on unit LUW4  =   2 is   5

@    Restricted, closed shell Hartree-Fock calculation.

 Initial molecular orbitals are obtained according to
 ".MOSTART EWMO  " input option

@    QM part is embedded in an environment :

@         Model: PE

     Wave function specification
     ============================

     Wave function environment is modeled using the
     polarizable embedding model (PE library).

@    For the wave function of type :      >>> PE-HF <<<
@    Number of closed shell electrons          30
@    Number of electrons in active shells       0
@    Total charge of the molecule               0

@    Spin multiplicity and 2 M_S                1         0
     Total number of symmetries                 1
@    Reference state symmetry                   1

     Orbital specifications
     ======================
     Abelian symmetry species          All |    1
                                       --- |  ---
@    Occupied SCF orbitals              15 |   15
     Secondary orbitals                  9 |    9
     Total number of orbitals           24 |   24
     Number of basis functions          24 |   24

     Maximum number of Fock   iterations      0
     Maximum number of DIIS   iterations     60
     Maximum number of QC-SCF iterations      0
     Threshold for SCF convergence     1.00D-05


 >>>>> DIIS optimization of Hartree-Fock <<<<<

 C1-DIIS algorithm; max error vectors =   10

 Iter      Total energy     Embedding energy      Error norm     Delta(E)
 -----------------------------------------------------------------------------
     (Precalculated two-electron integrals are transformed to P-supermatrix elements.
      Threshold for discarding integrals :  1.00D-12 )

WARNING: large induced dipole at site:     1
         induced dipole magnitude:    0.6874

WARNING: large induced dipole at site:     6
         induced dipole magnitude:    0.7478
@  1  -187.953940427     -5.412757069884E-02    2.00038D+00   -1.88D+02
      Virial theorem: -V/T =      2.003085
@      MULPOP C       0.93; C       0.24; C       0.42; O      -1.03; H      -0.16; H      -0.14; H      -0.12; H      -0.13; 
 -----------------------------------------------------------------------------
@  2  -188.197461016      6.416629977384E-04    1.30331D+00   -2.44D-01
      Virial theorem: -V/T =      2.009304
@      MULPOP C      -0.38; C      -0.18; C      -0.23; O       0.32; H       0.08; H       0.15; H       0.12; H       0.13; 
 -----------------------------------------------------------------------------
@  3  -188.316080579     -2.106725520128E-02    1.21909D-01   -1.19D-01
      Virial theorem: -V/T =      2.007731
@      MULPOP C       0.19; C      -0.09; C      -0.11; O      -0.30; H       0.05; H       0.10; H       0.08; H       0.08; 
 -----------------------------------------------------------------------------
@  4  -188.317913998     -2.032004075472E-02    2.88030D-02   -1.83D-03
      Virial theorem: -V/T =      2.007816
@      MULPOP C       0.14; C      -0.10; C      -0.08; O      -0.28; H       0.07; H       0.10; H       0.07; H       0.08; 
 -----------------------------------------------------------------------------
@  5  -188.318066655     -2.026259342447E-02    1.06511D-02   -1.53D-04
      Virial theorem: -V/T =      2.007776
@      MULPOP C       0.14; C      -0.09; C      -0.10; O      -0.28; H       0.07; H       0.10; H       0.07; H       0.08; 
 -----------------------------------------------------------------------------
@  6  -188.318082850     -2.028141222718E-02    2.89772D-03   -1.62D-05
      Virial theorem: -V/T =      2.007775
@      MULPOP C       0.14; C      -0.09; C      -0.09; O      -0.28; H       0.07; H       0.10; H       0.07; H       0.08; 
 -----------------------------------------------------------------------------
@  7  -188.318084089     -2.027798389263E-02    6.84566D-04   -1.24D-06
      Virial theorem: -V/T =      2.007774
@      MULPOP C       0.14; C      -0.09; C      -0.09; O      -0.28; H       0.07; H       0.10; H       0.07; H       0.08; 
 -----------------------------------------------------------------------------
@  8  -188.318084152     -2.028083481612E-02    1.48568D-04   -6.34D-08
      Virial theorem: -V/T =      2.007774
@      MULPOP C       0.14; C      -0.09; C      -0.09; O      -0.28; H       0.07; H       0.10; H       0.07; H       0.08; 
 -----------------------------------------------------------------------------
@  9  -188.318084155     -2.028102270559E-02    3.56598D-05   -3.09D-09
      Virial theorem: -V/T =      2.007774
@      MULPOP C       0.14; C      -0.09; C      -0.09; O      -0.28; H       0.07; H       0.10; H       0.07; H       0.08; 
 -----------------------------------------------------------------------------
@ 10  -188.318084155     -2.028121900873E-02    7.89352D-06   -2.24D-10

@ *** DIIS converged in  10 iterations !
@     Converged SCF energy, gradient:   -188.318084155486    7.89D-06
    - total time used in SIRFCK :              0.00 seconds


 *** SCF orbital energy analysis ***
   (incl. contribution from polarizable embedding potential)

 Only the five lowest virtual orbital energies printed in each symmetry.

 Number of electrons :   30
 Orbital occupations :   15

 Sym       Hartree-Fock orbital energies

  1    -20.28787727   -11.14222460   -11.05604351   -11.04596298    -1.34555019
        -1.02397933    -0.82935540    -0.73729550    -0.61758081    -0.60649895
        -0.52488416    -0.50377571    -0.48102836    -0.36519627    -0.32636869
         0.20261772     0.38214437     0.59650974     0.62526584     0.65946031

    E(LUMO) :     0.20261772 au (symmetry 1)
  - E(HOMO) :    -0.32636869 au (symmetry 1)
  ------------------------------------------
    gap     :     0.52898641 au

      Polarizable embedding energy contributions:
     ---------------------------------------------

       Electrostatic contributions:
         Monopoles                 -0.015707809035
         Dipoles                    0.004251826691
         Quadrupoles               -0.004995010836
         Octopoles                 -0.002314113013

       Polarization contributions:
         Electronic                -0.074496957672
         Nuclear                    0.072657470140
         Multipole                  0.000323374716

       Total PE energy:            -0.020281219009

      Polarizable embedding information
     -----------------------------------

                         Induced dipole moments
         site          X              Y              Z
            1     0.14011478     0.19303780     0.00004201
            6    -0.28949846     0.05048918     0.00009489

                        Total induced dipole moment
                       X              Y              Z
                 -0.14938368     0.24352698     0.00013690


 >>> Writing SIRIFC interface file <<<

 >>>> CPU and wall time for SCF :       0.247       0.248


                       .-----------------------------------.
                       | >>> Final results from SIRIUS <<< |
                       `-----------------------------------'


@    Spin multiplicity:           1
@    Spatial symmetry:            1
@    Total charge of molecule:    0

@    Final HF energy:            -188.318084155486                 
@    Nuclear repulsion:           102.664846860515
@    Electronic energy:          -290.962649796992
@    Embedding energy:             -0.020281219009

@    Final gradient norm:           0.000007893522

 
     Date and time (Linux)  : Tue Sep 17 22:39:11 2013
     Host name              : TheSocialist                            

 (Only coefficients >0.0100 are printed.)

 Molecular orbitals for symmetry species  1
 ------------------------------------------

    Orbital         1        2        3        4        5        6        7
   1 C   :1s    -0.0005  -0.9926   0.0004   0.0013   0.1232  -0.0663   0.1399
   2 C   :1s     0.0071  -0.0332  -0.0000  -0.0065  -0.2833   0.1874  -0.4311
   3 C   :2px   -0.0021  -0.0003  -0.0001  -0.0043   0.0479   0.1142  -0.1039
   4 C   :2py    0.0059  -0.0005   0.0002   0.0011  -0.1464  -0.0902   0.1302
   6 C   :1s     0.0000   0.0004   0.0358   0.9915   0.0212  -0.1794   0.0517
   7 C   :1s    -0.0003   0.0061  -0.0063   0.0366  -0.0510   0.4696  -0.1538
   8 C   :2px    0.0000  -0.0040  -0.0012  -0.0004   0.0280  -0.0174   0.1813
   9 C   :2py   -0.0006   0.0013   0.0043  -0.0016  -0.0077  -0.0925  -0.1648
  11 C   :1s    -0.0000   0.0003   0.9917  -0.0352   0.0044  -0.1569  -0.1474
  12 C   :1s    -0.0001  -0.0001   0.0353  -0.0090  -0.0106   0.4154   0.4323
  13 C   :2px   -0.0001  -0.0000  -0.0004   0.0013   0.0023  -0.0400   0.0549
  14 C   :2py   -0.0000   0.0000   0.0012  -0.0045  -0.0054   0.1049  -0.0551
  16 O   :1s    -0.9943  -0.0002   0.0000  -0.0000   0.2185   0.0461  -0.0790
  17 O   :1s    -0.0260   0.0058  -0.0001   0.0003  -0.7675  -0.1806   0.3424
  18 O   :2px   -0.0019   0.0007  -0.0000   0.0002  -0.0538   0.0222  -0.0702
  19 O   :2py    0.0052  -0.0016   0.0001  -0.0001   0.1477  -0.0085   0.1148
  21 H   :1s    -0.0002   0.0065  -0.0001   0.0001  -0.0317   0.0485  -0.1552
  22 H   :1s     0.0002  -0.0000  -0.0001  -0.0067  -0.0081   0.0982  -0.0489
  23 H   :1s     0.0000   0.0001  -0.0067   0.0003  -0.0019   0.0981   0.1501
  24 H   :1s     0.0000   0.0001  -0.0067   0.0003  -0.0011   0.0897   0.1883

    Orbital         8        9       10       11       12       13       14
   1 C   :1s    -0.0899   0.0099   0.0537   0.0024   0.0293  -0.0000  -0.0052
   2 C   :1s     0.2926  -0.0303  -0.1824  -0.0025  -0.1119   0.0000   0.0189
   3 C   :2px   -0.2452  -0.3718   0.0340   0.0918  -0.1948   0.0004   0.2042
   4 C   :2py   -0.1708  -0.1196  -0.2379  -0.3666   0.0671   0.0002   0.0582
   5 C   :2pz    0.0002   0.0003   0.0000   0.0001   0.0002   0.5623  -0.0001
   6 C   :1s     0.1082  -0.0337  -0.0329   0.0057  -0.0191   0.0000  -0.0355
   7 C   :1s    -0.3331   0.1109   0.0934  -0.0059   0.0836  -0.0000   0.1553
   8 C   :2px   -0.1276   0.3060  -0.0889  -0.0603   0.2222   0.0001  -0.3151
   9 C   :2py   -0.1456  -0.0769  -0.2693   0.3242   0.2592  -0.0000   0.0561
  10 C   :2pz    0.0001  -0.0002   0.0001  -0.0000  -0.0001   0.2862   0.0002
  11 C   :1s    -0.0576   0.0168   0.0144   0.0228   0.0114  -0.0000   0.0068
  12 C   :1s     0.1797  -0.0685  -0.0633  -0.0629  -0.0318   0.0000  -0.0212
  13 C   :2px   -0.0468   0.1838  -0.3293   0.2072  -0.3475   0.0001   0.0750
  14 C   :2py   -0.1702   0.2825   0.2144  -0.2818  -0.2340   0.0001  -0.0638
  15 C   :2pz    0.0001  -0.0002   0.0002  -0.0001   0.0003   0.1824  -0.0001
  16 O   :1s     0.0418  -0.0013  -0.0753  -0.0552   0.0095  -0.0000  -0.0014
  17 O   :1s    -0.1921   0.0047   0.3852   0.3076  -0.0552   0.0000   0.0095
  18 O   :2px   -0.1281  -0.3544  -0.2162  -0.1768  -0.2328   0.0004  -0.7900
  19 O   :2py   -0.1745  -0.1149   0.3655   0.4938  -0.1704   0.0002  -0.2824
  20 O   :2pz    0.0001   0.0003   0.0000  -0.0000   0.0003   0.5833   0.0006
  21 H   :1s     0.2762   0.1977   0.0376   0.2015   0.0120  -0.0000  -0.3537
  22 H   :1s    -0.2406   0.1528  -0.1403   0.1682   0.3486  -0.0001  -0.1268
  23 H   :1s     0.1761  -0.2785   0.0293   0.0346   0.3835  -0.0001  -0.0598
  24 H   :1s     0.0736   0.0434  -0.3197   0.2203  -0.2778   0.0000   0.1056

    Orbital        15       16       17
   5 C   :2pz    0.1615  -0.5438  -0.6671
  10 C   :2pz   -0.5693  -0.3926   0.7338
  15 C   :2pz   -0.5858   0.6300  -0.5347
  20 O   :2pz    0.4094   0.5841   0.4418



 >>>> Total CPU  time used in SIRIUS :      0.26 seconds
 >>>> Total wall time used in SIRIUS :      0.26 seconds

 
     Date and time (Linux)  : Tue Sep 17 22:39:11 2013
     Host name              : TheSocialist                            


                     .---------------------------------------.
                     | End of Wave Function Section (SIRIUS) |
                     `---------------------------------------'

 >>>> Total CPU  time used in DALTON:   0.62 seconds
 >>>> Total wall time used in DALTON:   0.62 seconds

 
     Date and time (Linux)  : Tue Sep 17 22:39:11 2013
     Host name              : TheSocialist                            
