

     ************************************************************************
     *************** Dalton - An Electronic Structure Program ***************
     ************************************************************************

    This is output from DALTON (Release Dalton2013 patch 0)
   ----------------------------------------------------------------------------
    NOTE:
     
    Dalton is an experimental code for the evaluation of molecular
    properties using (MC)SCF, DFT, CI, and CC wave functions.
    The authors accept no responsibility for the performance of
    the code or for the correctness of the results.
     
    The code (in whole or part) is provided under a licence and
    is not to be reproduced for further distribution without
    the written permission of the authors or their representatives.
     
    See the home page "http://daltonprogram.org" for further information.
     
    If results obtained with this code are published,
    the appropriate citations would be both of:
     
       K. Aidas, C. Angeli, K. L. Bak, V. Bakken, R. Bast,
       L. Boman, O. Christiansen, R. Cimiraglia, S. Coriani,
       P. Dahle, E. K. Dalskov, U. Ekstroem, T. Enevoldsen,
       J. J. Eriksen, P. Ettenhuber, B. Fernandez, L. Ferrighi,
       H. Fliegl, L. Frediani, K. Hald, A. Halkier, C. Haettig,
       H. Heiberg, T. Helgaker, A. C. Hennum, H. Hettema,
       E. Hjertenaes, S. Hoest, I.-M. Hoeyvik, M. F. Iozzi,
       B. Jansik, H. J. Aa. Jensen, D. Jonsson, P. Joergensen,
       J. Kauczor, S. Kirpekar, T. Kjaergaard, W. Klopper,
       S. Knecht, R. Kobayashi, H. Koch, J. Kongsted, A. Krapp,
       K. Kristensen, A. Ligabue, O. B. Lutnaes, J. I. Melo,
       K. V. Mikkelsen, R. H. Myhre, C. Neiss, C. B. Nielsen,
       P. Norman, J. Olsen, J. M. H. Olsen, A. Osted,
       M. J. Packer, F. Pawlowski, T. B. Pedersen, P. F. Provasi,
       S. Reine, Z. Rinkevicius, T. A. Ruden, K. Ruud, V. Rybkin,
       P. Salek, C. C. M. Samson, A. Sanchez de Meras, T. Saue,
       S. P. A. Sauer, B. Schimmelpfennig, K. Sneskov,
       A. H. Steindal, K. O. Sylvester-Hvid, P. R. Taylor,
       A. M. Teale, E. I. Tellgren, D. P. Tew, A. J. Thorvaldsen,
       L. Thoegersen, O. Vahtras, M. A. Watson, D. J. D. Wilson,
       M. Ziolkowski and H. Agren.
       The Dalton quantum chemistry program system.
       WIREs Comput. Mol. Sci. 2013. doi: 10.1002/wcms.1172
    
    and
    
       Dalton, a Molecular Electronic Structure Program,
       Release DALTON2013.0 (2013), see http://daltonprogram.org
   ----------------------------------------------------------------------------

    Authors in alphabetical order (major contribution(s) in parenthesis):

  Kestutis Aidas,           Vilnius University,           Lithuania   (QM/MM)
  Celestino Angeli,         University of Ferrara,        Italy       (NEVPT2)
  Keld L. Bak,              UNI-C,                        Denmark     (AOSOPPA, non-adiabatic coupling, magnetic properties)
  Vebjoern Bakken,          University of Oslo,           Norway      (DALTON; geometry optimizer, symmetry detection)
  Radovan Bast,             KTH Stockholm                 Sweden      (DALTON installation and execution frameworks)
  Linus Boman,              NTNU,                         Norway      (Cholesky decomposition and subsystems)
  Ove Christiansen,         Aarhus University,            Denmark     (CC module)
  Renzo Cimiraglia,         University of Ferrara,        Italy       (NEVPT2)
  Sonia Coriani,            University of Trieste,        Italy       (CC module, MCD in RESPONS)
  Paal Dahle,               University of Oslo,           Norway      (Parallelization)
  Erik K. Dalskov,          UNI-C,                        Denmark     (SOPPA)
  Thomas Enevoldsen,        Univ. of Southern Denmark,    Denmark     (SOPPA)
  Janus J. Eriksen,         Aarhus University,            Denmark     (PE-MP2/SOPPA, TDA)
  Berta Fernandez,          U. of Santiago de Compostela, Spain       (doublet spin, ESR in RESPONS)
  Lara Ferrighi,            Aarhus University,            Denmark     (PCM Cubic response)
  Heike Fliegl,             University of Oslo,           Norway      (CCSD(R12))
  Luca Frediani,            UiT The Arctic U. of Norway,  Norway      (PCM)
  Bin Gao,                  UiT The Arctic U. of Norway,  Norway      (Gen1Int library)
  Christof Haettig,         Ruhr-University Bochum,       Germany     (CC module)
  Kasper Hald,              Aarhus University,            Denmark     (CC module)
  Asger Halkier,            Aarhus University,            Denmark     (CC module)
  Hanne Heiberg,            University of Oslo,           Norway      (geometry analysis, selected one-electron integrals)
  Trygve Helgaker,          University of Oslo,           Norway      (DALTON; ABACUS, ERI, DFT modules, London, and much more)
  Alf Christian Hennum,     University of Oslo,           Norway      (Parity violation)
  Hinne Hettema,            University of Auckland,       New Zealand (quadratic response in RESPONS; SIRIUS supersymmetry)
  Eirik Hjertenaes,         NTNU,                         Norway      (Cholesky decomposition)
  Maria Francesca Iozzi,    University of Oslo,           Norway      (RPA)
  Brano Jansik              Technical Univ. of Ostrava    Czech Rep.  (DFT cubic response)
  Hans Joergen Aa. Jensen,  Univ. of Southern Denmark,    Denmark     (DALTON; SIRIUS, RESPONS, ABACUS modules, London, and much more)
  Dan Jonsson,              UiT The Arctic U. of Norway,  Norway      (cubic response in RESPONS module)
  Poul Joergensen,          Aarhus University,            Denmark     (RESPONS, ABACUS, and CC modules)
  Joanna Kauczor,           Linkoeping University,        Sweden      (Complex polarization propagator (CPP) module)
  Sheela Kirpekar,          Univ. of Southern Denmark,    Denmark     (Mass-velocity & Darwin integrals)
  Wim Klopper,              KIT Karlsruhe,                Germany     (R12 code in CC, SIRIUS, and ABACUS modules)
  Stefan Knecht,            ETH Zurich,                   Switzerland (Parallel CI and MCSCF)
  Rika Kobayashi,           Australian National Univ.,    Australia   (DIIS in CC, London in MCSCF)
  Henrik Koch,              NTNU,                         Norway      (CC module, Cholesky decomposition)
  Jacob Kongsted,           Univ. of Southern Denmark,    Denmark     (Polarizable embedding, QM/MM)
  Andrea Ligabue,           University of Modena,         Italy       (CTOCD, AOSOPPA)
  Ola B. Lutnaes,           University of Oslo,           Norway      (DFT Hessian)
  Juan I. Melo,             University of Buenos Aires,   Argentina   (LRESC, Relativistic Effects on NMR Shieldings)
  Kurt V. Mikkelsen,        University of Copenhagen,     Denmark     (MC-SCRF and QM/MM)
  Rolf H. Myhre,            NTNU,                         Norway      (Cholesky, subsystems and ECC2)
  Christian Neiss,          Univ. Erlangen-Nuernberg,     Germany     (CCSD(R12))
  Christian B. Nielsen,     University of Copenhagen,     Denmark     (QM/MM)
  Patrick Norman,           Linkoeping University,        Sweden      (Cubic response and complex response in RESPONS)
  Jeppe Olsen,              Aarhus University,            Denmark     (SIRIUS CI/density modules)
  Jogvan Magnus H. Olsen,   Univ. of Southern Denmark,    Denmark     (Polarizable embedding, PE library, QM/MM)
  Anders Osted,             Copenhagen University,        Denmark     (QM/MM)
  Martin J. Packer,         University of Sheffield,      UK          (SOPPA)
  Filip Pawlowski,          Kazimierz Wielki University   Poland      (CC3)
  Thomas B. Pedersen,       University of Oslo,           Norway      (Cholesky decomposition)
  Patricio F. Provasi,      University of Northeastern,   Argentina   (Analysis of coupling constants in localized orbitals)
  Zilvinas Rinkevicius,     KTH Stockholm,                Sweden      (open-shell DFT, ESR)
  Elias Rudberg,            KTH Stockholm,                Sweden      (DFT grid and basis info)
  Torgeir A. Ruden,         University of Oslo,           Norway      (Numerical derivatives in ABACUS)
  Kenneth Ruud,             UiT The Arctic U. of Norway,  Norway      (DALTON; ABACUS magnetic properties and  much more)
  Pawel Salek,              KTH Stockholm,                Sweden      (DALTON; DFT code)
  Claire C. M. Samson       University of Karlsruhe       Germany     (Boys localization, r12 integrals in ERI)
  Alfredo Sanchez de Meras, University of Valencia,       Spain       (CC module, Cholesky decomposition)
  Trond Saue,               Paul Sabatier University,     France      (direct Fock matrix construction)
  Stephan P. A. Sauer,      University of Copenhagen,     Denmark     (SOPPA(CCSD), SOPPA prop., AOSOPPA, vibrational g-factors)
  Bernd Schimmelpfennig,    Forschungszentrum Karlsruhe,  Germany     (AMFI module)
  Kristian Sneskov,         Aarhus University,            Denmark     (QM/MM, PE-CC)
  Arnfinn H. Steindal,      UiT The Arctic U. of Norway,  Norway      (parallel QM/MM)
  K. O. Sylvester-Hvid,     University of Copenhagen,     Denmark     (MC-SCRF)
  Peter R. Taylor,          VLSCI/Univ. of Melbourne,     Australia   (Symmetry handling ABACUS, integral transformation)
  Andrew M. Teale,          University of Nottingham,     England     (DFT-AC, DFT-D)
  David P. Tew,             University of Bristol,        England     (CCSD(R12))
  Olav Vahtras,             KTH Stockholm,                Sweden      (triplet response, spin-orbit, ESR, TDDFT, open-shell DFT)
  David J. Wilson,          La Trobe University,          Australia   (DFT Hessian and DFT magnetizabilities)
  Hans Agren,               KTH Stockholm,                Sweden      (SIRIUS module, RESPONS, MC-SCRF solvation model)
 --------------------------------------------------------------------------------

     Date and time (Linux)  : Sun Sep  8 20:43:55 2013
     Host name              : lpqlx131.ups-tlse.fr                    

 * Work memory size             :    64000000 =  488.28 megabytes.

 * Directories for basis set searches:
   1) /home/bast/DALTON-2013.0-Source/build/test_cc_energy_triplet
   2) /home/bast/DALTON-2013.0-Source/build/basis


Compilation information
-----------------------

 Who compiled             | bast
 Host                     | lpqlx131.ups-tlse.fr
 System                   | Linux-3.8.5-201.fc18.x86_64
 CMake generator          | Unix Makefiles
 Processor                | x86_64
 64-bit integers          | OFF
 MPI                      | OFF
 Fortran compiler         | /usr/bin/gfortran
 Fortran compiler version | GNU Fortran (GCC) 4.7.2 20121109 (Red Hat 4.7.2-8)
 C compiler               | /usr/bin/gcc
 C compiler version       | gcc (GCC) 4.7.2 20121109 (Red Hat 4.7.2-8)
 C++ compiler             | /usr/bin/g++
 C++ compiler version     | g++ (GCC) 4.7.2 20121109 (Red Hat 4.7.2-8)
 Static linking           | OFF
 Last Git revision        | f34203295a86316e27f9e7b44f9b6769c4a046c0
 Configuration time       | 2013-09-08 20:31:27.952056


   Content of the .dal input file
 ----------------------------------

**DALTON INPUT                                    
.RUN WAVE FUNCTIONS                               
**WAVE FUNCTIONS                                  
.TITLE                                            
  Triplet excitation energies                     
.CC                                               
*SCF INPUT                                        
.THRESH                                           
 1.0D-10                                          
*CC INPUT                                         
.CCS                                              
.CC2                                              
.CCSD                                             
.THRENR                                           
 1.0d-10                                          
.PRINT                                            
  1                                               
*CCEXCI                                           
.NCCEXCI                                          
 1 2 1 2 1 2 0 1                                  
 2 4 2 2 2 4 0 2                                  
.THREXC                                           
 1.0D-10                                          
**END OF DALTON INPUT                             


   Content of the .mol file
 ----------------------------

BASIS                                                                          
cc-pVDZ                                                                        
C2H2 in cc-pVDZ basis set                                                      
Exp. geo. from Baldacci et al.                                                 
    2    3  X  Y  Z 1.00D-18                                                   
        6.    1                                                                
C1    .000000  .000000  1.136264                                               
        1.    1                                                                
H1    .000000  .000000  3.143437                                               


       *******************************************************************
       *********** Output from DALTON general input processing ***********
       *******************************************************************

 --------------------------------------------------------------------------------
   Overall default print level:    0
   Print level for DALTON.STAT:    1

    HERMIT 1- and 2-electron integral sections will be executed
    "Old" integral transformation used (limited to max 255 basis functions)
    Wave function sections will be executed (SIRIUS module)
 --------------------------------------------------------------------------------


   ****************************************************************************
   *************** Output of molecule and basis set information ***************
   ****************************************************************************


    The two title cards from your ".mol" input:
    ------------------------------------------------------------------------
 1: C2H2 in cc-pVDZ basis set                                               
 2: Exp. geo. from Baldacci et al.                                          
    ------------------------------------------------------------------------

  INFO from READIN: Threshold for discarding integrals was    1.00D-18
  INFO from READIN: Threshold is reset to minimum value       1.00D-15

  Atomic type no.    1
  --------------------
  Nuclear charge:   6.00000
  Number of symmetry independent centers:    1
  Number of basis sets to read;    2
  Basis set file used for this atomic type with Z =   6 :
     "/home/bast/DALTON-2013.0-Source/build/basis/cc-pVDZ"

  Atomic type no.    2
  --------------------
  Nuclear charge:   1.00000
  Number of symmetry independent centers:    1
  Number of basis sets to read;    2
  Basis set file used for this atomic type with Z =   1 :
     "/home/bast/DALTON-2013.0-Source/build/basis/cc-pVDZ"


                         SYMGRP: Point group information
                         -------------------------------

Point group: D2h

   * The point group was generated by:

      Reflection in the yz-plane
      Reflection in the xz-plane
      Reflection in the xy-plane

   * Group multiplication table

        |  E   C2z  C2y  C2x   i   Oxy  Oxz  Oyz
   -----+----------------------------------------
     E  |  E   C2z  C2y  C2x   i   Oxy  Oxz  Oyz
    C2z | C2z   E   C2x  C2y  Oxy   i   Oyz  Oxz
    C2y | C2y  C2x   E   C2z  Oxz  Oyz   i   Oxy
    C2x | C2x  C2y  C2z   E   Oyz  Oxz  Oxy   i 
     i  |  i   Oxy  Oxz  Oyz   E   C2z  C2y  C2x
    Oxy | Oxy   i   Oyz  Oxz  C2z   E   C2x  C2y
    Oxz | Oxz  Oyz   i   Oxy  C2y  C2x   E   C2z
    Oyz | Oyz  Oxz  Oxy   i   C2x  C2y  C2z   E 

   * Character table

        |  E   C2z  C2y  C2x   i   Oxy  Oxz  Oyz
   -----+----------------------------------------
    Ag  |   1    1    1    1    1    1    1    1
    B3u |   1   -1   -1    1   -1    1    1   -1
    B2u |   1   -1    1   -1   -1    1   -1    1
    B1g |   1    1   -1   -1    1    1   -1   -1
    B1u |   1    1   -1   -1   -1   -1    1    1
    B2g |   1   -1    1   -1    1   -1    1   -1
    B3g |   1   -1   -1    1    1   -1   -1    1
    Au  |   1    1    1    1   -1   -1   -1   -1

   * Direct product table

        | Ag   B3u  B2u  B1g  B1u  B2g  B3g  Au 
   -----+----------------------------------------
    Ag  | Ag   B3u  B2u  B1g  B1u  B2g  B3g  Au 
    B3u | B3u  Ag   B1g  B2u  B2g  B1u  Au   B3g
    B2u | B2u  B1g  Ag   B3u  B3g  Au   B1u  B2g
    B1g | B1g  B2u  B3u  Ag   Au   B3g  B2g  B1u
    B1u | B1u  B2g  B3g  Au   Ag   B3u  B2u  B1g
    B2g | B2g  B1u  Au   B3g  B3u  Ag   B1g  B2u
    B3g | B3g  Au   B1u  B2g  B2u  B1g  Ag   B3u
    Au  | Au   B3g  B2g  B1u  B1g  B2u  B3u  Ag 


                                 Isotopic Masses
                                 ---------------

                           C1  _1     12.000000
                           C1  _2     12.000000
                           H1  _1      1.007825
                           H1  _2      1.007825

                       Total mass:    26.015650 amu
                       Natural abundance:  97.783 %

 Center-of-mass coordinates (a.u.):    0.000000    0.000000    0.000000


  Atoms and basis sets
  --------------------

  Number of atom types :    2
  Total number of atoms:    4

  Basis set used is "cc-pVDZ" from the basis set library.

  label    atoms   charge   prim   cont     basis
  ----------------------------------------------------------------------
  C1          2    6.0000    26    14      [9s4p1d|3s2p1d]                                    
  H1          2    1.0000     7     5      [4s1p|2s1p]                                        
  ----------------------------------------------------------------------
  total:      4   14.0000    66    38
  ----------------------------------------------------------------------
  Spherical harmonic basis used.

  Threshold for neglecting AO integrals:  1.00D-15


  Cartesian Coordinates (a.u.)
  ----------------------------

  Total number of coordinates:   12
  C1  / 1 :     1  x   0.0000000000    2  y   0.0000000000    3  z   1.1362640000
  C1  / 2 :     4  x   0.0000000000    5  y   0.0000000000    6  z  -1.1362640000
  H1  / 1 :     7  x   0.0000000000    8  y   0.0000000000    9  z   3.1434370000
  H1  / 2 :    10  x   0.0000000000   11  y   0.0000000000   12  z  -3.1434370000


  Symmetry Coordinates
  --------------------

  Number of coordinates in each symmetry:     2    2    2    0    2    2    2    0

  Symmetry  Ag  ( 1)

    1   C1    z    [  3  -    6 ]/2
    2   H1    z    [  9  -   12 ]/2

  Symmetry  B3u ( 2)

    3   C1    x    [  1  +    4 ]/2
    4   H1    x    [  7  +   10 ]/2

  Symmetry  B2u ( 3)

    5   C1    y    [  2  +    5 ]/2
    6   H1    y    [  8  +   11 ]/2

  Symmetry  B1u ( 5)

    7   C1    z    [  3  +    6 ]/2
    8   H1    z    [  9  +   12 ]/2

  Symmetry  B2g ( 6)

    9   C1    x    [  1  -    4 ]/2
   10   H1    x    [  7  -   10 ]/2

  Symmetry  B3g ( 7)

   11   C1    y    [  2  -    5 ]/2
   12   H1    y    [  8  -   11 ]/2


   Interatomic separations (in Angstrom):
   --------------------------------------

            C1  _1      C1  _2      H1  _1      H1  _2
            ------      ------      ------      ------
 C1  _1:    0.000000
 C1  _2:    1.202570    0.000000
 H1  _1:    1.062150    2.264720    0.000000
 H1  _2:    2.264720    1.062150    3.326870    0.000000


  Max    interatomic separation is    3.3269 Angstrom (    6.2869 Bohr)
  between atoms    4 and    3, "H1  _2" and "H1  _1".

  Min HX interatomic separation is    1.0622 Angstrom (    2.0072 Bohr)

  Min YX interatomic separation is    1.2026 Angstrom (    2.2725 Bohr)


  Bond distances (Angstrom):
  --------------------------

                  atom 1     atom 2       distance
                  ------     ------       --------
  bond distance:  C1  _2     C1  _1       1.202570
  bond distance:  H1  _1     C1  _1       1.062150
  bond distance:  H1  _2     C1  _2       1.062150


  Bond angles (degrees):
  ----------------------

                  atom 1     atom 2     atom 3         angle
                  ------     ------     ------         -----
  bond angle:     C1  _2     C1  _1     H1  _1       180.000
  bond angle:     C1  _1     C1  _2     H1  _2       180.000




 Principal moments of inertia (u*A**2) and principal axes
 --------------------------------------------------------

   IA       0.000000          0.000000    0.000000    1.000000
   IB      14.254385          0.000000    1.000000    0.000000
   IC      14.254385          1.000000    0.000000    0.000000


 Rotational constants
 --------------------

 The molecule is linear.

               B =        35454.28 MHz     (    1.182628 cm-1)


@  Nuclear repulsion energy :   24.782942637378 Hartree


  Symmetry Orbitals
  -----------------

  Number of orbitals in each symmetry:          10    4    4    1   10    4    4    1


  Symmetry  Ag ( 1)

    1     C1       1s         1 +    2
    2     C1       1s         3 +    4
    3     C1       1s         5 +    6
    4     C1       2pz       11 -   12
    5     C1       2pz       17 -   18
    6     C1       3d0       23 +   24
    7     C1       3d2+      27 +   28
    8     H1       1s        29 +   30
    9     H1       1s        31 +   32
   10     H1       2pz       37 -   38


  Symmetry  B3u( 2)

   11     C1       2px        7 +    8
   12     C1       2px       13 +   14
   13     C1       3d1+      25 -   26
   14     H1       2px       33 +   34


  Symmetry  B2u( 3)

   15     C1       2py        9 +   10
   16     C1       2py       15 +   16
   17     C1       3d1-      21 -   22
   18     H1       2py       35 +   36


  Symmetry  B1g( 4)

   19     C1       3d2-      19 +   20


  Symmetry  B1u( 5)

   20     C1       1s         1 -    2
   21     C1       1s         3 -    4
   22     C1       1s         5 -    6
   23     C1       2pz       11 +   12
   24     C1       2pz       17 +   18
   25     C1       3d0       23 -   24
   26     C1       3d2+      27 -   28
   27     H1       1s        29 -   30
   28     H1       1s        31 -   32
   29     H1       2pz       37 +   38


  Symmetry  B2g( 6)

   30     C1       2px        7 -    8
   31     C1       2px       13 -   14
   32     C1       3d1+      25 +   26
   33     H1       2px       33 -   34


  Symmetry  B3g( 7)

   34     C1       2py        9 -   10
   35     C1       2py       15 -   16
   36     C1       3d1-      21 +   22
   37     H1       2py       35 -   36


  Symmetry  Au ( 8)

   38     C1       3d2-      19 -   20

  Symmetries of electric field:  B3u(2)  B2u(3)  B1u(5)

  Symmetries of magnetic field:  B3g(7)  B2g(6)  B1g(4)


                     .---------------------------------------.
                     | Starting in Integral Section (HERMIT) |
                     `---------------------------------------'



    *************************************************************************
    ****************** Output from HERMIT input processing ******************
    *************************************************************************



     ************************************************************************
     ************************** Output from HERINT **************************
     ************************************************************************


 Threshold for neglecting two-electron integrals:  1.00D-15
 Number of two-electron integrals written:       35573 ( 12.9% )
 Megabytes written:                              0.412

 >>>> Total CPU  time used in HERMIT:   0.06 seconds
 >>>> Total wall time used in HERMIT:   0.08 seconds


                        .----------------------------------.
                        | End of Integral Section (HERMIT) |
                        `----------------------------------'



                   .--------------------------------------------.
                   | Starting in Wave Function Section (SIRIUS) |
                   `--------------------------------------------'

 NCCEXCI for singlet:           1           2           1           2           1           2           0           1
 NCCEXCI for triplet:           2           4           2           2           2           4           0           2

 *** Output from Huckel module :

     Using EWMO model:          F
     Using EHT  model:          T
     Number of Huckel orbitals each symmetry:    4    1    1    0    4    1    1    0

 Huckel EHT eigenvalues for symmetry :  1
          -11.392346      -1.147692      -0.565539      -0.180876

 Huckel EHT eigenvalues for symmetry :  2
           -0.538221

 Huckel EHT eigenvalues for symmetry :  3
           -0.538221

 Huckel EHT eigenvalues for symmetry :  5
          -11.376903      -0.865877      -0.249713      -0.135853

 Huckel EHT eigenvalues for symmetry :  6
           -0.275579

 Huckel EHT eigenvalues for symmetry :  7
           -0.275579

 **********************************************************************
 *SIRIUS* a direct, restricted step, second order MCSCF program       *
 **********************************************************************

 
     Date and time (Linux)  : Sun Sep  8 20:43:55 2013
     Host name              : lpqlx131.ups-tlse.fr                    

 Title     :   Triplet excitation energies                               

 Title lines from ".mol" input file:
     C2H2 in cc-pVDZ basis set                                               
     Exp. geo. from Baldacci et al.                                          

 Print level on unit LUPRI =   2 is   0
 Print level on unit LUW4  =   2 is   5

@    (Integral direct) CC calculation.

@    This is a combination run starting with
@              a restricted, closed shell Hartree-Fock calculation


 Initial molecular orbitals are obtained according to
 ".MOSTART EHT   " input option

     Wave function specification
     ============================

     For the specification of the Coupled Cluster: see later.

@    For the wave function of type :      >>> CC <<<
@    Number of closed shell electrons          14
@    Number of electrons in active shells       0
@    Total charge of the molecule               0

@    Spin multiplicity and 2 M_S                1         0
     Total number of symmetries                 8
@    Reference state symmetry                   1

     Orbital specifications
     ======================
     Abelian symmetry species          All |    1    2    3    4    5    6    7    8
                                       --- |  ---  ---  ---  ---  ---  ---  ---  ---
     Total number of orbitals           38 |   10    4    4    1   10    4    4    1
     Number of basis functions          38 |   10    4    4    1   10    4    4    1

      ** Automatic occupation of RHF orbitals **

      -- Initial occupation of symmetries is determined from extended Huckel guess.           
      -- Initial occupation of symmetries is :
@    Occupied SCF orbitals               7 |    3    1    1    0    2    0    0    0

     Maximum number of Fock   iterations      0
     Maximum number of DIIS   iterations     60
     Maximum number of QC-SCF iterations     60
     Threshold for SCF convergence     1.00D-10


 Changes of defaults for CC:
 ---------------------------

 -Excitation energies calculated
  


 >>>>> DIIS optimization of Hartree-Fock <<<<<

 C1-DIIS algorithm; max error vectors =   10

 Automatic occupation of symmetries with  14 electrons.

 Iter     Total energy    Error norm  Delta(E)    SCF occupation
 -----------------------------------------------------------------------------
     (Precalculated two-electron integrals are transformed to P-supermatrix elements.
      Threshold for discarding integrals :  1.00D-15 )
@  1  -76.5308963626       2.26D+00  -7.65D+01     3   1   1   0   2   0   0   0
      Virial theorem: -V/T =      2.018978
@      MULPOP C1  _1  0.21; C1  _2  0.21; H1  _1 -0.21; H1  _2 -0.21; 
 -----------------------------------------------------------------------------
@  2  -76.8015049176       5.68D-01  -2.71D-01     3   1   1   0   2   0   0   0
      Virial theorem: -V/T =      1.992780
@      MULPOP C1  _1 -0.05; C1  _2 -0.05; H1  _1  0.05; H1  _2  0.05; 
 -----------------------------------------------------------------------------
@  3  -76.8246065048       1.07D-01  -2.31D-02     3   1   1   0   2   0   0   0
      Virial theorem: -V/T =      2.003114
@      MULPOP C1  _1 -0.02; C1  _2 -0.02; H1  _1  0.02; H1  _2  0.02; 
 -----------------------------------------------------------------------------
@  4  -76.8257048895       2.06D-02  -1.10D-03     3   1   1   0   2   0   0   0
      Virial theorem: -V/T =      2.001883
@      MULPOP C1  _1 -0.05; C1  _2 -0.05; H1  _1  0.05; H1  _2  0.05; 
 -----------------------------------------------------------------------------
@  5  -76.8257747839       2.44D-03  -6.99D-05     3   1   1   0   2   0   0   0
      Virial theorem: -V/T =      2.001846
@      MULPOP C1  _1 -0.06; C1  _2 -0.06; H1  _1  0.06; H1  _2  0.06; 
 -----------------------------------------------------------------------------
@  6  -76.8257756087       2.91D-04  -8.25D-07     3   1   1   0   2   0   0   0
      Virial theorem: -V/T =      2.001851
@      MULPOP C1  _1 -0.06; C1  _2 -0.06; H1  _1  0.06; H1  _2  0.06; 
 -----------------------------------------------------------------------------
@  7  -76.8257756193       2.94D-05  -1.05D-08     3   1   1   0   2   0   0   0
      Virial theorem: -V/T =      2.001850
@      MULPOP C1  _1 -0.06; C1  _2 -0.06; H1  _1  0.06; H1  _2  0.06; 
 -----------------------------------------------------------------------------
@  8  -76.8257756194       3.13D-06  -9.95D-11     3   1   1   0   2   0   0   0
      Virial theorem: -V/T =      2.001850
@      MULPOP C1  _1 -0.06; C1  _2 -0.06; H1  _1  0.06; H1  _2  0.06; 
 -----------------------------------------------------------------------------
@  9  -76.8257756194       1.48D-07  -9.95D-13     3   1   1   0   2   0   0   0
      Virial theorem: -V/T =      2.001850
@      MULPOP C1  _1 -0.06; C1  _2 -0.06; H1  _1  0.06; H1  _2  0.06; 
 -----------------------------------------------------------------------------
@ 10  -76.8257756194       1.51D-08  -2.84D-14     3   1   1   0   2   0   0   0
      Virial theorem: -V/T =      2.001850
@      MULPOP C1  _1 -0.06; C1  _2 -0.06; H1  _1  0.06; H1  _2  0.06; 
 -----------------------------------------------------------------------------
@ 11  -76.8257756194       1.74D-09   2.84D-14     3   1   1   0   2   0   0   0
      Virial theorem: -V/T =      2.001850
@      MULPOP C1  _1 -0.06; C1  _2 -0.06; H1  _1  0.06; H1  _2  0.06; 
 -----------------------------------------------------------------------------
@ 12  -76.8257756194       1.04D-10   2.84D-14     3   1   1   0   2   0   0   0
      Virial theorem: -V/T =      2.001850
@      MULPOP C1  _1 -0.06; C1  _2 -0.06; H1  _1  0.06; H1  _2  0.06; 
 -----------------------------------------------------------------------------
@ 13  -76.8257756194       8.14D-12  -2.84D-14     3   1   1   0   2   0   0   0

@ *** DIIS converged in  13 iterations !
@     Converged SCF energy, gradient:    -76.825775619372    8.14D-12
    - total time used in SIRFCK :              0.00 seconds


 *** SCF orbital energy analysis ***

 Only the five lowest virtual orbital energies printed in each symmetry.

 Number of electrons :   14
 Orbital occupations :    3    1    1    0    2    0    0    0

 Sym       Hartree-Fock orbital energies

  1    -11.24782961    -1.02760660    -0.67524506     0.22290735     0.53480713
         0.95994002     1.10733948     1.25303689

  2     -0.40632960     0.66061497     1.22918014     2.07834204

  3     -0.40632960     0.66061497     1.22918014     2.07834204

  4      1.25303689

  5    -11.24413631    -0.76336896     0.19201440     0.49706553     0.85494539
         1.37877699     1.43587702

  6      0.19996098     0.81861398     1.64138761     2.69496289

  7      0.19996098     0.81861398     1.64138761     2.69496289

  8      1.68194407

    E(LUMO) :     0.19201440 au (symmetry 5)
  - E(HOMO) :    -0.40632960 au (symmetry 3)
  ------------------------------------------
    gap     :     0.59834401 au

 >>> Writing SIRIFC interface file <<<

 >>>> CPU and wall time for SCF :       0.010       0.011


                       .-----------------------------------.
                       | >>> Final results from SIRIUS <<< |
                       `-----------------------------------'


@    Spin multiplicity:           1
@    Spatial symmetry:            1
@    Total charge of molecule:    0

@    Final HF energy:             -76.825775619372                 
@    Nuclear repulsion:            24.782942637378
@    Electronic energy:          -101.608718256750

@    Final gradient norm:           0.000000000008

 
     Date and time (Linux)  : Sun Sep  8 20:43:55 2013
     Host name              : lpqlx131.ups-tlse.fr                    

 (Only coefficients >0.0100 are printed.)

 Molecular orbitals for symmetry species  1
 ------------------------------------------

    Orbital         1        2        3        4        5
   1 C1  :1s     0.7068  -0.0294  -0.0002   0.0406  -0.2270
   2 C1  :1s     0.0029   0.6371   0.0180  -0.0446  -0.9877
   3 C1  :1s    -0.0010  -0.1627   0.0318  -1.3953   0.8025
   4 C1  :2pz    0.0017  -0.2396   0.5629  -0.2760   0.5319
   5 C1  :2pz   -0.0012   0.0917  -0.1830  -0.7207  -0.8301
   6 C1  :3d0    0.0022   0.0208   0.0057  -0.0179  -0.0789
   8 H1  :1s    -0.0034   0.1600   0.4964  -0.0066  -0.7411
   9 H1  :1s     0.0025  -0.0762  -0.1550   1.7969   0.8517
  10 H1  :2pz    0.0012  -0.0173  -0.0190  -0.0243  -0.0600

 Molecular orbitals for symmetry species  2
 ------------------------------------------

    Orbital         1        2        3
   1 C1  :2px    0.6057  -0.9486   0.2958
   2 C1  :2px   -0.0233   1.0567  -0.2841
   3 C1  :3d1+  -0.0321   0.1100   0.3908
   4 H1  :2px    0.0172  -0.0181   0.3765

 Molecular orbitals for symmetry species  3
 ------------------------------------------

    Orbital         1        2        3
   1 C1  :2py    0.6057  -0.9486   0.2958
   2 C1  :2py   -0.0233   1.0567  -0.2841
   3 C1  :3d1-  -0.0321   0.1100   0.3908
   4 H1  :2py    0.0172  -0.0181   0.3765

 Molecular orbitals for symmetry species  4
 ------------------------------------------

    Orbital         1
   1 C1  :3d2-   0.6346

 Molecular orbitals for symmetry species  5
 ------------------------------------------

    Orbital         1        2        3        4
   1 C1  :1s     0.7092  -0.0159   0.0014  -0.1035
   2 C1  :1s     0.0088   0.4207   0.3037   0.0901
   3 C1  :1s    -0.0088   0.0670  -1.7860   6.2849
   4 C1  :2pz   -0.0008   0.2990   0.1356  -0.1373
   5 C1  :2pz    0.0022  -0.1728   2.4464  -4.3771
   6 C1  :3d0    0.0023   0.0086  -0.0546   0.0198
   8 H1  :1s    -0.0032   0.4990  -0.1232  -0.7787
   9 H1  :1s     0.0019  -0.1598  -2.1647   2.2562
  10 H1  :2pz    0.0011  -0.0277  -0.0153  -0.0143

 Molecular orbitals for symmetry species  6
 ------------------------------------------

    Orbital         1        2
   1 C1  :2px    0.4934  -1.1379
   2 C1  :2px    0.6154   1.7171
   3 C1  :3d1+   0.0298  -0.1646
   4 H1  :2px    0.0311   0.0007

 Molecular orbitals for symmetry species  7
 ------------------------------------------

    Orbital         1        2
   1 C1  :2py    0.4934  -1.1379
   2 C1  :2py    0.6154   1.7171
   3 C1  :3d1-   0.0298  -0.1646
   4 H1  :2py    0.0311   0.0007

 Molecular orbitals for symmetry species  8
 ------------------------------------------

    Orbital         1
   1 C1  :3d2-   0.8120



 >>>> Total CPU  time used in SIRIUS :      0.01 seconds
 >>>> Total wall time used in SIRIUS :      0.01 seconds

 
     Date and time (Linux)  : Sun Sep  8 20:43:55 2013
     Host name              : lpqlx131.ups-tlse.fr                    


                     .---------------------------------------.
                     | End of Wave Function Section (SIRIUS) |
                     `---------------------------------------'



                    .------------------------------------------.
                    | Starting in Coupled Cluster Section (CC) |
                    `------------------------------------------'

  

 *******************************************************************************
 *******************************************************************************
 *                                                                             *
 *                                                                             *
 *                    START OF COUPLED CLUSTER CALCULATION                     *
 *                                                                             *
 *                                                                             *
 *******************************************************************************
 *******************************************************************************



 CCR12 ANSATZ =   0

 CCR12 APPROX =   0

   

 *******************************************************************
 *                                                                 *
 *<<<<<<<<<<                                             >>>>>>>>>>*
 *<<<<<<<<<< OUTPUT FROM COUPLED CLUSTER ENERGY PROGRAM  >>>>>>>>>>*
 *<<<<<<<<<<                                             >>>>>>>>>>*
 *                                                                 *
 *******************************************************************


             The Direct Coupled Cluster Energy Program
             -----------------------------------------


          Number of t1 amplitudes                 :        43
          Number of t2 amplitudes                 :      3590
          Total number of amplitudes in ccsd      :      3633



          CCS CALC. - NO WAVEFUNCTION OPTIMIZATION
   

 *******************************************************************
 *                                                                 *
 *<<<<<<<<<< OUTPUT FROM COUPLED CLUSTER LINEAR RESPONSE >>>>>>>>>>*
 *                                                                 *
 *<<<<<<<<<<     CALCULATION OF EXCITATION ENERGIES      >>>>>>>>>>*
 *                                                                 *
 *******************************************************************



                            +--------------------------+
                            !  CCS Excitation Energies !
                            +--------------------------+


 --------------------------
 Symmetry class Nr.:     1
 Multiplicity      :     1
 --------------------------

 Length of Excitation vectors in this class is:        43
 Converging for  1 roots.
  >> output from FNDMN3 <<
  NUMBER OF ELEMENTS OBTAINED IN FNDMN3            4
  MIN AND MAX IN SELECTED SUPSPACE   0.89815241354523279        1.0669445766068106     
 Start vector guessed from diagonal
 ... selected element no. 15



 >>>>> COUPLED CLUSTER RESPONSE SOLVER <<<<<

    Iter  #Vectors  time (min)   residual
    --------------------------------------

 REDUCED EIGENVALUES real part:

               Column   1
       1       0.68988669
    ==== End of matrix output ====
      1       1         0.00     0.99E-01

 REDUCED EIGENVALUES real part:

               Column   1
       1       0.64983451
    ==== End of matrix output ====
      2       1         0.00     0.11E+00

 REDUCED EIGENVALUES real part:

               Column   1
       1       0.63196588
    ==== End of matrix output ====
      3       1         0.00     0.78E-01

 REDUCED EIGENVALUES real part:

               Column   1
       1       0.62889553
    ==== End of matrix output ====
      4       1         0.00     0.44E-01

 REDUCED EIGENVALUES real part:

               Column   1
       1       0.62825480
    ==== End of matrix output ====
      5       1         0.00     0.14E-01

 REDUCED EIGENVALUES real part:

               Column   1
       1       0.62817396
    ==== End of matrix output ====
      6       1         0.00     0.40E-02

 REDUCED EIGENVALUES real part:

               Column   1
       1       0.62816133
    ==== End of matrix output ====
      7       1         0.00     0.20E-02

 REDUCED EIGENVALUES real part:

               Column   1
       1       0.62815765
    ==== End of matrix output ====
      8       1         0.00     0.12E-02

 REDUCED EIGENVALUES real part:

               Column   1
       1       0.62815723
    ==== End of matrix output ====
      9       1         0.00     0.41E-03

 REDUCED EIGENVALUES real part:

               Column   1
       1       0.62815718
    ==== End of matrix output ====
     10       1         0.00     0.82E-04

 REDUCED EIGENVALUES real part:

               Column   1
       1       0.62815718
    ==== End of matrix output ====
     11       1         0.00     0.17E-04

 REDUCED EIGENVALUES real part:

               Column   1
       1       0.62815718
    ==== End of matrix output ====
     12       1         0.00     0.46E-05

 REDUCED EIGENVALUES real part:

               Column   1
       1       0.62815718
    ==== End of matrix output ====
     13       1         0.00     0.17E-05

 REDUCED EIGENVALUES real part:

               Column   1
       1       0.62815718
    ==== End of matrix output ====
     14       1         0.00     0.45E-06

 REDUCED EIGENVALUES real part:

               Column   1
       1       0.62815718
    ==== End of matrix output ====
     15       1         0.00     0.12E-06

 REDUCED EIGENVALUES real part:

               Column   1
       1       0.62815718
    ==== End of matrix output ====
     16       1         0.00     0.32E-07

 REDUCED EIGENVALUES real part:

               Column   1
       1       0.62815718
    ==== End of matrix output ====
     17       1         0.00     0.25E-08

 REDUCED EIGENVALUES real part:

               Column   1
       1       0.62815718
    ==== End of matrix output ====
     18       1         0.00     0.13E-08

 REDUCED EIGENVALUES real part:

               Column   1
       1       0.62815718
    ==== End of matrix output ====
     19       1         0.00     0.41E-09

 REDUCED EIGENVALUES real part:

               Column   1
       1       0.62815718
    ==== End of matrix output ====
     20       1         0.00     0.82E-10
    --------------------------------------
    converged in 20 iterations
    threshold:    0.10E-09


         Routine          Time (min)
         ---------------------------
         CC_TRDRV            0.00
         CCRED               0.00
         CCNEX               0.00
         ---------------------------
         Total time          0.00


 >>>> Total CPU  time used in CCEQ_SOLV:   0.03 seconds
 >>>> Total wall time used in CCEQ_SOLV:   0.03 seconds


 >>>>>>>>>>>>>>>>>>>>> <<<<<<<<<<<<<<<<<<<<<



  Final eigenvalues :
 =====================
 (convergence threshold:  1.00D-10)

    1   0.6281571781


 SYMMETRY CLASS NR.    1
 MULTIPLICITY          1


 CCS        right excitation energies:
 ====================================
 (conversion factor used: 1 au = 27.2113957 eV)

 Excitation no.       Hartree               eV 
 --------------       -------               --
         1            0.6281571781       17.0930263182


 Total excited state energies for states of symmetry/spin    1    1
 Excitation no.       Energy (Hartree) 
 ------------------------------------- 
@@    1    1           -76.197618441245780


 Analysis of the Coupled Cluster Excitation Vector Number :  1
 -------------------------------------------------------------

          Excitation Energy :                            17.0930 eV

          Norm of Total Amplitude Vector :               1.0000


 +=============================================================================+
 | symmetry|  orbital index  |   Excitation Numbers             |   Amplitude  |
 |  Index  |   a   b   i   j |      NAI      NBJ |     NAIBJ    |              |
 +=============================================================================+
 | 1   1   |   1       3     |       15          |              |    0.789481  |
 +=============================================================================+


          Norm of Printed Amplitude Vector :             0.7895

          Printed all single excitations greater than 0.500000

 --------------------------
 Symmetry class Nr.:     1
 Multiplicity      :     3
 --------------------------

 Length of Excitation vectors in this class is:        43
 Converging for  2 roots.
  >> output from FNDMN3 <<
  NUMBER OF ELEMENTS OBTAINED IN FNDMN3            5
  MIN AND MAX IN SELECTED SUPSPACE   0.89815241354523279        1.2100521919955147     
 Start vector guessed from diagonal
 ... selected element no. 15
 Start vector guessed from diagonal
 ... selected element no. 36



 >>>>> COUPLED CLUSTER RESPONSE SOLVER <<<<<

    Iter  #Vectors  time (min)   residual
    --------------------------------------

 REDUCED EIGENVALUES real part:

               Column   1
       1       0.57196077
       2       0.77101981
    ==== End of matrix output ====
      1       2         0.00     0.14E+00

 REDUCED EIGENVALUES real part:

               Column   1
       1       0.52920018
       2       0.75094459
    ==== End of matrix output ====
      2       2         0.00     0.57E-01

 REDUCED EIGENVALUES real part:

               Column   1
       1       0.52385723
       2       0.74331689
    ==== End of matrix output ====
      3       2         0.00     0.65E-01

 REDUCED EIGENVALUES real part:

               Column   1
       1       0.52257634
       2       0.72940954
    ==== End of matrix output ====
      4       2         0.00     0.10E+00

 REDUCED EIGENVALUES real part:

               Column   1
       1       0.52246224
       2       0.72119314
    ==== End of matrix output ====
      5       2         0.00     0.14E+00

 REDUCED EIGENVALUES real part:

               Column   1
       1       0.52238332
       2       0.66514679
    ==== End of matrix output ====
      6       2         0.00     0.27E+00

 REDUCED EIGENVALUES real part:

               Column   1
       1       0.52236995
       2       0.64471820
    ==== End of matrix output ====
      7       2         0.00     0.48E-01

 REDUCED EIGENVALUES real part:

               Column   1
       1       0.52236958
       2       0.64392770
    ==== End of matrix output ====
      8       2         0.00     0.79E-02

 REDUCED EIGENVALUES real part:

               Column   1
       1       0.52236956
       2       0.64389383
    ==== End of matrix output ====
      9       2         0.00     0.33E-02

 REDUCED EIGENVALUES real part:

               Column   1
       1       0.52236956
       2       0.64389114
    ==== End of matrix output ====
     10       2         0.00     0.67E-03

 REDUCED EIGENVALUES real part:

               Column   1
       1       0.52236956
       2       0.64389100
    ==== End of matrix output ====
     11       2         0.00     0.14E-03

 REDUCED EIGENVALUES real part:

               Column   1
       1       0.52236956
       2       0.64389099
    ==== End of matrix output ====
     12       2         0.00     0.30E-04

 REDUCED EIGENVALUES real part:

               Column   1
       1       0.52236956
       2       0.64389099
    ==== End of matrix output ====
     13       2         0.00     0.37E-05

 REDUCED EIGENVALUES real part:

               Column   1
       1       0.52236956
       2       0.64389099
    ==== End of matrix output ====
     14       2         0.00     0.21E-06

 REDUCED EIGENVALUES real part:

               Column   1
       1       0.52236956
       2       0.64389099
    ==== End of matrix output ====
     15       2         0.00     0.43E-08

 REDUCED EIGENVALUES real part:

               Column   1
       1       0.52236956
       2       0.64389099
    ==== End of matrix output ====
     16       1         0.00     0.18E-10
    --------------------------------------
    converged in 16 iterations
    threshold:    0.10E-09


         Routine          Time (min)
         ---------------------------
         CC_TRDRV            0.00
         CCRED               0.00
         CCNEX               0.00
         ---------------------------
         Total time          0.00


 >>>> Total CPU  time used in CCEQ_SOLV:   0.05 seconds
 >>>> Total wall time used in CCEQ_SOLV:   0.05 seconds


 >>>>>>>>>>>>>>>>>>>>> <<<<<<<<<<<<<<<<<<<<<



  Final eigenvalues :
 =====================
 (convergence threshold:  1.00D-10)

    1   0.5223695641
    2   0.6438909893


 SYMMETRY CLASS NR.    1
 MULTIPLICITY          3


 CCS        right excitation energies:
 ====================================
 (conversion factor used: 1 au = 27.2113957 eV)

 Excitation no.       Hartree               eV 
 --------------       -------               --
         1            0.5223695641       14.2143989084
         2            0.6438909893       17.5211650985


 Total excited state energies for states of symmetry/spin    1    3
 Excitation no.       Energy (Hartree) 
 ------------------------------------- 
@@    1    1           -76.303406055269974
@@    1    2           -76.181884630095709


 Analysis of the Coupled Cluster Excitation Vector Number :  1
 -------------------------------------------------------------

          Excitation Energy :                            14.2144 eV

     Norm of Total Amplitude Vector :          1.0000


 +=============================================================================+
 | symmetry|  orbital index  |   Excitation Numbers             |   Amplitude  |
 |  Index  |   a   b   i   j |      NAI      NBJ |     NAIBJ    |              |
 +=============================================================================+
 | 1   1   |   1       3     |       15          |              |    0.712998  |
 | 5   5   |   1       2     |       36          |              |   -0.583643  |
 +=============================================================================+


          Norm of Printed Amplitude Vector :             0.9214


          Printed all single excitations greater than 0.500000


 Analysis of the Coupled Cluster Excitation Vector Number :  2
 -------------------------------------------------------------

          Excitation Energy :                            17.5212 eV

     Norm of Total Amplitude Vector :          1.0000


 +=============================================================================+
 | symmetry|  orbital index  |   Excitation Numbers             |   Amplitude  |
 |  Index  |   a   b   i   j |      NAI      NBJ |     NAIBJ    |              |
 +=============================================================================+
 | 2   2   |   1       1     |       22          |              |   -0.693383  |
 | 3   3   |   1       1     |       25          |              |   -0.693383  |
 +=============================================================================+


          Norm of Printed Amplitude Vector :             0.9806


          Printed all single excitations greater than 0.500000


 *******************************************************************************

 --------------------------
 Symmetry class Nr.:     2
 Multiplicity      :     1
 --------------------------

 Length of Excitation vectors in this class is:        25
 Converging for  2 roots.
  >> output from FNDMN3 <<
  NUMBER OF ELEMENTS OBTAINED IN FNDMN3            5
  MIN AND MAX IN SELECTED SUPSPACE   0.62923695412801683        1.3662696265186347     
 Start vector guessed from diagonal
 ... selected element no. 10
 Start vector guessed from diagonal
 ... selected element no. 11



 >>>>> COUPLED CLUSTER RESPONSE SOLVER <<<<<

    Iter  #Vectors  time (min)   residual
    --------------------------------------

 REDUCED EIGENVALUES real part:

               Column   1
       1       0.40582502
       2       0.61631856
    ==== End of matrix output ====
      1       2         0.00     0.88E-01

 REDUCED EIGENVALUES real part:

               Column   1
       1       0.39975475
       2       0.60714942
    ==== End of matrix output ====
      2       2         0.00     0.30E-01

 REDUCED EIGENVALUES real part:

               Column   1
       1       0.39966349
       2       0.60371338
    ==== End of matrix output ====
      3       2         0.00     0.68E-01

 REDUCED EIGENVALUES real part:

               Column   1
       1       0.39965410
       2       0.60175926
    ==== End of matrix output ====
      4       2         0.00     0.32E-01

 REDUCED EIGENVALUES real part:

               Column   1
       1       0.39965358
       2       0.60145723
    ==== End of matrix output ====
      5       2         0.00     0.61E-02

 REDUCED EIGENVALUES real part:

               Column   1
       1       0.39965357
       2       0.60144035
    ==== End of matrix output ====
      6       2         0.00     0.10E-02

 REDUCED EIGENVALUES real part:

               Column   1
       1       0.39965357
       2       0.60143990
    ==== End of matrix output ====
      7       2         0.00     0.45E-03

 REDUCED EIGENVALUES real part:

               Column   1
       1       0.39965357
       2       0.60143986
    ==== End of matrix output ====
      8       2         0.00     0.37E-04

 REDUCED EIGENVALUES real part:

               Column   1
       1       0.39965357
       2       0.60143986
    ==== End of matrix output ====
      9       2         0.00     0.37E-05

 REDUCED EIGENVALUES real part:

               Column   1
       1       0.39965357
       2       0.60143986
    ==== End of matrix output ====
     10       2         0.00     0.55E-06

 REDUCED EIGENVALUES real part:

               Column   1
       1       0.39965357
       2       0.60143986
    ==== End of matrix output ====
     11       2         0.00     0.59E-07

 REDUCED EIGENVALUES real part:

               Column   1
       1       0.39965357
       2       0.60143986
    ==== End of matrix output ====
     12       2         0.00     0.25E-13
    --------------------------------------
    converged in 12 iterations
    threshold:    0.10E-09


         Routine          Time (min)
         ---------------------------
         CC_TRDRV            0.00
         CCRED               0.00
         CCNEX               0.00
         ---------------------------
         Total time          0.00


 >>>> Total CPU  time used in CCEQ_SOLV:   0.04 seconds
 >>>> Total wall time used in CCEQ_SOLV:   0.04 seconds


 >>>>>>>>>>>>>>>>>>>>> <<<<<<<<<<<<<<<<<<<<<



  Final eigenvalues :
 =====================
 (convergence threshold:  1.00D-10)

    1   0.3996535662
    2   0.6014398551


 SYMMETRY CLASS NR.    2
 MULTIPLICITY          1


 CCS        right excitation energies:
 ====================================
 (conversion factor used: 1 au = 27.2113957 eV)

 Excitation no.       Hartree               eV 
 --------------       -------               --
         1            0.3996535662       10.8751267402
         2            0.6014398551       16.3660109759


 Total excited state energies for states of symmetry/spin    2    1
 Excitation no.       Energy (Hartree) 
 ------------------------------------- 
@@    2    1           -76.426122053192856
@@    2    2           -76.224335764288057


 Analysis of the Coupled Cluster Excitation Vector Number :  1
 -------------------------------------------------------------

          Excitation Energy :                            10.8751 eV

          Norm of Total Amplitude Vector :               1.0000


 +=============================================================================+
 | symmetry|  orbital index  |   Excitation Numbers             |   Amplitude  |
 |  Index  |   a   b   i   j |      NAI      NBJ |     NAIBJ    |              |
 +=============================================================================+
 | 1   2   |   1       1     |       10          |              |    0.986339  |
 +=============================================================================+


          Norm of Printed Amplitude Vector :             0.9863

          Printed all single excitations greater than 0.500000


 Analysis of the Coupled Cluster Excitation Vector Number :  2
 -------------------------------------------------------------

          Excitation Energy :                            16.3660 eV

          Norm of Total Amplitude Vector :               1.0000


 +=============================================================================+
 | symmetry|  orbital index  |   Excitation Numbers             |   Amplitude  |
 |  Index  |   a   b   i   j |      NAI      NBJ |     NAIBJ    |              |
 +=============================================================================+
 | 1   2   |   2       1     |       11          |              |    0.933265  |
 +=============================================================================+


          Norm of Printed Amplitude Vector :             0.9333

          Printed all single excitations greater than 0.500000


 *******************************************************************************

 --------------------------
 Symmetry class Nr.:     2
 Multiplicity      :     3
 --------------------------

 Length of Excitation vectors in this class is:        25
 Converging for  4 roots.
  >> output from FNDMN3 <<
  NUMBER OF ELEMENTS OBTAINED IN FNDMN3            7
  MIN AND MAX IN SELECTED SUPSPACE   0.62923695412801683        1.5819829411067361     
 Start vector guessed from diagonal
 ... selected element no. 10
 Start vector guessed from diagonal
 ... selected element no. 11
 Start vector guessed from diagonal
 ... selected element no. 22
 Start vector guessed from diagonal
 ... selected element no.  7



 >>>>> COUPLED CLUSTER RESPONSE SOLVER <<<<<

    Iter  #Vectors  time (min)   residual
    --------------------------------------

 REDUCED EIGENVALUES real part:

               Column   1
       1       0.39730263
       2       0.56533495
       3       0.60372682
       4       0.98675624
    ==== End of matrix output ====
      1       4         0.00     0.14E+00

 REDUCED EIGENVALUES real part:

               Column   1
       1       0.38966544
       2       0.55792280
       3       0.57782064
       4       0.95674727
    ==== End of matrix output ====
      2       4         0.00     0.39E-01

 REDUCED EIGENVALUES real part:

               Column   1
       1       0.38963467
       2       0.55774054
       3       0.57738973
       4       0.95602327
    ==== End of matrix output ====
      3       4         0.00     0.13E-01

 REDUCED EIGENVALUES real part:

               Column   1
       1       0.38963398
       2       0.55773844
       3       0.57737373
       4       0.95594757
    ==== End of matrix output ====
      4       4         0.00     0.97E-02

 REDUCED EIGENVALUES real part:

               Column   1
       1       0.38963396
       2       0.55773843
       3       0.57737281
       4       0.95591047
    ==== End of matrix output ====
      5       4         0.00     0.11E-02

 REDUCED EIGENVALUES real part:

               Column   1
       1       0.38963396
       2       0.55773843
       3       0.57737281
       4       0.95590989
    ==== End of matrix output ====
      6       4         0.00     0.20E-13
    --------------------------------------
    converged in  6 iterations
    threshold:    0.10E-09


         Routine          Time (min)
         ---------------------------
         CC_TRDRV            0.00
         CCRED               0.00
         CCNEX               0.00
         ---------------------------
         Total time          0.00


 >>>> Total CPU  time used in CCEQ_SOLV:   0.03 seconds
 >>>> Total wall time used in CCEQ_SOLV:   0.04 seconds


 >>>>>>>>>>>>>>>>>>>>> <<<<<<<<<<<<<<<<<<<<<



  Final eigenvalues :
 =====================
 (convergence threshold:  1.00D-10)

    1   0.3896339626
    2   0.5577384304
    3   0.5773728142
    4   0.9559098893


 SYMMETRY CLASS NR.    2
 MULTIPLICITY          3


 CCS        right excitation energies:
 ====================================
 (conversion factor used: 1 au = 27.2113957 eV)

 Excitation no.       Hartree               eV 
 --------------       -------               --
         1            0.3896339626       10.6024794570
         2            0.5577384304       15.1768347171
         3            0.5773728142       15.7111134783
         4            0.9559098893       26.0116312678


 Total excited state energies for states of symmetry/spin    2    3
 Excitation no.       Energy (Hartree) 
 ------------------------------------- 
@@    2    1           -76.436141656792657
@@    2    2           -76.268037189015217
@@    2    3           -76.248402805219570
@@    2    4           -75.869865730071595


 Analysis of the Coupled Cluster Excitation Vector Number :  1
 -------------------------------------------------------------

          Excitation Energy :                            10.6025 eV

     Norm of Total Amplitude Vector :          1.0000


 +=============================================================================+
 | symmetry|  orbital index  |   Excitation Numbers             |   Amplitude  |
 |  Index  |   a   b   i   j |      NAI      NBJ |     NAIBJ    |              |
 +=============================================================================+
 | 1   2   |   1       1     |       10          |              |    0.977736  |
 +=============================================================================+


          Norm of Printed Amplitude Vector :             0.9777


          Printed all single excitations greater than 0.500000


 Analysis of the Coupled Cluster Excitation Vector Number :  2
 -------------------------------------------------------------

          Excitation Energy :                            15.1768 eV

     Norm of Total Amplitude Vector :          1.0000


 +=============================================================================+
 | symmetry|  orbital index  |   Excitation Numbers             |   Amplitude  |
 |  Index  |   a   b   i   j |      NAI      NBJ |     NAIBJ    |              |
 +=============================================================================+
 | 1   2   |   2       1     |       11          |              |    0.926579  |
 +=============================================================================+


          Norm of Printed Amplitude Vector :             0.9266


          Printed all single excitations greater than 0.500000


 Analysis of the Coupled Cluster Excitation Vector Number :  3
 -------------------------------------------------------------

          Excitation Energy :                            15.7111 eV

     Norm of Total Amplitude Vector :          1.0000


 +=============================================================================+
 | symmetry|  orbital index  |   Excitation Numbers             |   Amplitude  |
 |  Index  |   a   b   i   j |      NAI      NBJ |     NAIBJ    |              |
 +=============================================================================+
 | 6   5   |   1       2     |       22          |              |    0.927977  |
 +=============================================================================+


          Norm of Printed Amplitude Vector :             0.9280


          Printed all single excitations greater than 0.500000


 Analysis of the Coupled Cluster Excitation Vector Number :  4
 -------------------------------------------------------------

          Excitation Energy :                            26.0116 eV

     Norm of Total Amplitude Vector :          1.0000


 +=============================================================================+
 | symmetry|  orbital index  |   Excitation Numbers             |   Amplitude  |
 |  Index  |   a   b   i   j |      NAI      NBJ |     NAIBJ    |              |
 +=============================================================================+
 | 2   1   |   1       3     |        7          |              |    0.952068  |
 +=============================================================================+


          Norm of Printed Amplitude Vector :             0.9521


          Printed all single excitations greater than 0.500000


 *******************************************************************************

 --------------------------
 Symmetry class Nr.:     3
 Multiplicity      :     1
 --------------------------

 Length of Excitation vectors in this class is:        25
 Converging for  1 roots.
  >> output from FNDMN3 <<
  NUMBER OF ELEMENTS OBTAINED IN FNDMN3            4
  MIN AND MAX IN SELECTED SUPSPACE   0.62923695412801539        1.3358600360240187     
 Start vector guessed from diagonal
 ... selected element no. 11



 >>>>> COUPLED CLUSTER RESPONSE SOLVER <<<<<

    Iter  #Vectors  time (min)   residual
    --------------------------------------

 REDUCED EIGENVALUES real part:

               Column   1
       1       0.40907026
    ==== End of matrix output ====
      1       1         0.00     0.67E-01

 REDUCED EIGENVALUES real part:

               Column   1
       1       0.40074951
    ==== End of matrix output ====
      2       1         0.00     0.18E-01

 REDUCED EIGENVALUES real part:

               Column   1
       1       0.39973076
    ==== End of matrix output ====
      3       1         0.00     0.15E-01

 REDUCED EIGENVALUES real part:

               Column   1
       1       0.39965544
    ==== End of matrix output ====
      4       1         0.00     0.34E-02

 REDUCED EIGENVALUES real part:

               Column   1
       1       0.39965369
    ==== End of matrix output ====
      5       1         0.00     0.36E-03

 REDUCED EIGENVALUES real part:

               Column   1
       1       0.39965358
    ==== End of matrix output ====
      6       1         0.00     0.18E-03

 REDUCED EIGENVALUES real part:

               Column   1
       1       0.39965357
    ==== End of matrix output ====
      7       1         0.00     0.50E-04

 REDUCED EIGENVALUES real part:

               Column   1
       1       0.39965357
    ==== End of matrix output ====
      8       1         0.00     0.21E-04

 REDUCED EIGENVALUES real part:

               Column   1
       1       0.39965357
    ==== End of matrix output ====
      9       1         0.00     0.20E-05

 REDUCED EIGENVALUES real part:

               Column   1
       1       0.39965357
    ==== End of matrix output ====
     10       1         0.00     0.64E-06

 REDUCED EIGENVALUES real part:

               Column   1
       1       0.39965357
    ==== End of matrix output ====
     11       1         0.00     0.80E-07

 REDUCED EIGENVALUES real part:

               Column   1
       1       0.39965357
    ==== End of matrix output ====
     12       1         0.00     0.60E-08

 REDUCED EIGENVALUES real part:

               Column   1
       1       0.39965357
    ==== End of matrix output ====
     13       1         0.00     0.79E-09

 REDUCED EIGENVALUES real part:

               Column   1
       1       0.39965357
    ==== End of matrix output ====
     14       1         0.00     0.19E-09

 REDUCED EIGENVALUES real part:

               Column   1
       1       0.39965357
    ==== End of matrix output ====
     15       1         0.00     0.29E-10
    --------------------------------------
    converged in 15 iterations
    threshold:    0.10E-09


         Routine          Time (min)
         ---------------------------
         CC_TRDRV            0.00
         CCRED               0.00
         CCNEX               0.00
         ---------------------------
         Total time          0.00


 >>>> Total CPU  time used in CCEQ_SOLV:   0.02 seconds
 >>>> Total wall time used in CCEQ_SOLV:   0.02 seconds


 >>>>>>>>>>>>>>>>>>>>> <<<<<<<<<<<<<<<<<<<<<



  Final eigenvalues :
 =====================
 (convergence threshold:  1.00D-10)

    1   0.3996535662


 SYMMETRY CLASS NR.    3
 MULTIPLICITY          1


 CCS        right excitation energies:
 ====================================
 (conversion factor used: 1 au = 27.2113957 eV)

 Excitation no.       Hartree               eV 
 --------------       -------               --
         1            0.3996535662       10.8751267402


 Total excited state energies for states of symmetry/spin    3    1
 Excitation no.       Energy (Hartree) 
 ------------------------------------- 
@@    3    1           -76.426122053192856


 Analysis of the Coupled Cluster Excitation Vector Number :  1
 -------------------------------------------------------------

          Excitation Energy :                            10.8751 eV

          Norm of Total Amplitude Vector :               1.0000


 +=============================================================================+
 | symmetry|  orbital index  |   Excitation Numbers             |   Amplitude  |
 |  Index  |   a   b   i   j |      NAI      NBJ |     NAIBJ    |              |
 +=============================================================================+
 | 1   3   |   1       1     |       11          |              |    0.986339  |
 +=============================================================================+


          Norm of Printed Amplitude Vector :             0.9863

          Printed all single excitations greater than 0.500000


 *******************************************************************************

 --------------------------
 Symmetry class Nr.:     3
 Multiplicity      :     3
 --------------------------

 Length of Excitation vectors in this class is:        25
 Converging for  2 roots.
  >> output from FNDMN3 <<
  NUMBER OF ELEMENTS OBTAINED IN FNDMN3            5
  MIN AND MAX IN SELECTED SUPSPACE   0.62923695412801539        1.3662696265186332     
 Start vector guessed from diagonal
 ... selected element no. 11
 Start vector guessed from diagonal
 ... selected element no. 12



 >>>>> COUPLED CLUSTER RESPONSE SOLVER <<<<<

    Iter  #Vectors  time (min)   residual
    --------------------------------------

 REDUCED EIGENVALUES real part:

               Column   1
       1       0.39757776
       2       0.56701528
    ==== End of matrix output ====
      1       2         0.00     0.83E-01

 REDUCED EIGENVALUES real part:

               Column   1
       1       0.38995661
       2       0.55989248
    ==== End of matrix output ====
      2       2         0.00     0.19E-01

 REDUCED EIGENVALUES real part:

               Column   1
       1       0.38971480
       2       0.55930673
    ==== End of matrix output ====
      3       2         0.00     0.18E-01

 REDUCED EIGENVALUES real part:

               Column   1
       1       0.38963935
       2       0.55841535
    ==== End of matrix output ====
      4       2         0.00     0.35E-01

 REDUCED EIGENVALUES real part:

               Column   1
       1       0.38963438
       2       0.55790712
    ==== End of matrix output ====
      5       2         0.00     0.21E-01

 REDUCED EIGENVALUES real part:

               Column   1
       1       0.38963398
       2       0.55775394
    ==== End of matrix output ====
      6       2         0.00     0.58E-02

 REDUCED EIGENVALUES real part:

               Column   1
       1       0.38963396
       2       0.55773891
    ==== End of matrix output ====
      7       2         0.00     0.10E-02

 REDUCED EIGENVALUES real part:

               Column   1
       1       0.38963396
       2       0.55773846
    ==== End of matrix output ====
      8       2         0.00     0.38E-03

 REDUCED EIGENVALUES real part:

               Column   1
       1       0.38963396
       2       0.55773843
    ==== End of matrix output ====
      9       2         0.00     0.25E-04

 REDUCED EIGENVALUES real part:

               Column   1
       1       0.38963396
       2       0.55773843
    ==== End of matrix output ====
     10       2         0.00     0.24E-05

 REDUCED EIGENVALUES real part:

               Column   1
       1       0.38963396
       2       0.55773843
    ==== End of matrix output ====
     11       2         0.00     0.86E-07

 REDUCED EIGENVALUES real part:

               Column   1
       1       0.38963396
       2       0.55773843
    ==== End of matrix output ====
     12       2         0.00     0.27E-13
    --------------------------------------
    converged in 12 iterations
    threshold:    0.10E-09


         Routine          Time (min)
         ---------------------------
         CC_TRDRV            0.00
         CCRED               0.00
         CCNEX               0.00
         ---------------------------
         Total time          0.00


 >>>> Total CPU  time used in CCEQ_SOLV:   0.04 seconds
 >>>> Total wall time used in CCEQ_SOLV:   0.04 seconds


 >>>>>>>>>>>>>>>>>>>>> <<<<<<<<<<<<<<<<<<<<<



  Final eigenvalues :
 =====================
 (convergence threshold:  1.00D-10)

    1   0.3896339626
    2   0.5577384304


 SYMMETRY CLASS NR.    3
 MULTIPLICITY          3


 CCS        right excitation energies:
 ====================================
 (conversion factor used: 1 au = 27.2113957 eV)

 Excitation no.       Hartree               eV 
 --------------       -------               --
         1            0.3896339626       10.6024794570
         2            0.5577384304       15.1768347171


 Total excited state energies for states of symmetry/spin    3    3
 Excitation no.       Energy (Hartree) 
 ------------------------------------- 
@@    3    1           -76.436141656792643
@@    3    2           -76.268037189015217


 Analysis of the Coupled Cluster Excitation Vector Number :  1
 -------------------------------------------------------------

          Excitation Energy :                            10.6025 eV

     Norm of Total Amplitude Vector :          1.0000


 +=============================================================================+
 | symmetry|  orbital index  |   Excitation Numbers             |   Amplitude  |
 |  Index  |   a   b   i   j |      NAI      NBJ |     NAIBJ    |              |
 +=============================================================================+
 | 1   3   |   1       1     |       11          |              |    0.977736  |
 +=============================================================================+


          Norm of Printed Amplitude Vector :             0.9777


          Printed all single excitations greater than 0.500000


 Analysis of the Coupled Cluster Excitation Vector Number :  2
 -------------------------------------------------------------

          Excitation Energy :                            15.1768 eV

     Norm of Total Amplitude Vector :          1.0000


 +=============================================================================+
 | symmetry|  orbital index  |   Excitation Numbers             |   Amplitude  |
 |  Index  |   a   b   i   j |      NAI      NBJ |     NAIBJ    |              |
 +=============================================================================+
 | 1   3   |   2       1     |       12          |              |    0.926579  |
 +=============================================================================+


          Norm of Printed Amplitude Vector :             0.9266


          Printed all single excitations greater than 0.500000


 *******************************************************************************

 --------------------------
 Symmetry class Nr.:     4
 Multiplicity      :     1
 --------------------------

 Length of Excitation vectors in this class is:        11
 Converging for  2 roots.
  >> output from FNDMN3 <<
  NUMBER OF ELEMENTS OBTAINED IN FNDMN3            5
  MIN AND MAX IN SELECTED SUPSPACE    1.0669445766068029        1.9282819578321118     
 Start vector guessed from diagonal
 ... selected element no.  4
 Start vector guessed from diagonal
 ... selected element no.  7



 >>>>> COUPLED CLUSTER RESPONSE SOLVER <<<<<

    Iter  #Vectors  time (min)   residual
    --------------------------------------

 REDUCED EIGENVALUES real part:

               Column   1
       1       0.70713325
       2       0.70846406
    ==== End of matrix output ====
      1       2         0.00     0.90E-02

 REDUCED EIGENVALUES real part:

               Column   1
       1       0.70698918
       2       0.70835436
    ==== End of matrix output ====
      2       2         0.00     0.37E-02

 REDUCED EIGENVALUES real part:

               Column   1
       1       0.70698915
       2       0.70835282
    ==== End of matrix output ====
      3       2         0.00     0.36E-03

 REDUCED EIGENVALUES real part:

               Column   1
       1       0.70698915
       2       0.70835276
    ==== End of matrix output ====
      4       1         0.00     0.19E-04

 REDUCED EIGENVALUES real part:

               Column   1
       1       0.70698915
       2       0.70835276
    ==== End of matrix output ====
      5       1         0.00     0.56E-05

 REDUCED EIGENVALUES real part:

               Column   1
       1       0.70698915
       2       0.70835276
    ==== End of matrix output ====
      6       1         0.00     0.68E-06

 REDUCED EIGENVALUES real part:

               Column   1
       1       0.70698915
       2       0.70835276
    ==== End of matrix output ====
      7       1         0.00     0.14E-07

 REDUCED EIGENVALUES real part:

               Column   1
       1       0.70698915
       2       0.70835276
    ==== End of matrix output ====
      8       1         0.00     0.33E-14
    --------------------------------------
    converged in  8 iterations
    threshold:    0.10E-09


         Routine          Time (min)
         ---------------------------
         CC_TRDRV            0.00
         CCRED               0.00
         CCNEX               0.00
         ---------------------------
         Total time          0.00


 >>>> Total CPU  time used in CCEQ_SOLV:   0.02 seconds
 >>>> Total wall time used in CCEQ_SOLV:   0.02 seconds


 >>>>>>>>>>>>>>>>>>>>> <<<<<<<<<<<<<<<<<<<<<



  Final eigenvalues :
 =====================
 (convergence threshold:  1.00D-10)

    1   0.7069891500
    2   0.7083527571


 SYMMETRY CLASS NR.    4
 MULTIPLICITY          1


 CCS        right excitation energies:
 ====================================
 (conversion factor used: 1 au = 27.2113957 eV)

 Excitation no.       Hartree               eV 
 --------------       -------               --
         1            0.7069891500       19.2381533925
         2            0.7083527571       19.2752590298


 Total excited state energies for states of symmetry/spin    4    1
 Excitation no.       Energy (Hartree) 
 ------------------------------------- 
@@    4    1           -76.118786469388169
@@    4    2           -76.117422862266650


 Analysis of the Coupled Cluster Excitation Vector Number :  1
 -------------------------------------------------------------

          Excitation Energy :                            19.2382 eV

          Norm of Total Amplitude Vector :               1.0000


 +=============================================================================+
 | symmetry|  orbital index  |   Excitation Numbers             |   Amplitude  |
 |  Index  |   a   b   i   j |      NAI      NBJ |     NAIBJ    |              |
 +=============================================================================+
[...]
 +-----------------------------------------------------------------------------+
 | ^3B2u |    1   |     0.3896340  |      10.60248  |     85514.770  | 100.00  |
 | ^3B2u |    2   |     0.5577384  |      15.17683  |    122409.435  | 100.00  |
 +-----------------------------------------------------------------------------+
 | ^1B1g |    1   |     0.7069891  |      19.23815  |    155166.182  | 100.00  |
 | ^1B1g |    2   |     0.7083528  |      19.27526  |    155465.459  | 100.00  |
 +-----------------------------------------------------------------------------+
 | ^3B1g |    1   |     0.6793963  |      18.48731  |    149110.243  | 100.00  |
 | ^3B1g |    2   |     0.7069891  |      19.23815  |    155166.182  | 100.00  |
 +-----------------------------------------------------------------------------+
 | ^1B1u |    1   |     0.2530961  |       6.88710  |     55548.172  | 100.00  |
 +-----------------------------------------------------------------------------+
 | ^3B1u |    1   |     0.1691706  |       4.60337  |     37128.660  | 100.00  |
 | ^3B1u |    2   |     0.2057069  |       5.59757  |     45147.452  | 100.00  |
 +-----------------------------------------------------------------------------+
 | ^1B2g |    1   |     0.3720807  |      10.12483  |     81662.283  | 100.00  |
 | ^1B2g |    2   |     0.5181810  |      14.10042  |    113727.574  | 100.00  |
 +-----------------------------------------------------------------------------+
 | ^3B2g |    1   |     0.3460740  |       9.41715  |     75954.465  | 100.00  |
 | ^3B2g |    2   |     0.4807413  |      13.08164  |    105510.511  | 100.00  |
 | ^3B2g |    3   |     0.5609085  |      15.26310  |    123105.178  | 100.00  |
 | ^3B2g |    4   |     0.7940357  |      21.60681  |    174270.686  | 100.00  |
 +-----------------------------------------------------------------------------+
 | ^1Au  |    1   |     0.2387940  |       6.49791  |     52409.218  | 100.00  |
 +-----------------------------------------------------------------------------+
 | ^3Au  |    1   |     0.2057069  |       5.59757  |     45147.452  | 100.00  |
 | ^3Au  |    2   |     0.2387940  |       6.49791  |     52409.218  | 100.00  |
 +=============================================================================+
                                                                                
                                                                                
     Total energies in Hartree:                                                 
             1 ^1Ag       -76.1976184412                                        
             1 ^3Ag       -76.3034060553                                        
             2 ^3Ag       -76.1818846301                                        
             1 ^1B3u      -76.4261220532                                        
             2 ^1B3u      -76.2243357643                                        
             1 ^3B3u      -76.4361416568                                        
             2 ^3B3u      -76.2680371890                                        
             3 ^3B3u      -76.2484028052                                        
             4 ^3B3u      -75.8698657301                                        
             1 ^1B2u      -76.4261220532                                        
             1 ^3B2u      -76.4361416568                                        
             2 ^3B2u      -76.2680371890                                        
             1 ^1B1g      -76.1187864694                                        
             2 ^1B1g      -76.1174228623                                        
             1 ^3B1g      -76.1463793566                                        
             2 ^3B1g      -76.1187864694                                        
             1 ^1B1u      -76.5726795224                                        
             1 ^3B1u      -76.6566049941                                        
             2 ^3B1u      -76.6200686884                                        
             1 ^1B2g      -76.4536948750                                        
             2 ^1B2g      -76.3075946596                                        
             1 ^3B2g      -76.4797016111                                        
             2 ^3B2g      -76.3450343560                                        
             3 ^3B2g      -76.2648671521                                        
             4 ^3B2g      -76.0317399431                                        
             1 ^1Au       -76.5869816482                                        
             1 ^3Au       -76.6200686884                                        
             2 ^3Au       -76.5869816482                                        
                                                                                
                                                                                
            Total SCF   energy:                   -76.8257756194                
            Total MP2   energy:                   -77.0858348071                
            Total CC2   energy:                   -77.0893601123                
                                                                                
                                                                                
 +=============================================================================+
 |  sym. | Exci.  |        CC2        Excitation energies            | ||T1||  |
 |(spin, |        +------------------------------------------------------------+
 | spat) |        |     Hartree    |       eV.      |     cm-1       |    %    |
 +=============================================================================+
 | ^1Ag  |    1   |     0.5991325  |      16.30323  |    131494.391  |  95.79  |
 +-----------------------------------------------------------------------------+
 | ^3Ag  |    1   |     0.5250661  |      14.28778  |    115238.696  |  99.30  |
 | ^3Ag  |    2   |     0.6301654  |      17.14767  |    138305.319  |  96.60  |
 +-----------------------------------------------------------------------------+
 | ^1B3u |    1   |     0.3959486  |      10.77431  |     86900.664  |  96.31  |
 | ^1B3u |    2   |     0.5992514  |      16.30646  |    131520.475  |  94.65  |
 +-----------------------------------------------------------------------------+
 | ^3B3u |    1   |     0.3898787  |      10.60914  |     85568.490  |  98.74  |
 | ^3B3u |    2   |     0.5524462  |      15.03282  |    121247.914  |  98.52  |
 | ^3B3u |    3   |     0.5943505  |      16.17310  |    130444.866  |  99.34  |
 | ^3B3u |    4   |     0.9323860  |      25.37151  |    204635.077  |  98.51  |
 +-----------------------------------------------------------------------------+
 | ^1B2u |    1   |     0.3959486  |      10.77431  |     86900.664  |  96.31  |
 +-----------------------------------------------------------------------------+
 | ^3B2u |    1   |     0.3898787  |      10.60914  |     85568.490  |  98.74  |
 | ^3B2u |    2   |     0.5524462  |      15.03282  |    121247.914  |  98.52  |
 +-----------------------------------------------------------------------------+
 | ^1B1g |    1   |     0.7295928  |      19.85323  |    160127.115  |  97.01  |
 | ^1B1g |    2   |     0.7325114  |      19.93265  |    160767.672  |  97.38  |
 +-----------------------------------------------------------------------------+
 | ^3B1g |    1   |     0.7104101  |      19.33124  |    155916.985  |  99.29  |
 | ^3B1g |    2   |     0.7321474  |      19.92274  |    160687.777  |  99.14  |
 +-----------------------------------------------------------------------------+
 | ^1B1u |    1   |     0.2974899  |       8.09511  |     65291.480  |  98.08  |
 +-----------------------------------------------------------------------------+
 | ^3B1u |    1   |     0.2149400  |       5.84882  |     47173.884  |  99.54  |
 | ^3B1u |    2   |     0.2522318  |       6.86358  |     55358.482  |  99.47  |
 +-----------------------------------------------------------------------------+
 | ^1B2g |    1   |     0.3680126  |      10.01413  |     80769.439  |  96.29  |
 | ^1B2g |    2   |     0.5005221  |      13.61990  |    109851.902  |  96.00  |
 +-----------------------------------------------------------------------------+
 | ^3B2g |    1   |     0.3505919  |       9.54009  |     76946.032  |  98.86  |
 | ^3B2g |    2   |     0.4767352  |      12.97262  |    104631.275  |  98.82  |
 | ^3B2g |    3   |     0.5734591  |      15.60461  |    125859.716  |  99.04  |
 | ^3B2g |    4   |     0.7645158  |      20.80353  |    167791.833  |  98.55  |
 +-----------------------------------------------------------------------------+
 | ^1Au  |    1   |     0.2825553  |       7.68872  |     62013.717  |  98.26  |
 +-----------------------------------------------------------------------------+
 | ^3Au  |    1   |     0.2522318  |       6.86358  |     55358.482  |  99.47  |
 | ^3Au  |    2   |     0.2820150  |       7.67402  |     61895.131  |  99.37  |
 +=============================================================================+
                                                                                
                                                                                
     Total energies in Hartree:                                                 
             1 ^1Ag       -76.4902275765                                        
             1 ^3Ag       -76.5642939752                                        
             2 ^3Ag       -76.4591947057                                        
             1 ^1B3u      -76.6934115491                                        
             2 ^1B3u      -76.4901087297                                        
             1 ^3B3u      -76.6994813823                                        
             2 ^3B3u      -76.5369139620                                        
             3 ^3B3u      -76.4950095650                                        
             4 ^3B3u      -76.1569740898                                        
             1 ^1B2u      -76.6934115491                                        
             1 ^3B2u      -76.6994813823                                        
             2 ^3B2u      -76.5369139620                                        
             1 ^1B1g      -76.3597672867                                        
             2 ^1B1g      -76.3568486952                                        
             1 ^3B1g      -76.3789500488                                        
             2 ^3B1g      -76.3572127211                                        
             1 ^1B1u      -76.7918702390                                        
             1 ^3B1u      -76.8744200816                                        
             2 ^3B1u      -76.8371283079                                        
             1 ^1B2g      -76.7213474656                                        
             2 ^1B2g      -76.5888380149                                        
             1 ^3B2g      -76.7387681924                                        
             2 ^3B2g      -76.6126249398                                        
             3 ^3B2g      -76.5159010480                                        
             4 ^3B2g      -76.3248442626                                        
             1 ^1Au       -76.8068048261                                        
             1 ^3Au       -76.8371283079                                        
             2 ^3Au       -76.8073451435                                        
                                                                                
                                                                                
            Total SCF   energy:                   -76.8257756194                
            Total RSTAR energy:                   -77.0893601123                
            Total CCSD  energy:                   -77.1025306435                
                                                                                
                                                                                
 +=============================================================================+
 |  sym. | Exci.  |        CCSD       Excitation energies            | ||T1||  |
 |(spin, |        +------------------------------------------------------------+
 | spat) |        |     Hartree    |       eV.      |     cm-1       |    %    |
 +=============================================================================+
 | ^1Ag  |    1   |     0.5573916  |      15.16740  |    122333.322  |   2.01  |
 +-----------------------------------------------------------------------------+
 | ^3Ag  |    1   |     0.5235805  |      14.24735  |    114912.646  |  98.93  |
 | ^3Ag  |    2   |     0.6446716  |      17.54241  |    141489.067  |  96.78  |
 +-----------------------------------------------------------------------------+
 | ^1B3u |    1   |     0.3929468  |      10.69263  |     86241.857  |  94.92  |
 | ^1B3u |    2   |     0.5840040  |      15.89156  |    128174.067  |  88.61  |
 +-----------------------------------------------------------------------------+
 | ^3B3u |    1   |     0.3874977  |      10.54435  |     85045.922  |  98.53  |
 | ^3B3u |    2   |     0.5436939  |      14.79466  |    119327.019  |  97.54  |
 | ^3B3u |    3   |     0.5887121  |      16.01967  |    129207.360  |  98.99  |
 | ^3B3u |    4   |     0.7148328  |      19.45159  |    156887.654  |   0.94  |
 +-----------------------------------------------------------------------------+
 | ^1B2u |    1   |     0.3929468  |      10.69263  |     86241.857  |  94.92  |
 +-----------------------------------------------------------------------------+
 | ^3B2u |    1   |     0.3874977  |      10.54435  |     85045.922  |  98.53  |
 | ^3B2u |    2   |     0.5436939  |      14.79466  |    119327.019  |  97.54  |
 +-----------------------------------------------------------------------------+
 | ^1B1g |    1   |     0.6807334  |      18.52370  |    149403.713  |  34.71  |
 | ^1B1g |    2   |     0.6963937  |      18.94984  |    152840.748  |   2.03  |
 +-----------------------------------------------------------------------------+
 | ^3B1g |    1   |     0.5669980  |      15.42880  |    124441.665  |   0.85  |
 | ^3B1g |    2   |     0.6128698  |      16.67703  |    134509.367  |   3.11  |
 +-----------------------------------------------------------------------------+
 | ^1B1u |    1   |     0.2947256  |       8.01989  |     64684.787  |  97.23  |
 +-----------------------------------------------------------------------------+
 | ^3B1u |    1   |     0.2044196  |       5.56254  |     44864.917  |  99.41  |
 | ^3B1u |    2   |     0.2473476  |       6.73067  |     54286.522  |  99.30  |
 +-----------------------------------------------------------------------------+
 | ^1B2g |    1   |     0.3638935  |       9.90205  |     79865.389  |  94.74  |
 | ^1B2g |    2   |     0.4971142  |      13.52716  |    109103.950  |  94.37  |
 +-----------------------------------------------------------------------------+
 | ^3B2g |    1   |     0.3476942  |       9.46124  |     76310.058  |  98.63  |
 | ^3B2g |    2   |     0.4730839  |      12.87327  |    103829.903  |  98.48  |
 | ^3B2g |    3   |     0.5673053  |      15.43716  |    124509.131  |  98.69  |
 | ^3B2g |    4   |     0.7362316  |      20.03388  |    161584.156  |  95.05  |
 +-----------------------------------------------------------------------------+
 | ^1Au  |    1   |     0.2808472  |       7.64224  |     61638.831  |  97.58  |
 +-----------------------------------------------------------------------------+
 | ^3Au  |    1   |     0.2473476  |       6.73067  |     54286.522  |  99.30  |
 | ^3Au  |    2   |     0.2769328  |       7.53572  |     60779.713  |  99.14  |
 +=============================================================================+
                                                                                
                                                                                
     Total energies in Hartree:                                                 
             1 ^1Ag       -76.5451390122                                        
             1 ^3Ag       -76.5789500988                                        
             2 ^3Ag       -76.4578590117                                        
             1 ^1B3u      -76.7095838273                                        
             2 ^1B3u      -76.5185266198                                        
             1 ^3B3u      -76.7150329078                                        
             2 ^3B3u      -76.5588367349                                        
             3 ^3B3u      -76.5138185873                                        
             4 ^3B3u      -76.3876978872                                        
             1 ^1B2u      -76.7095838273                                        
             1 ^3B2u      -76.7150329078                                        
             2 ^3B2u      -76.5588367349                                        
             1 ^1B1g      -76.4217972329                                        
             2 ^1B1g      -76.4061369488                                        
             1 ^3B1g      -76.5355326921                                        
             2 ^3B1g      -76.4896608670                                        
             1 ^1B1u      -76.8078050648                                        
             1 ^3B1u      -76.8981110380                                        
             2 ^3B1u      -76.8551830462                                        
             1 ^1B2g      -76.7386371520                                        
             2 ^1B2g      -76.6054164644                                        
             1 ^3B2g      -76.7548364350                                        
             2 ^3B2g      -76.6294467903                                        
             3 ^3B2g      -76.5352252971                                        
             4 ^3B2g      -76.3662990483                                        
             1 ^1Au       -76.8216834637                                        
             1 ^3Au       -76.8551830462                                        
             2 ^3Au       -76.8255978905                                        

  1 a.u. =        27.21138 eV.  
  1 a.u. =    219474.62934 cm-1.
  

 *******************************************************************************
 *******************************************************************************
 *                                                                             *
 *                                                                             *
 *                      END OF COUPLED CLUSTER CALCULATION                     *
 *                                                                             *
 *                                                                             *
 *******************************************************************************
 *******************************************************************************


 >>>> CPU and wall time for CC :      25.024      32.920

 
     Date and time (Linux)  : Sun Sep  8 20:44:28 2013
     Host name              : lpqlx131.ups-tlse.fr                    


                      .-------------------------------------.
                      | End of Coupled Cluster Section (CC) |
                      `-------------------------------------'

 >>>> Total CPU  time used in DALTON:  25.11 seconds
 >>>> Total wall time used in DALTON:  33.02 seconds

 
     Date and time (Linux)  : Sun Sep  8 20:44:28 2013
     Host name              : lpqlx131.ups-tlse.fr                    
