

     ************************************************************************
     *************** Dalton - An Electronic Structure Program ***************
     ************************************************************************

    This is output from DALTON release Dalton2017.alpha (2017)
         ( Web site: http://daltonprogram.org )

   ----------------------------------------------------------------------------

    NOTE:
     
    Dalton is an experimental code for the evaluation of molecular
    properties using (MC)SCF, DFT, CI, and CC wave functions.
    The authors accept no responsibility for the performance of
    the code or for the correctness of the results.
     
    The code (in whole or part) is provided under a licence and
    is not to be reproduced for further distribution without
    the written permission of the authors or their representatives.
     
    See the home page "http://daltonprogram.org" for further information.
     
    If results obtained with this code are published,
    the appropriate citations would be both of:
     
       K. Aidas, C. Angeli, K. L. Bak, V. Bakken, R. Bast,
       L. Boman, O. Christiansen, R. Cimiraglia, S. Coriani,
       P. Dahle, E. K. Dalskov, U. Ekstroem,
       T. Enevoldsen, J. J. Eriksen, P. Ettenhuber, B. Fernandez,
       L. Ferrighi, H. Fliegl, L. Frediani, K. Hald, A. Halkier,
       C. Haettig, H. Heiberg, T. Helgaker, A. C. Hennum,
       H. Hettema, E. Hjertenaes, S. Hoest, I.-M. Hoeyvik,
       M. F. Iozzi, B. Jansik, H. J. Aa. Jensen, D. Jonsson,
       P. Joergensen, J. Kauczor, S. Kirpekar,
       T. Kjaergaard, W. Klopper, S. Knecht, R. Kobayashi, H. Koch,
       J. Kongsted, A. Krapp, K. Kristensen, A. Ligabue,
       O. B. Lutnaes, J. I. Melo, K. V. Mikkelsen, R. H. Myhre,
       C. Neiss, C. B. Nielsen, P. Norman, J. Olsen,
       J. M. H. Olsen, A. Osted, M. J. Packer, F. Pawlowski,
       T. B. Pedersen, P. F. Provasi, S. Reine, Z. Rinkevicius,
       T. A. Ruden, K. Ruud, V. Rybkin, P. Salek, C. C. M. Samson,
       A. Sanchez de Meras, T. Saue, S. P. A. Sauer,
       B. Schimmelpfennig, K. Sneskov, A. H. Steindal,
       K. O. Sylvester-Hvid, P. R. Taylor, A. M. Teale,
       E. I. Tellgren, D. P. Tew, A. J. Thorvaldsen, L. Thoegersen,
       O. Vahtras, M. A. Watson, D. J. D. Wilson, M. Ziolkowski
       and H. Agren,
       "The Dalton quantum chemistry program system",
       WIREs Comput. Mol. Sci. 2014, 4:269–284 (doi: 10.1002/wcms.1172)
     
    and
     
       Dalton, a Molecular Electronic Structure Program,
       Release Dalton2017.alpha (2017), see http://daltonprogram.org
   ----------------------------------------------------------------------------

    Authors in alphabetical order (major contribution(s) in parenthesis):

  Kestutis Aidas,           Vilnius University,           Lithuania   (QM/MM)
  Celestino Angeli,         University of Ferrara,        Italy       (NEVPT2)
  Keld L. Bak,              UNI-C,                        Denmark     (AOSOPPA, non-adiabatic coupling, magnetic properties)
  Vebjoern Bakken,          University of Oslo,           Norway      (DALTON; geometry optimizer, symmetry detection)
  Radovan Bast,             UiT The Arctic U. of Norway,  Norway      (DALTON installation and execution frameworks)
  Pablo Baudin,             University of Valencia,       Spain       (Cholesky excitation energies)
  Linus Boman,              NTNU,                         Norway      (Cholesky decomposition and subsystems)
  Ove Christiansen,         Aarhus University,            Denmark     (CC module)
  Renzo Cimiraglia,         University of Ferrara,        Italy       (NEVPT2)
  Sonia Coriani,            University of Trieste,        Italy       (CC module, MCD in RESPONS)
  Janusz Cukras,            University of Trieste,        Italy       (MChD in RESPONS)
  Paal Dahle,               University of Oslo,           Norway      (Parallelization)
  Erik K. Dalskov,          UNI-C,                        Denmark     (SOPPA)
  Thomas Enevoldsen,        Univ. of Southern Denmark,    Denmark     (SOPPA)
  Janus J. Eriksen,         Aarhus University,            Denmark     (Polarizable embedding model, TDA)
  Rasmus Faber,             University of Copenhagen,     Denmark     (Vib.avg. NMR with SOPPA, parallel AO-SOPPA)
  Berta Fernandez,          U. of Santiago de Compostela, Spain       (doublet spin, ESR in RESPONS)
  Lara Ferrighi,            Aarhus University,            Denmark     (PCM Cubic response)
  Heike Fliegl,             University of Oslo,           Norway      (CCSD(R12))
  Luca Frediani,            UiT The Arctic U. of Norway,  Norway      (PCM)
  Bin Gao,                  UiT The Arctic U. of Norway,  Norway      (Gen1Int library)
  Christof Haettig,         Ruhr-University Bochum,       Germany     (CC module)
  Kasper Hald,              Aarhus University,            Denmark     (CC module)
  Asger Halkier,            Aarhus University,            Denmark     (CC module)
  Frederik Beyer Hansen,    University of Copenhagen,     Denmark     (Parallel AO-SOPPA)
  Erik D. Hedegaard,        Univ. of Southern Denmark,    Denmark     (Polarizable embedding model, QM/MM)
  Hanne Heiberg,            University of Oslo,           Norway      (geometry analysis, selected one-electron integrals)
  Trygve Helgaker,          University of Oslo,           Norway      (DALTON; ABACUS, ERI, DFT modules, London, and much more)
  Alf Christian Hennum,     University of Oslo,           Norway      (Parity violation)
  Hinne Hettema,            University of Auckland,       New Zealand (quadratic response in RESPONS; SIRIUS supersymmetry)
  Eirik Hjertenaes,         NTNU,                         Norway      (Cholesky decomposition)
  Pi A. B. Haase,           University of Copenhagen,     Denmark     (Triplet AO-SOPPA)
  Maria Francesca Iozzi,    University of Oslo,           Norway      (RPA)
  Brano Jansik              Technical Univ. of Ostrava    Czech Rep.  (DFT cubic response)
  Hans Joergen Aa. Jensen,  Univ. of Southern Denmark,    Denmark     (DALTON; SIRIUS, RESPONS, ABACUS modules, London, and much more)
  Dan Jonsson,              UiT The Arctic U. of Norway,  Norway      (cubic response in RESPONS module)
  Poul Joergensen,          Aarhus University,            Denmark     (RESPONS, ABACUS, and CC modules)
  Maciej Kaminski,          University of Warsaw,         Poland      (CPPh in RESPONS)
  Joanna Kauczor,           Linkoeping University,        Sweden      (Complex polarization propagator (CPP) module)
  Sheela Kirpekar,          Univ. of Southern Denmark,    Denmark     (Mass-velocity & Darwin integrals)
  Wim Klopper,              KIT Karlsruhe,                Germany     (R12 code in CC, SIRIUS, and ABACUS modules)
  Stefan Knecht,            ETH Zurich,                   Switzerland (Parallel CI and MCSCF)
  Rika Kobayashi,           Australian National Univ.,    Australia   (DIIS in CC, London in MCSCF)
  Henrik Koch,              NTNU,                         Norway      (CC module, Cholesky decomposition)
  Jacob Kongsted,           Univ. of Southern Denmark,    Denmark     (Polarizable embedding model, QM/MM)
  Andrea Ligabue,           University of Modena,         Italy       (CTOCD, AOSOPPA)
  Nanna H. List             Univ. of Southern Denmark,    Denmark     (Polarizable embedding model)
  Ola B. Lutnaes,           University of Oslo,           Norway      (DFT Hessian)
  Juan I. Melo,             University of Buenos Aires,   Argentina   (LRESC, Relativistic Effects on NMR Shieldings)
  Kurt V. Mikkelsen,        University of Copenhagen,     Denmark     (MC-SCRF and QM/MM)
  Rolf H. Myhre,            NTNU,                         Norway      (Cholesky, subsystems and ECC2)
  Christian Neiss,          Univ. Erlangen-Nuernberg,     Germany     (CCSD(R12))
  Christian B. Nielsen,     University of Copenhagen,     Denmark     (QM/MM)
  Patrick Norman,           Linkoeping University,        Sweden      (Cubic response and complex frequency response in RESPONS)
  Jeppe Olsen,              Aarhus University,            Denmark     (SIRIUS CI/density modules)
  Jogvan Magnus H. Olsen,   Univ. of Southern Denmark,    Denmark     (Polarizable embedding model, QM/MM)
  Anders Osted,             Copenhagen University,        Denmark     (QM/MM)
  Martin J. Packer,         University of Sheffield,      UK          (SOPPA)
  Filip Pawlowski,          Kazimierz Wielki University,  Poland      (CC3)
  Morten N. Pedersen,       Univ. of Southern Denmark,    Denmark     (Polarizable embedding model)
  Thomas B. Pedersen,       University of Oslo,           Norway      (Cholesky decomposition)
  Patricio F. Provasi,      University of Northeastern,   Argentina   (Analysis of coupling constants in localized orbitals)
  Zilvinas Rinkevicius,     KTH Stockholm,                Sweden      (open-shell DFT, ESR)
  Elias Rudberg,            KTH Stockholm,                Sweden      (DFT grid and basis info)
  Torgeir A. Ruden,         University of Oslo,           Norway      (Numerical derivatives in ABACUS)
  Kenneth Ruud,             UiT The Arctic U. of Norway,  Norway      (DALTON; ABACUS magnetic properties and much more)
  Pawel Salek,              KTH Stockholm,                Sweden      (DALTON; DFT code)
  Claire C. M. Samson       University of Karlsruhe       Germany     (Boys localization, r12 integrals in ERI)
  Alfredo Sanchez de Meras, University of Valencia,       Spain       (CC module, Cholesky decomposition)
  Trond Saue,               Paul Sabatier University,     France      (direct Fock matrix construction)
  Stephan P. A. Sauer,      University of Copenhagen,     Denmark     (SOPPA(CCSD), SOPPA prop., AOSOPPA, vibrational g-factors)
  Bernd Schimmelpfennig,    Forschungszentrum Karlsruhe,  Germany     (AMFI module)
  Kristian Sneskov,         Aarhus University,            Denmark     (Polarizable embedding model, QM/MM)
  Arnfinn H. Steindal,      UiT The Arctic U. of Norway,  Norway      (parallel QM/MM, Polarizable embedding model)
  Casper Steinmann,         Univ. of Southern Denmark,    Denmark     (QFIT, Polarizable embedding model)
  K. O. Sylvester-Hvid,     University of Copenhagen,     Denmark     (MC-SCRF)
  Peter R. Taylor,          VLSCI/Univ. of Melbourne,     Australia   (Symmetry handling ABACUS, integral transformation)
  Andrew M. Teale,          University of Nottingham,     England     (DFT-AC, DFT-D)
  David P. Tew,             University of Bristol,        England     (CCSD(R12))
  Olav Vahtras,             KTH Stockholm,                Sweden      (triplet response, spin-orbit, ESR, TDDFT, open-shell DFT)
  David J. Wilson,          La Trobe University,          Australia   (DFT Hessian and DFT magnetizabilities)
  Hans Agren,               KTH Stockholm,                Sweden      (SIRIUS module, RESPONS, MC-SCRF solvation model)
 --------------------------------------------------------------------------------

     Date and time (Linux)  : Tue Apr 24 14:09:58 2018
     Host name              : foeroyar                                

 * Work memory size             :    64000000 =  488.28 megabytes.

 * Directories for basis set searches:
   1) /home/magnus/Projects/dalton_devel/dalton-private/build/test/perohf_alpha
   2) /home/magnus/Projects/dalton_devel/dalton-private/build/basis


Compilation information
-----------------------

 Who compiled             | magnus
 Host                     | foeroyar
 System                   | Linux-4.15.15-300.fc27.x86_64
 CMake generator          | Unix Makefiles
 Processor                | x86_64
 64-bit integers          | OFF
 MPI                      | ON
 Fortran compiler         | /usr/lib64/mpich/bin/mpif90
 Fortran compiler version | GNU Fortran (GCC) 7.3.1 20180303 (Red Hat 7.3.1-5)
 C compiler               | /usr/lib64/mpich/bin/mpicc
 C compiler version       | gcc (GCC) 7.3.1 20180303 (Red Hat 7.3.1-5)
 C++ compiler             | /usr/lib64/mpich/bin/mpicxx
 C++ compiler version     | unknown
 BLAS                     | /home/magnus/Programs/intel/compilers_and_librarie
                          | s_2018.1.163/linux/mkl/lib/intel64/libmkl_gf_lp64.
                          | so;/home/magnus/Programs/intel/compilers_and_libra
                          | ries_2018.1.163/linux/mkl/lib/intel64/libmkl_seque
                          | ntial.so;/home/magnus/Programs/intel/compilers_and
                          | _libraries_2018.1.163/linux/mkl/lib/intel64/libmkl
                          | _core.so;/usr/lib64/libpthread.so;/usr/lib64/libm.
                          | so
 LAPACK                   | /home/magnus/Programs/intel/compilers_and_librarie
                          | s_2018.1.163/linux/mkl/lib/intel64/libmkl_lapack95
                          | _lp64.a;/home/magnus/Programs/intel/compilers_and_
                          | libraries_2018.1.163/linux/mkl/lib/intel64/libmkl_
                          | gf_lp64.so
 Static linking           | OFF
 Last Git revision        | 9055103dddfd9c6746ec240c40a8a01c46350288
 Git branch               | master
 Configuration time       | 2018-04-24 13:57:14.806869

 * Sequential calculation.


   Content of the .dal input file
 ----------------------------------

**DALTON
.RUN PROPERTIES
.DIRECT
.PEQM
*PEQM
.VERBOSE
**WAVE FUNCTIONS
.HF
*SCF INPUT
.DOUBLY OCCUPIED
7
.SINGLY OCCUPIED
1
**PROPERTIES
.ALPHA
*ABALNR
.FREQUENCY
2
0.0 0.04
**END OF


   Content of the .mol file
 ----------------------------

BASIS
STO-3G
Formaldehyde
------------------------
AtomTypes=3 NoSymmetry Angstrom
Charge=6.0 Atoms=1
C           -1.588367    -.770650     .029109
Charge=8.0 Atoms=1
O           -1.657083     .436069    -.009750
Charge=1.0 Atoms=2
H           -.620668   -1.294822      .054251
H           -2.508043   -1.382001     .040282


       *******************************************************************
       *********** Output from DALTON general input processing ***********
       *******************************************************************

 --------------------------------------------------------------------------------
   Overall default print level:    0
   Print level for DALTON.STAT:    1

    AO-direct calculation (in sections where implemented)
    HERMIT 1- and 2-electron integral sections will be executed
    "Old" integral transformation used (limited to max 255 basis functions)
    Wave function sections will be executed (SIRIUS module)
    Static molecular property section will be executed (ABACUS module)
    Environment is modeled using polarizable embedding scheme (PE library)
 --------------------------------------------------------------------------------


   ****************************************************************************
   *************** Output of molecule and basis set information ***************
   ****************************************************************************


    The two title cards from your ".mol" input:
    ------------------------------------------------------------------------
 1: Formaldehyde                                                            
 2: ------------------------                                                
    ------------------------------------------------------------------------

  Coordinates are entered in Angstrom and converted to atomic units.
          - Conversion factor : 1 bohr = 0.52917721 A

  Atomic type no.    1
  --------------------
  Nuclear charge:   6.00000
  Number of symmetry independent centers:    1
  Number of basis sets to read;    2
  Basis set file used for this atomic type with Z =   6 :
     "/home/magnus/Projects/dalton_devel/dalton-private/build/basis/STO-3G"

  Atomic type no.    2
  --------------------
  Nuclear charge:   8.00000
  Number of symmetry independent centers:    1
  Number of basis sets to read;    2
  Basis set file used for this atomic type with Z =   8 :
     "/home/magnus/Projects/dalton_devel/dalton-private/build/basis/STO-3G"

  Atomic type no.    3
  --------------------
  Nuclear charge:   1.00000
  Number of symmetry independent centers:    2
  Number of basis sets to read;    2
  Basis set file used for this atomic type with Z =   1 :
     "/home/magnus/Projects/dalton_devel/dalton-private/build/basis/STO-3G"


                         SYMGRP: Point group information
                         -------------------------------

@    Point group: C1 


                                 Isotopic Masses
                                 ---------------

                           C          12.000000
                           O          15.994915
                           H           1.007825
                           H           1.007825

                       Total mass:    30.010565 amu
                       Natural abundance:  98.633 %

 Center-of-mass coordinates (a.u.):   -3.067740   -0.312997    0.018175


  Atoms and basis sets
  --------------------

  Number of atom types :    3
  Total number of atoms:    4

  Basis set used is "STO-3G" from the basis set library.

  label    atoms   charge   prim   cont     basis
  ----------------------------------------------------------------------
  C           1    6.0000    15     5      [6s3p|2s1p]                                        
  O           1    8.0000    15     5      [6s3p|2s1p]                                        
  H           2    1.0000     3     1      [3s|1s]                                            
  ----------------------------------------------------------------------
  total:      4   16.0000    36    12
  ----------------------------------------------------------------------

  Threshold for neglecting AO integrals:  1.00D-12


  Cartesian Coordinates (a.u.)
  ----------------------------

  Total number of coordinates:   12
  C       :     1  x  -3.0015786160    2  y  -1.4563174382    3  z   0.0550080378
  O       :     4  x  -3.1314330364    5  y   0.8240509816    6  z  -0.0184248297
  H       :     7  x  -1.1728925345    8  y  -2.4468589606    9  z   0.1025195320
  H       :    10  x  -4.7395143797   11  y  -2.6116033945   12  z   0.0761219478


   Interatomic separations (in Angstrom):
   --------------------------------------

            C           O           H           H     
            ------      ------      ------      ------
 C     :    0.000000
 O     :    1.209298    0.000000
 H     :    1.100831    2.018474    0.000000
 H     :    1.104391    2.007988    1.889439    0.000000


  Max    interatomic separation is    2.0185 Angstrom (    3.8144 Bohr)
  between atoms    3 and    2, "H     " and "O     ".

  Min HX interatomic separation is    1.1008 Angstrom (    2.0803 Bohr)

  Min YX interatomic separation is    1.2093 Angstrom (    2.2852 Bohr)


  Bond distances (Angstrom):
  --------------------------

                  atom 1     atom 2       distance
                  ------     ------       --------
  bond distance:  O          C            1.209298
  bond distance:  H          C            1.100831
  bond distance:  H          C            1.104391


  Bond angles (degrees):
  ----------------------

                  atom 1     atom 2     atom 3         angle
                  ------     ------     ------         -----
  bond angle:     O          C          H            121.724
  bond angle:     O          C          H            120.357
  bond angle:     H          C          H            117.919




 Principal moments of inertia (u*A**2) and principal axes
 --------------------------------------------------------

   IA       1.798871         -0.056827    0.997867   -0.032124
   IB      13.009178          0.998345    0.057081    0.007042
   IC      14.808049         -0.008861    0.031671    0.999459


 Rotational constants
 --------------------

@    The molecule is planar.

               A                   B                   C

         280942.3015          38847.8806          34128.6681 MHz
            9.371226            1.295826            1.138410 cm-1


@  Nuclear repulsion energy :   31.249215315972 Hartree

  Reading potential input file for polarizable embedding calculation

    .------------------------------------------------.
    | Information from polarizable embedding library |
    `------------------------------------------------´

      Number of classical sites:      6

      Multipole moments upto 2nd order.

      Dipole-dipole polarizabilities.

      Iterative solver for induced moments will be used
      with convergence threshold: 1.0E-08
      Total charge of classical region:   -0.0000
 


                     .---------------------------------------.
                     | Starting in Integral Section (HERMIT) |
                     `---------------------------------------'



 ***************************************************************************************
 ****************** Output from **INTEGRALS input processing (HERMIT) ******************
 ***************************************************************************************


 - Using defaults, no **INTEGRALS input found

 Default print level:        1

 * Nuclear model: Point charge

 Calculation of one-electron Hamiltonian integrals.

 Center of mass  (bohr):     -3.067740315293     -0.312997395263      0.018174673399
 Operator center (bohr):      0.000000000000      0.000000000000      0.000000000000
 Gauge origin    (bohr):      0.000000000000      0.000000000000      0.000000000000
 Dipole origin   (bohr):      0.000000000000      0.000000000000      0.000000000000


     ************************************************************************
     ************************** Output from HERINT **************************
     ************************************************************************



                      Nuclear contribution to dipole moments
                      --------------------------------------

                 au               Debye          C m (/(10**-30)

      x    -48.97334290      -124.47781350      -415.21329231
      y     -7.20395913       -18.31063652       -61.07770905
      z      0.36129107         0.91831024         3.06315324


  Total CPU  time used in HERMIT:   0.02 seconds
  Total wall time used in HERMIT:   0.02 seconds


                        .----------------------------------.
                        | End of Integral Section (HERMIT) |
                        `----------------------------------'



                   .--------------------------------------------.
                   | Starting in Wave Function Section (SIRIUS) |
                   `--------------------------------------------'


 *** Output from Huckel module :

     Using EWMO model:          T
     Using EHT  model:          F
     Number of Huckel orbitals each symmetry:   12

 EWMO - Energy Weighted Maximum Overlap - is a Huckel type method,
        which normally is better than Extended Huckel Theory.
 Reference: Linderberg and Ohrn, Propagators in Quantum Chemistry (Wiley, 1973)

 Huckel EWMO eigenvalues for symmetry :  1
          -20.684762     -11.351957      -1.632119      -1.046130      -0.813248
           -0.702067      -0.605910      -0.491826      -0.321033      -0.161573
           -0.131670      -0.108806

 **********************************************************************
 *SIRIUS* a direct, restricted step, second order MCSCF program       *
 **********************************************************************

 
     Date and time (Linux)  : Tue Apr 24 14:09:58 2018
     Host name              : foeroyar                                

 Title lines from ".mol" input file:
     Formaldehyde                                                            
     ------------------------                                                

 Print level on unit LUPRI =   2 is   0
 Print level on unit LUW4  =   2 is   5

@    Restricted, high spin open shell Hartree-Fock calculation.
 Fock matrices are calculated directly without use of integrals on disk.

 Initial molecular orbitals are obtained according to
 ".MOSTART EWMO  " input option

@    QM part is embedded in an environment :

@         Model: PE

     Wave function specification
     ============================

     Wave function environment is modeled using the
     polarizable embedding model (PE library).

@    Wave function type        --- PE-HF ---
@    Number of closed shell electrons          14
@    Number of electrons in active shells       1
@    Total charge of the molecule               1

@    Spin multiplicity and 2 M_S                2         1
@    Total number of symmetries                 1 (point group: C1 )
@    Reference state symmetry                   1 (irrep name : A  )

     Orbital specifications
     ======================
@    Abelian symmetry species          All |    1
@                                          |  A  
                                       --- |  ---
@    Occupied SCF orbitals               7 |    7
@    Open shell SCF orbitals             1 |    1
@    Secondary orbitals                  4 |    4
@    Total number of orbitals           12 |   12
@    Number of basis functions          12 |   12

     Optimization information
     ========================
@    Number of configurations                 1
@    Number of orbital rotations             39
     ------------------------------------------
@    Total number of variables               40

     Maximum number of Fock   iterations      0
     Maximum number of DIIS   iterations     60
     Maximum number of QC-SCF iterations     60
     Threshold for SCF convergence     1.00D-05


 ***********************************************
 ***** DIIS acceleration of SCF iterations *****
 ***********************************************

 C1-DIIS algorithm; max error vectors =    8

 Iter      Total energy     Embedding energy      Error norm     Delta(E)
 -----------------------------------------------------------------------------
   1  Screening settings (-IFTHRS, JTDIIS, DIFDEN, times)   -6    1    F  1.83D-02  1.90D-02
      Induced dipole moments converged in  8 iterations.

      Info from polarizable embedding library:
     ------------------------------------------

       Input density no.:   1

                        Total induced dipole moment
                       X              Y              Z
                  0.22717718     0.55858080     0.00611581

@  1  -111.859491256     -2.141707944075E-02    1.53324D+00   -1.12D+02
      Virial theorem: -V/T =      2.018564
@    MULPOP   C       1.20; O      -0.23; H       0.01; H       0.02; 
   1  Level shift: doubly occupied orbital energies shifted by -2.00D-01
               and singly occupied orbital energies shifted by -1.00D-01
 -----------------------------------------------------------------------------
   2  Screening settings (-IFTHRS, JTDIIS, DIFDEN, times)   -6    2    F  1.65D-02  1.70D-02
      Induced dipole moments converged in  7 iterations.

      Info from polarizable embedding library:
     ------------------------------------------

       Input density no.:   1

                        Total induced dipole moment
                       X              Y              Z
                  0.37866734     0.50367348     0.00678625

@  2  -112.046048908     -7.168135204138E-03    7.06248D-01   -1.87D-01
      Virial theorem: -V/T =      2.024464
@    MULPOP   C      -0.02; O       0.50; H       0.28; H       0.24; 
   2  Level shift: doubly occupied orbital energies shifted by -1.00D-01
               and singly occupied orbital energies shifted by -5.00D-02
 -----------------------------------------------------------------------------
   3  Screening settings (-IFTHRS, JTDIIS, DIFDEN, times)   -7    3    F  1.62D-02  1.60D-02
      Induced dipole moments converged in  7 iterations.

      Info from polarizable embedding library:
     ------------------------------------------

       Input density no.:   1

                        Total induced dipole moment
                       X              Y              Z
                  0.32422404     0.53659140     0.00649273

@  3  -112.084817583     -1.501726077251E-02    1.34029D-01   -3.88D-02
      Virial theorem: -V/T =      2.020508
@    MULPOP   C       0.24; O       0.18; H       0.31; H       0.27; 
   3  Level shift: doubly occupied orbital energies shifted by -2.50D-02
               and singly occupied orbital energies shifted by -1.25D-02
 -----------------------------------------------------------------------------
   4  Screening settings (-IFTHRS, JTDIIS, DIFDEN, times)   -8    4    F  1.61D-02  1.70D-02
      Induced dipole moments converged in  6 iterations.

      Info from polarizable embedding library:
     ------------------------------------------

       Input density no.:   1

                        Total induced dipole moment
                       X              Y              Z
                  0.33047246     0.53492602     0.00637134

@  4  -112.091657584     -1.422936579993E-02    6.89358D-02   -6.84D-03
      Virial theorem: -V/T =      2.020015
@    MULPOP   C       0.22; O       0.19; H       0.32; H       0.27; 
   4  Level shift: doubly occupied orbital energies shifted by -2.50D-02
               and singly occupied orbital energies shifted by -1.25D-02
 -----------------------------------------------------------------------------
   5  Screening settings (-IFTHRS, JTDIIS, DIFDEN, times)   -8    5    F  1.60D-02  1.60D-02
      Induced dipole moments converged in  6 iterations.

      Info from polarizable embedding library:
     ------------------------------------------

       Input density no.:   1

                        Total induced dipole moment
                       X              Y              Z
                  0.32366091     0.53868781     0.00629956

@  5  -112.092616134     -1.511969293092E-02    2.36149D-02   -9.59D-04
      Virial theorem: -V/T =      2.019398
@    MULPOP   C       0.25; O       0.15; H       0.32; H       0.27; 
   5  Level shift: doubly occupied orbital energies shifted by -1.25D-02
               and singly occupied orbital energies shifted by -6.25D-03
 -----------------------------------------------------------------------------
   6  Screening settings (-IFTHRS, JTDIIS, DIFDEN, times)   -8    6    F  1.59D-02  1.60D-02
      Induced dipole moments converged in  5 iterations.

      Info from polarizable embedding library:
     ------------------------------------------

       Input density no.:   1

                        Total induced dipole moment
                       X              Y              Z
                  0.32328971     0.53869901     0.00629767

@  6  -112.092709182     -1.514429766630E-02    4.99561D-03   -9.30D-05
      Virial theorem: -V/T =      2.019352
@    MULPOP   C       0.25; O       0.16; H       0.32; H       0.27; 
 -----------------------------------------------------------------------------
   7  Screening settings (-IFTHRS, JTDIIS, DIFDEN, times)   -9    7    F  1.59D-02  1.60D-02
      Induced dipole moments converged in  5 iterations.

      Info from polarizable embedding library:
     ------------------------------------------

       Input density no.:   1

                        Total induced dipole moment
                       X              Y              Z
                  0.32316383     0.53867499     0.00630342

@  7  -112.092713052     -1.515822205975E-02    5.92526D-04   -3.87D-06
      Virial theorem: -V/T =      2.019352
@    MULPOP   C       0.25; O       0.16; H       0.32; H       0.27; 
 -----------------------------------------------------------------------------
   8  Screening settings (-IFTHRS, JTDIIS, DIFDEN, times)  -10    8    F  1.88D-02  1.80D-02
      Induced dipole moments converged in  4 iterations.

      Info from polarizable embedding library:
     ------------------------------------------

       Input density no.:   1

                        Total induced dipole moment
                       X              Y              Z
                  0.32315716     0.53866327     0.00630345

@  8  -112.092713153     -1.515630820633E-02    1.42923D-04   -1.02D-07
      Virial theorem: -V/T =      2.019350
@    MULPOP   C       0.25; O       0.16; H       0.32; H       0.27; 
 -----------------------------------------------------------------------------
   9  Screening settings (-IFTHRS, JTDIIS, DIFDEN, times)  -10    9    F  1.67D-02  1.70D-02
      Induced dipole moments converged in  4 iterations.

      Info from polarizable embedding library:
     ------------------------------------------

       Input density no.:   1

                        Total induced dipole moment
                       X              Y              Z
                  0.32315046     0.53865853     0.00630384

@  9  -112.092713163     -1.515670603295E-02    5.28944D-05   -9.36D-09
      Virial theorem: -V/T =      2.019351
@    MULPOP   C       0.25; O       0.16; H       0.32; H       0.27; 
 -----------------------------------------------------------------------------
  10  Screening settings (-IFTHRS, JTDIIS, DIFDEN, times)  -10   10    F  1.59D-02  1.60D-02
      Induced dipole moments converged in  4 iterations.

      Info from polarizable embedding library:
     ------------------------------------------

       Input density no.:   1

                        Total induced dipole moment
                       X              Y              Z
                  0.32314301     0.53865821     0.00630377

@ 10  -112.092713165     -1.515720715721E-02    2.36242D-05   -2.51D-09
      Virial theorem: -V/T =      2.019350
@    MULPOP   C       0.25; O       0.16; H       0.32; H       0.27; 
 -----------------------------------------------------------------------------
  11  Screening settings (-IFTHRS, JTDIIS, DIFDEN, times)  -10   11    F  1.59D-02  1.60D-02
      Induced dipole moments converged in  4 iterations.

      Info from polarizable embedding library:
     ------------------------------------------

       Input density no.:   1

                        Total induced dipole moment
                       X              Y              Z
                  0.32313867     0.53865820     0.00630374

@ 11  -112.092713166     -1.515760678535E-02    7.67101D-06   -5.47D-10

@ *** DIIS converged in  11 iterations !
@     Converged SCF energy, gradient:   -112.092713165856    7.67D-06
    - total time used in SIRFCK :              0.00 seconds


 *** SCF orbital energy analysis ***
   (incl. contribution from polarizable embedding potential)

 Orbital energy analysis for an open-shell system.
 Orbital energies are not uniquely defined for open-shell systems
   here is used block diagonalization of the FD=FC+FV Fock matrix.
 NOTE that Koopmans' theorem is not fulfilled for this case.

 Number of electrons :   14
 Orbital occupations :    7

 Sym       Hartree-Fock orbital energies

1 A     -20.92156875   -11.59705218    -1.81577904    -1.18995598    -0.99581063
         -0.99369619    -0.92817829    -0.55638683    -0.14986651     0.27085098
          0.36168777     0.44616985

    E(LUMO) :    -0.14986651 au (symmetry 1)
  - E(HOMO) :    -0.92817829 au (symmetry 1)
  ------------------------------------------
    gap     :     0.77831178 au

and E(SOMO) :    -0.55638683 au (symmetry 1)

 NOTE: MOLECULAR ORBITALS ARE NOT CANONICAL HARTREE-FOCK ORBITALS

 Largest off-diagonal Fock matrix element is  4.83D-02

    .--------------------------------------------------.
    | Final results from polarizable embedding library |
    `--------------------------------------------------´

        Polarizable embedding energy contributions:
       ---------------------------------------------

       Electrostatic contributions:
            Electronic                -0.199142075349
            Nuclear                    0.196501001970
            Multipole                 -0.013384918679
            Total                     -0.016025992058

       Polarization contributions:
            Electronic                 0.107234943482
            Nuclear                   -0.115487120813
            Multipole                 -0.004264356076
            Total                     -0.012516533407

       Total PE energy:               -0.015157606786
            (excl. multipole-multipole interaction energy)

               Polarizable embedding information:
              ------------------------------------

                       Induced dipole moments
       site          X              Y              Z
          1     0.01015078     0.20477384    -0.01183203
          2     0.05684584     0.06753875    -0.01669233
          3     0.01151276     0.05669982     0.04021631
          4     0.17140858     0.04844550    -0.01443043
          5     0.02820599     0.16195323    -0.00352959
          6     0.04501473    -0.00075294     0.01257182

                      Total induced dipole moment
                     X              Y              Z
                0.32313867     0.53865820     0.00630374


 --- Writing SIRIFC interface file

 CPU and wall time for SCF :       0.216       0.216


                       .-----------------------------------.
                       | --- Final results from SIRIUS --- |
                       `-----------------------------------'


@    Spin multiplicity:           2
@    Spatial symmetry:            1 ( irrep  A   in C1  )
@    Total charge of molecule:    1

@    Final HF energy:            -112.092713165856                 
@    Nuclear repulsion:            31.249215315972
@    Electronic energy:          -143.326770875043
@    Embedding energy:             -0.015157606785

@    Final gradient norm:           0.000007671006

 
     Date and time (Linux)  : Tue Apr 24 14:09:58 2018
     Host name              : foeroyar                                

File label for MO orbitals:  24Apr18   FOCKDIIS

 (Only coefficients > 0.0100 are printed.)

 Molecular orbitals for symmetry species 1  (A  )
 ------------------------------------------------

    Orbital         1        2        3        4        5        6        7
   1 C   :1s    -0.0005  -0.9928  -0.1158   0.1970   0.0190   0.0119  -0.0002
   2 C   :1s     0.0072  -0.0322   0.2414  -0.6348  -0.0844  -0.0635   0.0005
   3 C   :2px   -0.0004   0.0002  -0.0104   0.0092  -0.5568   0.3329   0.0018
   4 C   :2py    0.0062  -0.0017   0.1532   0.1502   0.2379   0.4045  -0.0142
   5 C   :2pz   -0.0002   0.0001  -0.0047  -0.0057  -0.0124  -0.0112  -0.4180
   6 O   :1s    -0.9944  -0.0002  -0.2214  -0.1117   0.0379   0.0644  -0.0001
   7 O   :1s    -0.0254   0.0061   0.7842   0.5090  -0.2056  -0.3426   0.0006
   8 O   :2px   -0.0003   0.0001   0.0168  -0.0002  -0.1514   0.1170   0.0084
   9 O   :2py    0.0057  -0.0018  -0.2064   0.2947  -0.3614  -0.5525  -0.0253
  10 O   :2pz   -0.0002   0.0001   0.0069  -0.0096   0.0114   0.0162  -0.8236
  11 H   :1s    -0.0002   0.0061   0.0218  -0.1838  -0.3439   0.0310  -0.0006
  12 H   :1s    -0.0003   0.0062   0.0236  -0.2106   0.1622  -0.3218   0.0018

    Orbital         8        9       10       11       12
   1 C   :1s    -0.0004   0.0000   0.2033   0.0326   0.0868
   2 C   :1s     0.0041   0.0005  -1.2986  -0.2146  -0.5805
   3 C   :2px    0.1378  -0.0086   0.1375  -1.0874   0.1467
   4 C   :2py   -0.0064   0.0299   0.3423  -0.1005  -1.2005
   5 C   :2pz    0.0008   0.9333  -0.0089  -0.0064   0.0396
   6 O   :1s    -0.0042   0.0000  -0.0320  -0.0122  -0.1119
   7 O   :1s     0.0198  -0.0002   0.2052   0.0880   0.8597
   8 O   :2px   -0.9752   0.0054  -0.0219   0.2587   0.0341
   9 O   :2py   -0.0396  -0.0188  -0.2689  -0.0847  -0.8890
  10 O   :2pz   -0.0088  -0.6063   0.0080   0.0050   0.0284
  11 H   :1s     0.1996  -0.0008   0.7763   0.9860  -0.2634
  12 H   :1s    -0.2074  -0.0007   0.9976  -0.7742  -0.1220

  Total CPU  time used in SIRIUS :   0.22 seconds
  Total wall time used in SIRIUS :   0.22 seconds

 
     Date and time (Linux)  : Tue Apr 24 14:09:58 2018
     Host name              : foeroyar                                


                     .---------------------------------------.
                     | End of Wave Function Section (SIRIUS) |
                     `---------------------------------------'



        *****************************************************************
        ******** Output from **PROPE input processing for ABACUS ********
        *****************************************************************



 The following molecular properties will be calculated in this run:
 ------------------------------------------------------------------

 Default print level:        0

      Direct calculation - no two-electron integrals written or read.
      Dynamic electric dipole polarizability
      Natural orbital connection is used
      for perturbation dependent basis sets.
      Linear response properties
      Environment is modeled using the polarizable embedding scheme (PE library).


 Changes of defaults for *ABALNR:
 --------------------------------

 Number of frequencies          :   2
 Frequencies                    :  0.000000  0.040000
 Print level                    :   0
 Lin Resp convergence threshold :  5.00D-05
 Max. Lin Resp iterations       :  60

 Center of mass dipole origin  :   -3.067740   -0.312997    0.018175

 Center of mass gauge origin   :   -3.067740   -0.312997    0.018175


                 .------------------------------------------------.
                 | Starting in Static Property Section (ABACUS) - |
                 `------------------------------------------------'


 
     Date and time (Linux)  : Tue Apr 24 14:09:58 2018
     Host name              : foeroyar                                


     ***********************************************************************
     ****************** Solving Linear Response Equations ******************
     ***********************************************************************

      Induced dipole moments converged in  7 iterations.
      Induced dipole moments converged in  7 iterations.

      Info from polarizable embedding library:
     ------------------------------------------

       Input density no.:   1

                        Total induced dipole moment
                       X              Y              Z
                 -0.18911010    -0.14588878     0.00323678

       Input density no.:   2

                        Total induced dipole moment
                       X              Y              Z
                  0.12095293     0.00786988    -0.00182997

      Induced dipole moments converged in  7 iterations.
      Induced dipole moments converged in  6 iterations.

      Info from polarizable embedding library:
     ------------------------------------------

       Input density no.:   1

                        Total induced dipole moment
                       X              Y              Z
                  0.12235029    -0.07138438    -0.00012554

       Input density no.:   2

                        Total induced dipole moment
                       X              Y              Z
                  0.03707454     0.00184827     0.00061084

      Induced dipole moments converged in  7 iterations.
      Induced dipole moments converged in  7 iterations.

      Info from polarizable embedding library:
     ------------------------------------------

       Input density no.:   1

                        Total induced dipole moment
                       X              Y              Z
                 -0.14993076     0.08000254    -0.00320872

       Input density no.:   2

                        Total induced dipole moment
                       X              Y              Z
                 -0.04896984     0.02868294    -0.00017470

      Induced dipole moments converged in  7 iterations.
      Induced dipole moments converged in  6 iterations.

      Info from polarizable embedding library:
     ------------------------------------------

       Input density no.:   1

                        Total induced dipole moment
                       X              Y              Z
                  0.08986752    -0.01388162    -0.00232004

       Input density no.:   2

                        Total induced dipole moment
                       X              Y              Z
                  0.01860421    -0.01435854    -0.00088797

      Induced dipole moments converged in  7 iterations.
      Induced dipole moments converged in  7 iterations.

      Info from polarizable embedding library:
     ------------------------------------------

       Input density no.:   1

                        Total induced dipole moment
                       X              Y              Z
                 -0.03891090     0.00645169    -0.00140714

       Input density no.:   2

                        Total induced dipole moment
                       X              Y              Z
                 -0.01848868     0.02030565    -0.00620886

      Induced dipole moments converged in  7 iterations.
      Induced dipole moments converged in  7 iterations.

      Info from polarizable embedding library:
     ------------------------------------------

       Input density no.:   1

                        Total induced dipole moment
                       X              Y              Z
                 -0.04680010     0.04492793    -0.00849530

       Input density no.:   2

                        Total induced dipole moment
                       X              Y              Z
                  0.03387864    -0.02007426    -0.00852637

      Induced dipole moments converged in  7 iterations.
      Induced dipole moments converged in  7 iterations.

      Info from polarizable embedding library:
     ------------------------------------------

       Input density no.:   1

                        Total induced dipole moment
                       X              Y              Z
                  0.03717248    -0.05730212    -0.00931200

       Input density no.:   2

                        Total induced dipole moment
                       X              Y              Z
                 -0.03774380     0.00820756    -0.00596939

      Induced dipole moments converged in  7 iterations.
      Induced dipole moments converged in  7 iterations.

      Info from polarizable embedding library:
     ------------------------------------------

       Input density no.:   1

                        Total induced dipole moment
                       X              Y              Z
                 -0.00214142     0.03231656    -0.00456952

       Input density no.:   2

                        Total induced dipole moment
                       X              Y              Z
                  0.03751113    -0.01392345    -0.00284565

      Induced dipole moments converged in  7 iterations.
      Induced dipole moments converged in  7 iterations.

      Info from polarizable embedding library:
     ------------------------------------------

       Input density no.:   1

                        Total induced dipole moment
                       X              Y              Z
                 -0.22224351     0.13556826    -0.00038178

       Input density no.:   2

                        Total induced dipole moment
                       X              Y              Z
                  0.03241240    -0.04041366    -0.00052336

      Induced dipole moments converged in  7 iterations.
      Induced dipole moments converged in  6 iterations.

      Info from polarizable embedding library:
     ------------------------------------------

       Input density no.:   1

                        Total induced dipole moment
                       X              Y              Z
                 -0.07610921     0.00664833    -0.00350068

       Input density no.:   2

                        Total induced dipole moment
                       X              Y              Z
                 -0.00088877    -0.00768680     0.00058595

      Induced dipole moments converged in  7 iterations.
      Induced dipole moments converged in  6 iterations.

      Info from polarizable embedding library:
     ------------------------------------------

       Input density no.:   1

                        Total induced dipole moment
                       X              Y              Z
                  0.02564965     0.05469808    -0.00562651

       Input density no.:   2

                        Total induced dipole moment
                       X              Y              Z
                 -0.07716146    -0.01330258     0.00014300

      Induced dipole moments converged in  7 iterations.
      Induced dipole moments converged in  7 iterations.

      Info from polarizable embedding library:
     ------------------------------------------

       Input density no.:   1

                        Total induced dipole moment
                       X              Y              Z
                 -0.00232532    -0.01654852     0.00261820

       Input density no.:   2

                        Total induced dipole moment
                       X              Y              Z
                 -0.07974337     0.02692454    -0.00006721

      Induced dipole moments converged in  6 iterations.
      Induced dipole moments converged in  7 iterations.

      Info from polarizable embedding library:
     ------------------------------------------

       Input density no.:   1

                        Total induced dipole moment
                       X              Y              Z
                  0.04344603    -0.00170400    -0.00440233

       Input density no.:   2

                        Total induced dipole moment
                       X              Y              Z
                 -0.02053447    -0.02933769     0.00751129

      Induced dipole moments converged in  7 iterations.
      Induced dipole moments converged in  6 iterations.

      Info from polarizable embedding library:
     ------------------------------------------

       Input density no.:   1

                        Total induced dipole moment
                       X              Y              Z
                 -0.01558998     0.01022715    -0.00194568

       Input density no.:   2

                        Total induced dipole moment
                       X              Y              Z
                 -0.04485135    -0.02429666     0.01135090

      Induced dipole moments converged in  6 iterations.
      Induced dipole moments converged in  7 iterations.

      Info from polarizable embedding library:
     ------------------------------------------

       Input density no.:   1

                        Total induced dipole moment
                       X              Y              Z
                  0.00995200    -0.00628031     0.01219272

       Input density no.:   2

                        Total induced dipole moment
                       X              Y              Z
                  0.03417703     0.02791988     0.00803717

      Induced dipole moments converged in  6 iterations.
      Induced dipole moments converged in  7 iterations.

      Info from polarizable embedding library:
     ------------------------------------------

       Input density no.:   1

                        Total induced dipole moment
                       X              Y              Z
                  0.04468176     0.01287731    -0.00781378

       Input density no.:   2

                        Total induced dipole moment
                       X              Y              Z
                 -0.03625900    -0.03925364     0.01472630

      Induced dipole moments converged in  7 iterations.
      Induced dipole moments converged in  6 iterations.

      Info from polarizable embedding library:
     ------------------------------------------

       Input density no.:   1

                        Total induced dipole moment
                       X              Y              Z
                 -0.03381281     0.00679710    -0.01844823

       Input density no.:   2

                        Total induced dipole moment
                       X              Y              Z
                 -0.04326846    -0.02336630     0.03223585

      Induced dipole moments converged in  7 iterations.
      Induced dipole moments converged in  7 iterations.

      Info from polarizable embedding library:
     ------------------------------------------

       Input density no.:   1

                        Total induced dipole moment
                       X              Y              Z
                  0.01958701    -0.01239773     0.09845155

       Input density no.:   2

                        Total induced dipole moment
                       X              Y              Z
                  0.08240458    -0.02796993    -0.00679906

      Induced dipole moments converged in  7 iterations.
      Induced dipole moments converged in  7 iterations.

      Info from polarizable embedding library:
     ------------------------------------------

       Input density no.:   1

                        Total induced dipole moment
                       X              Y              Z
                  0.17715259    -0.09440006    -0.00628143

       Input density no.:   2

                        Total induced dipole moment
                       X              Y              Z
                  0.05235461    -0.01355137     0.00459180

      Induced dipole moments converged in  7 iterations.
      Induced dipole moments converged in  6 iterations.

      Info from polarizable embedding library:
     ------------------------------------------

       Input density no.:   1

                        Total induced dipole moment
                       X              Y              Z
                 -0.08973445     0.05131999    -0.00345274

       Input density no.:   2

                        Total induced dipole moment
                       X              Y              Z
                  0.00384865    -0.01198206     0.00666334

      Induced dipole moments converged in  6 iterations.
      Induced dipole moments converged in  6 iterations.

      Info from polarizable embedding library:
     ------------------------------------------

       Input density no.:   1

                        Total induced dipole moment
                       X              Y              Z
                  0.01306157    -0.00193443    -0.00073038

       Input density no.:   2

                        Total induced dipole moment
                       X              Y              Z
                  0.00246839    -0.01663625     0.01126207

      Induced dipole moments converged in  7 iterations.
      Induced dipole moments converged in  7 iterations.

      Info from polarizable embedding library:
     ------------------------------------------

       Input density no.:   1

                        Total induced dipole moment
                       X              Y              Z
                  0.03278180    -0.01631989     0.01865613

       Input density no.:   2

                        Total induced dipole moment
                       X              Y              Z
                 -0.07161489     0.07535152     0.00756862

      Induced dipole moments converged in  7 iterations.
      Induced dipole moments converged in  7 iterations.

      Info from polarizable embedding library:
     ------------------------------------------

       Input density no.:   1

                        Total induced dipole moment
                       X              Y              Z
                 -0.06950368     0.00856711    -0.00635961

       Input density no.:   2

                        Total induced dipole moment
                       X              Y              Z
                  0.02369024    -0.02904144    -0.00637739

      Induced dipole moments converged in  7 iterations.
      Induced dipole moments converged in  6 iterations.

      Info from polarizable embedding library:
     ------------------------------------------

       Input density no.:   1

                        Total induced dipole moment
                       X              Y              Z
                 -0.06882182    -0.01524753    -0.00431202

       Input density no.:   2

                        Total induced dipole moment
                       X              Y              Z
                  0.00302510     0.02049153     0.00481536

      Induced dipole moments converged in  7 iterations.
      Induced dipole moments converged in  7 iterations.

      Info from polarizable embedding library:
     ------------------------------------------

       Input density no.:   1

                        Total induced dipole moment
                       X              Y              Z
                 -0.00565171     0.01573754     0.01016704

       Input density no.:   2

                        Total induced dipole moment
                       X              Y              Z
                  0.02531882    -0.02794873    -0.00368225

      Induced dipole moments converged in  6 iterations.
      Induced dipole moments converged in  6 iterations.

      Info from polarizable embedding library:
     ------------------------------------------

       Input density no.:   1

                        Total induced dipole moment
                       X              Y              Z
                  0.00099773    -0.00012424     0.00717666

       Input density no.:   2

                        Total induced dipole moment
                       X              Y              Z
                  0.04125589     0.00802570    -0.00115247

  Time used in LNRABA     is       0.47 seconds


   ***************************************************************************
   ************************ FINAL RESULTS from ABACUS ************************
   ***************************************************************************


 
     Date and time (Linux)  : Tue Apr 24 14:09:58 2018
     Host name              : foeroyar                                


                             Molecular geometry (au)
                             -----------------------

 C         -3.0015786160           -1.4563174382            0.0550080378
 O         -3.1314330364            0.8240509816           -0.0184248297
 H         -1.1728925345           -2.4468589606            0.1025195320
 H         -4.7395143797           -2.6116033945            0.0761219478





                        Molecular wave function and energy
                        ----------------------------------

     Spatial symmetry   1 ( A   )
     Spin multiplicity  2
     2 * M_S            1
     State number       1
     Total charge       1

     Total energy       -112.0927131659 au (Hartrees)
                         -3050.19788509 eV
                           -294299.3730 kJ/mol
                            -70339.2383 kcal/mol


                   Scalar Breit-Pauli relativistic corrections
                   -------------------------------------------

     Darwin correction:                          0.1685880328 au
     Mass-velocity correction:                  -0.2162438271 au

     Total relativistic correction:             -0.0476557943 au ( 0.0425%)
     Non-relativistic + relativistic energy:  -112.1403689602 au



      (Note that these corrections are NOT included in the results below.)


                                  Dipole moment
                                  -------------

                 au               Debye          C m (/(10**-30)
              1.291732           3.283256          10.951763


                             Dipole moment components
                             ------------------------

                 au               Debye          C m (/(10**-30)

      x      0.11513472         0.29264325         0.97615280
      y     -1.28598406        -3.26864523       -10.90302687
      z      0.03951706         0.10044234         0.33503958


   Units:   1 a.u. =   2.54175 Debye 
            1 a.u. =   8.47835 (10**-30) C m (SI)




    ++++++++++++++++++++++++++++++++++++++++++++++++++++++++++++++++++++++++++
    ++++++++++++++++++ Frequency dependent polarizabilities ++++++++++++++++++
    ++++++++++++++++++++++++++++++++++++++++++++++++++++++++++++++++++++++++++


          Polarizability tensor for frequency     0.000000 au
          ----------------------------------------------------
                            Ex             Ey             Ez

                Ex    6.428384     -0.1580576      3.8446737E-02
                Ey  -0.1580761       9.495679     -0.2177933    
                Ez   3.8448452E-02 -0.2177903       2.570059    

Isotropic polarizability:   6.164707    

          Polarizability tensor for frequency     0.040000 au
          ----------------------------------------------------
                            Ex             Ey             Ez

                Ex    6.453574     -0.1585381      3.8607539E-02
                Ey  -0.1585549       9.530992     -0.2186089    
                Ez   3.8609550E-02 -0.2186051       2.578818    

Isotropic polarizability:   6.187795    


   Interatomic separations (in Angstrom):
   --------------------------------------

            C           O           H           H     
            ------      ------      ------      ------
 C     :    0.000000
 O     :    1.209298    0.000000
 H     :    1.100831    2.018474    0.000000
 H     :    1.104391    2.007988    1.889439    0.000000


  Max    interatomic separation is    2.0185 Angstrom (    3.8144 Bohr)
  between atoms    3 and    2, "H     " and "O     ".

  Min HX interatomic separation is    1.1008 Angstrom (    2.0803 Bohr)

  Min YX interatomic separation is    1.2093 Angstrom (    2.2852 Bohr)


  Bond distances (Angstrom):
  --------------------------

                  atom 1     atom 2       distance
                  ------     ------       --------
  bond distance:  O          C            1.209298
  bond distance:  H          C            1.100831
  bond distance:  H          C            1.104391


  Bond angles (degrees):
  ----------------------

                  atom 1     atom 2     atom 3         angle
                  ------     ------     ------         -----
  bond angle:     O          C          H            121.724
  bond angle:     O          C          H            120.357
  bond angle:     H          C          H            117.919


  Total CPU  time used in ABACUS:   0.48 seconds
  Total wall time used in ABACUS:   0.48 seconds


                   .-------------------------------------------.
                   | End of Static Property Section (ABACUS) - |
                   `-------------------------------------------'

  Total CPU  time used in DALTON:   0.72 seconds
  Total wall time used in DALTON:   0.73 seconds

 
     Date and time (Linux)  : Tue Apr 24 14:09:58 2018
     Host name              : foeroyar                                
