

     ************************************************************************
     *************** Dalton - An Electronic Structure Program ***************
     ************************************************************************

    This is output from DALTON (Release Dalton2013 patch 0)
   ----------------------------------------------------------------------------
    NOTE:
     
    Dalton is an experimental code for the evaluation of molecular
    properties using (MC)SCF, DFT, CI, and CC wave functions.
    The authors accept no responsibility for the performance of
    the code or for the correctness of the results.
     
    The code (in whole or part) is provided under a licence and
    is not to be reproduced for further distribution without
    the written permission of the authors or their representatives.
     
    See the home page "http://daltonprogram.org" for further information.
     
    If results obtained with this code are published,
    the appropriate citations would be both of:
     
       K. Aidas, C. Angeli, K. L. Bak, V. Bakken, R. Bast,
       L. Boman, O. Christiansen, R. Cimiraglia, S. Coriani,
       P. Dahle, E. K. Dalskov, U. Ekstroem, T. Enevoldsen,
       J. J. Eriksen, P. Ettenhuber, B. Fernandez, L. Ferrighi,
       H. Fliegl, L. Frediani, K. Hald, A. Halkier, C. Haettig,
       H. Heiberg, T. Helgaker, A. C. Hennum, H. Hettema,
       E. Hjertenaes, S. Hoest, I.-M. Hoeyvik, M. F. Iozzi,
       B. Jansik, H. J. Aa. Jensen, D. Jonsson, P. Joergensen,
       J. Kauczor, S. Kirpekar, T. Kjaergaard, W. Klopper,
       S. Knecht, R. Kobayashi, H. Koch, J. Kongsted, A. Krapp,
       K. Kristensen, A. Ligabue, O. B. Lutnaes, J. I. Melo,
       K. V. Mikkelsen, R. H. Myhre, C. Neiss, C. B. Nielsen,
       P. Norman, J. Olsen, J. M. H. Olsen, A. Osted,
       M. J. Packer, F. Pawlowski, T. B. Pedersen, P. F. Provasi,
       S. Reine, Z. Rinkevicius, T. A. Ruden, K. Ruud, V. Rybkin,
       P. Salek, C. C. M. Samson, A. Sanchez de Meras, T. Saue,
       S. P. A. Sauer, B. Schimmelpfennig, K. Sneskov,
       A. H. Steindal, K. O. Sylvester-Hvid, P. R. Taylor,
       A. M. Teale, E. I. Tellgren, D. P. Tew, A. J. Thorvaldsen,
       L. Thoegersen, O. Vahtras, M. A. Watson, D. J. D. Wilson,
       M. Ziolkowski and H. Agren.
       The Dalton quantum chemistry program system.
       WIREs Comput. Mol. Sci. 2013. doi: 10.1002/wcms.1172
    
    and
    
       Dalton, a Molecular Electronic Structure Program,
       Release DALTON2013.0 (2013), see http://daltonprogram.org
   ----------------------------------------------------------------------------

    Authors in alphabetical order (major contribution(s) in parenthesis):

  Kestutis Aidas,           Vilnius University,           Lithuania   (QM/MM)
  Celestino Angeli,         University of Ferrara,        Italy       (NEVPT2)
  Keld L. Bak,              UNI-C,                        Denmark     (AOSOPPA, non-adiabatic coupling, magnetic properties)
  Vebjoern Bakken,          University of Oslo,           Norway      (DALTON; geometry optimizer, symmetry detection)
  Radovan Bast,             KTH Stockholm                 Sweden      (DALTON installation and execution frameworks)
  Linus Boman,              NTNU,                         Norway      (Cholesky decomposition and subsystems)
  Ove Christiansen,         Aarhus University,            Denmark     (CC module)
  Renzo Cimiraglia,         University of Ferrara,        Italy       (NEVPT2)
  Sonia Coriani,            University of Trieste,        Italy       (CC module, MCD in RESPONS)
  Paal Dahle,               University of Oslo,           Norway      (Parallelization)
  Erik K. Dalskov,          UNI-C,                        Denmark     (SOPPA)
  Thomas Enevoldsen,        Univ. of Southern Denmark,    Denmark     (SOPPA)
  Janus J. Eriksen,         Aarhus University,            Denmark     (PE-MP2/SOPPA, TDA)
  Berta Fernandez,          U. of Santiago de Compostela, Spain       (doublet spin, ESR in RESPONS)
  Lara Ferrighi,            Aarhus University,            Denmark     (PCM Cubic response)
  Heike Fliegl,             University of Oslo,           Norway      (CCSD(R12))
  Luca Frediani,            UiT The Arctic U. of Norway,  Norway      (PCM)
  Bin Gao,                  UiT The Arctic U. of Norway,  Norway      (Gen1Int library)
  Christof Haettig,         Ruhr-University Bochum,       Germany     (CC module)
  Kasper Hald,              Aarhus University,            Denmark     (CC module)
  Asger Halkier,            Aarhus University,            Denmark     (CC module)
  Hanne Heiberg,            University of Oslo,           Norway      (geometry analysis, selected one-electron integrals)
  Trygve Helgaker,          University of Oslo,           Norway      (DALTON; ABACUS, ERI, DFT modules, London, and much more)
  Alf Christian Hennum,     University of Oslo,           Norway      (Parity violation)
  Hinne Hettema,            University of Auckland,       New Zealand (quadratic response in RESPONS; SIRIUS supersymmetry)
  Eirik Hjertenaes,         NTNU,                         Norway      (Cholesky decomposition)
  Maria Francesca Iozzi,    University of Oslo,           Norway      (RPA)
  Brano Jansik              Technical Univ. of Ostrava    Czech Rep.  (DFT cubic response)
  Hans Joergen Aa. Jensen,  Univ. of Southern Denmark,    Denmark     (DALTON; SIRIUS, RESPONS, ABACUS modules, London, and much more)
  Dan Jonsson,              UiT The Arctic U. of Norway,  Norway      (cubic response in RESPONS module)
  Poul Joergensen,          Aarhus University,            Denmark     (RESPONS, ABACUS, and CC modules)
  Joanna Kauczor,           Linkoeping University,        Sweden      (Complex polarization propagator (CPP) module)
  Sheela Kirpekar,          Univ. of Southern Denmark,    Denmark     (Mass-velocity & Darwin integrals)
  Wim Klopper,              KIT Karlsruhe,                Germany     (R12 code in CC, SIRIUS, and ABACUS modules)
  Stefan Knecht,            ETH Zurich,                   Switzerland (Parallel CI and MCSCF)
  Rika Kobayashi,           Australian National Univ.,    Australia   (DIIS in CC, London in MCSCF)
  Henrik Koch,              NTNU,                         Norway      (CC module, Cholesky decomposition)
  Jacob Kongsted,           Univ. of Southern Denmark,    Denmark     (Polarizable embedding, QM/MM)
  Andrea Ligabue,           University of Modena,         Italy       (CTOCD, AOSOPPA)
  Ola B. Lutnaes,           University of Oslo,           Norway      (DFT Hessian)
  Juan I. Melo,             University of Buenos Aires,   Argentina   (LRESC, Relativistic Effects on NMR Shieldings)
  Kurt V. Mikkelsen,        University of Copenhagen,     Denmark     (MC-SCRF and QM/MM)
  Rolf H. Myhre,            NTNU,                         Norway      (Cholesky, subsystems and ECC2)
  Christian Neiss,          Univ. Erlangen-Nuernberg,     Germany     (CCSD(R12))
  Christian B. Nielsen,     University of Copenhagen,     Denmark     (QM/MM)
  Patrick Norman,           Linkoeping University,        Sweden      (Cubic response and complex response in RESPONS)
  Jeppe Olsen,              Aarhus University,            Denmark     (SIRIUS CI/density modules)
  Jogvan Magnus H. Olsen,   Univ. of Southern Denmark,    Denmark     (Polarizable embedding, PE library, QM/MM)
  Anders Osted,             Copenhagen University,        Denmark     (QM/MM)
  Martin J. Packer,         University of Sheffield,      UK          (SOPPA)
  Filip Pawlowski,          Kazimierz Wielki University   Poland      (CC3)
  Thomas B. Pedersen,       University of Oslo,           Norway      (Cholesky decomposition)
  Patricio F. Provasi,      University of Northeastern,   Argentina   (Analysis of coupling constants in localized orbitals)
  Zilvinas Rinkevicius,     KTH Stockholm,                Sweden      (open-shell DFT, ESR)
  Elias Rudberg,            KTH Stockholm,                Sweden      (DFT grid and basis info)
  Torgeir A. Ruden,         University of Oslo,           Norway      (Numerical derivatives in ABACUS)
  Kenneth Ruud,             UiT The Arctic U. of Norway,  Norway      (DALTON; ABACUS magnetic properties and  much more)
  Pawel Salek,              KTH Stockholm,                Sweden      (DALTON; DFT code)
  Claire C. M. Samson       University of Karlsruhe       Germany     (Boys localization, r12 integrals in ERI)
  Alfredo Sanchez de Meras, University of Valencia,       Spain       (CC module, Cholesky decomposition)
  Trond Saue,               Paul Sabatier University,     France      (direct Fock matrix construction)
  Stephan P. A. Sauer,      University of Copenhagen,     Denmark     (SOPPA(CCSD), SOPPA prop., AOSOPPA, vibrational g-factors)
  Bernd Schimmelpfennig,    Forschungszentrum Karlsruhe,  Germany     (AMFI module)
  Kristian Sneskov,         Aarhus University,            Denmark     (QM/MM, PE-CC)
  Arnfinn H. Steindal,      UiT The Arctic U. of Norway,  Norway      (parallel QM/MM)
  K. O. Sylvester-Hvid,     University of Copenhagen,     Denmark     (MC-SCRF)
  Peter R. Taylor,          VLSCI/Univ. of Melbourne,     Australia   (Symmetry handling ABACUS, integral transformation)
  Andrew M. Teale,          University of Nottingham,     England     (DFT-AC, DFT-D)
  David P. Tew,             University of Bristol,        England     (CCSD(R12))
  Olav Vahtras,             KTH Stockholm,                Sweden      (triplet response, spin-orbit, ESR, TDDFT, open-shell DFT)
  David J. Wilson,          La Trobe University,          Australia   (DFT Hessian and DFT magnetizabilities)
  Hans Agren,               KTH Stockholm,                Sweden      (SIRIUS module, RESPONS, MC-SCRF solvation model)
 --------------------------------------------------------------------------------

     Date and time (Linux)  : Sun Sep  8 21:01:34 2013
     Host name              : lpqlx131.ups-tlse.fr                    

 * Work memory size             :    64000000 =  488.28 megabytes.

 * Directories for basis set searches:
   1) /home/bast/DALTON-2013.0-Source/build/test_cc2_r12_aux2_bh_sym
   2) /home/bast/DALTON-2013.0-Source/build/basis


Compilation information
-----------------------

 Who compiled             | bast
 Host                     | lpqlx131.ups-tlse.fr
 System                   | Linux-3.8.5-201.fc18.x86_64
 CMake generator          | Unix Makefiles
 Processor                | x86_64
 64-bit integers          | OFF
 MPI                      | OFF
 Fortran compiler         | /usr/bin/gfortran
 Fortran compiler version | GNU Fortran (GCC) 4.7.2 20121109 (Red Hat 4.7.2-8)
 C compiler               | /usr/bin/gcc
 C compiler version       | gcc (GCC) 4.7.2 20121109 (Red Hat 4.7.2-8)
 C++ compiler             | /usr/bin/g++
 C++ compiler version     | g++ (GCC) 4.7.2 20121109 (Red Hat 4.7.2-8)
 Static linking           | OFF
 Last Git revision        | f34203295a86316e27f9e7b44f9b6769c4a046c0
 Configuration time       | 2013-09-08 20:31:27.952056


   Content of the .dal input file
 ----------------------------------

                                                  
**DALTON INPUT                                    
.RUN WAVE FUNCTION                                
.DIRECT                                           
*MOLBAS                                           
.R12AUX                                           
**INTEGRALS                                       
.R12                                              
**WAVE FUNCTION                                   
.CC                                               
*ORBITAL INPUT                                    
.NOSUPSYM                                         
.MOSTART                                          
 H1DIAG                                           
*SCF INPUT                                        
.THRESH                                           
 1.0D-10                                          
*CC INPUT                                         
.CC2                                              
.PRINT                                            
 3                                                
.FROIMP                                           
  1 0 0 0                                         
  0 0 0 0                                         
.THRENR                                           
 1.0D-12                                          
.MAX IT                                           
 300                                              
*CCEXCI                                           
.THREXC                                           
 1.D-10                                           
.NCCEXCI                                          
 4 4 4 4                                          
*R12 INPUT                                        
#.NO HYB                                          
#.R12XXL                                          
#.NO B                                            
#.NO A'                                           
#.NO 2                                            
.CC2                                              
 1A                                               
**END OF DALTON INPUT                             


   Content of the .mol file
 ----------------------------

BASIS                                                                          
Ahlrichs-VDZ Ahlrichs-VTZ                                                      
BH                                                                             
                                                                               
    4    2  X Y     0.10D-14                                                   
 1      5.    1    3    3    2    1                                            
B        0.0000000000000     0.0000000000000     0.0000000000000               
 1      1.    1                                                                
H        0.0000000000000     0.0000000000000     2.3288983083247               
 2      5.0   1                                                                
B        0.0000000000000     0.0000000000000     0.0000000000000               
 2      1.0   1                                                                
H        0.0000000000000     0.0000000000000     2.3288983083247               


       *******************************************************************
       *********** Output from DALTON general input processing ***********
       *******************************************************************

 --------------------------------------------------------------------------------
   Overall default print level:    0
   Print level for DALTON.STAT:    1

    AO-direct calculation (in sections where implemented)
    HERMIT 1- and 2-electron integral sections will be executed
    "Old" integral transformation used (limited to max 255 basis functions)
    Wave function sections will be executed (SIRIUS module)
 --------------------------------------------------------------------------------


 Changes of defaults for *MOLBAS:
 --------------------------------

 Print level in molecule setup (READIN):    1

 .R12AUX: Reading auxiliary basis sets from .mol file for R12



   ****************************************************************************
   *************** Output of molecule and basis set information ***************
   ****************************************************************************


    The two title cards from your ".mol" input:
    ------------------------------------------------------------------------
 1: BH                                                                      
 2:                                                                         
    ------------------------------------------------------------------------

  Atomic type no.    1
  --------------------
  Nuclear charge:   5.00000
  Number of symmetry independent centers:    1
  Number of basis sets to read;    1
  Basis set file used for this atomic type with Z =   5 :
     "/home/bast/DALTON-2013.0-Source/build/basis/Ahlrichs-VDZ"

  Atomic type no.    2
  --------------------
  Nuclear charge:   1.00000
  Number of symmetry independent centers:    1
  Number of basis sets to read;    1
  Basis set file used for this atomic type with Z =   1 :
     "/home/bast/DALTON-2013.0-Source/build/basis/Ahlrichs-VDZ"

  Atomic type no.    3
  --------------------
  Nuclear charge:   5.00000
  Number of symmetry independent centers:    1
  This is an auxiliary basis for R12, MBSI:    2
  Basis set file used for this atomic type with Z =   5 :
     "/home/bast/DALTON-2013.0-Source/build/basis/Ahlrichs-VTZ"

  Atomic type no.    4
  --------------------
  Nuclear charge:   1.00000
  Number of symmetry independent centers:    1
  This is an auxiliary basis for R12, MBSI:    2
  Basis set file used for this atomic type with Z =   1 :
     "/home/bast/DALTON-2013.0-Source/build/basis/Ahlrichs-VTZ"


                         SYMGRP: Point group information
                         -------------------------------

Point group: C2v

   * The point group was generated by:

      Reflection in the yz-plane
      Reflection in the xz-plane

   * Group multiplication table

        |  E   C2z  Oxz  Oyz
   -----+--------------------
     E  |  E   C2z  Oxz  Oyz
    C2z | C2z   E   Oyz  Oxz
    Oxz | Oxz  Oyz   E   C2z
    Oyz | Oyz  Oxz  C2z   E 

   * Character table

        |  E   C2z  Oxz  Oyz
   -----+--------------------
    A1  |   1    1    1    1
    B1  |   1   -1    1   -1
    B2  |   1   -1   -1    1
    A2  |   1    1   -1   -1

   * Direct product table

        | A1   B1   B2   A2 
   -----+--------------------
    A1  | A1   B1   B2   A2 
    B1  | B1   A1   A2   B2 
    B2  | B2   A2   A1   B1 
    A2  | A2   B2   B1   A1 


                                 Isotopic Masses
                                 ---------------

                           B          11.009305
                           H           1.007825
                           B           0.000000
                           H           0.000000

                       Total mass:    12.017130 amu
                       Natural abundance:   0.000 %

 Center-of-mass coordinates (a.u.):    0.000000    0.000000    0.195315


  Atoms and basis sets
  --------------------

  Number of atom types :    4
  Total number of atoms:    4

  Basis set 1 refers to the basis "Ahlrichs-VDZ" from the basis set library.

  Basis set 2 refers to the basis "Ahlrichs-VTZ" from the basis set library.

  label  basis   atoms  charge   prim  cont     basis
  ------------------------------------------------------------------------------
  B        1       1    5.0000    19     9      [7s4p|3s2p]                                        
  H        1       1    1.0000     4     2      [4s|2s]                                            
  B        2       1    0.0000    28    15      [10s6p|6s3p]                                       
  H        2       1    0.0000     5     3      [5s|3s]                                            
  ------------------------------------------------------------------------------
  total:           4    6.0000    56    29
  ------------------------------------------------------------------------------

  Threshold for neglecting AO integrals:  1.00D-15


  Cartesian Coordinates (a.u.)
  ----------------------------

  Total number of coordinates:   12
  B       :     1  x   0.0000000000    2  y   0.0000000000    3  z   0.0000000000
  H       :     4  x   0.0000000000    5  y   0.0000000000    6  z   2.3288983083
  B       :     7  x   0.0000000000    8  y   0.0000000000    9  z   0.0000000000
  H       :    10  x   0.0000000000   11  y   0.0000000000   12  z   2.3288983083


  Symmetry Coordinates
  --------------------

  Number of coordinates in each symmetry:     4    4    4    0

  Symmetry  A1  ( 1)

    1   B     z    3
    2   H     z    6
    3   B     z    9
    4   H     z   12

  Symmetry  B1  ( 2)

    5   B     x    1
    6   H     x    4
    7   B     x    7
    8   H     x   10

  Symmetry  B2  ( 3)

    9   B     y    2
   10   H     y    5
   11   B     y    8
   12   H     y   11


   Interatomic separations (in Angstrom):
   --------------------------------------

            B           H           B           H     
            ------      ------      ------      ------
 B     :    0.000000
 H     :    1.232400    0.000000
 B     :    0.000000    1.232400    0.000000
 H     :    1.232400    0.000000    1.232400    0.000000


  Max    interatomic separation is    1.2324 Angstrom (    2.3289 Bohr)
  between atoms    2 and    1, "H     " and "B     ".

  Min HX interatomic separation is    0.0000 Angstrom (    0.0000 Bohr)

  Min YX interatomic separation is    0.0000 Angstrom (    0.0000 Bohr)

WARNING: Number of short HX and YX bond lengths:    1    1
WARNING: If not intentional, maybe your coordinates were in Angstrom,
WARNING: but "Angstrom" was not specified in .mol file


  Bond distances (Angstrom):
  --------------------------

                  atom 1     atom 2       distance
                  ------     ------       --------
  bond distance:  H          B            1.232400


  Bond angles (degrees):
  ----------------------

                  atom 1     atom 2     atom 3         angle
                  ------     ------     ------         -----
     No angles found




 Principal moments of inertia (u*A**2) and principal axes
 --------------------------------------------------------

   IA       0.000000          0.000000    0.000000    1.000000
   IB       1.402321          0.000000    1.000000    0.000000
   IC       1.402321          1.000000    0.000000    0.000000


 Rotational constants
 --------------------

 The molecule is linear.

               B =       360387.41 MHz     (   12.021230 cm-1)


@  Nuclear repulsion energy :    2.146937881370 Hartree


  Symmetry Orbitals
  -----------------

  Number of orbitals in each symmetry:          19    5    5    0

  Number of main orbitals in each symmetry:           7    2    2    0
  Number of auxiliary functions in each symmetry:    12    3    3    0


  Symmetry  A1 ( 1)

    1     B    M   1s         1
    2     B    M   1s         2
    3     B    M   1s         3
    4     B    M   2pz        6
    5     B    M   2pz        9
    6     H    M   1s        10
    7     H    M   1s        11
    8     B    A   1s        12
    9     B    A   1s        13
   10     B    A   1s        14
   11     B    A   1s        15
   12     B    A   1s        16
   13     B    A   1s        17
   14     B    A   2pz       20
   15     B    A   2pz       23
   16     B    A   2pz       26
   17     H    A   1s        27
   18     H    A   1s        28
   19     H    A   1s        29


  Symmetry  B1 ( 2)

   20     B    M   2px        4
   21     B    M   2px        7
   22     B    A   2px       18
   23     B    A   2px       21
   24     B    A   2px       24


  Symmetry  B2 ( 3)

   25     B    M   2py        5
   26     B    M   2py        8
   27     B    A   2py       19
   28     B    A   2py       22
   29     B    A   2py       25


  No orbitals in symmetry  A2 ( 4)

  Number of floating/multiple basis set orbitals :    2

  Symmetries of electric field:  B1 (2)  B2 (3)  A1 (1)

  Symmetries of magnetic field:  B2 (3)  B1 (2)  A2 (4)


                     .---------------------------------------.
                     | Starting in Integral Section (HERMIT) |
                     `---------------------------------------'



    *************************************************************************
    ****************** Output from HERMIT input processing ******************
    *************************************************************************


 Default print level:        1

 * Nuclear model: Point charge

 Calculation of one-electron Hamiltonian integrals.

 The following one-electron property integrals are calculated as requested:
          - overlap integrals
          - Cartesian multipole moment integrals of orders 2 and lower

 Center of mass  (bohr):      0.000000000000      0.000000000000      0.195314683089
 Operator center (bohr):      0.000000000000      0.000000000000      0.000000000000
 Gauge origin    (bohr):      0.000000000000      0.000000000000      0.000000000000
 Dipole origin   (bohr):      0.000000000000      0.000000000000      0.000000000000


     ************************************************************************
     ************************** Output from HERINT **************************
     ************************************************************************

 >>>> Total CPU  time used in HERMIT:   0.02 seconds
 >>>> Total wall time used in HERMIT:   0.02 seconds


                        .----------------------------------.
                        | End of Integral Section (HERMIT) |
                        `----------------------------------'



                   .--------------------------------------------.
                   | Starting in Wave Function Section (SIRIUS) |
                   `--------------------------------------------'

 NCCEXCI for singlet:           4           4           4           4

 >>>> Detected R12 input:
 Direct Fock matrix formation switched on!
 Scale factors for CC excitations manifolds:
 for bra states (projection manifold):   1.0000000000000000     
 for ket states (operator manifold)  :   1.0000000000000000     

 **********************************************************************
 *SIRIUS* a direct, restricted step, second order MCSCF program       *
 **********************************************************************

 
     Date and time (Linux)  : Sun Sep  8 21:01:34 2013
     Host name              : lpqlx131.ups-tlse.fr                    

 Title lines from ".mol" input file:
     BH                                                                      
                                                                             

 Print level on unit LUPRI =   2 is   0
 Print level on unit LUW4  =   2 is   5

@    (Integral direct) CC calculation.

@    This is a combination run starting with
@              a restricted, closed shell Hartree-Fock calculation

 Fock matrices are calculated directly without use of integrals on disk.

 Initial molecular orbitals are obtained according to
 ".MOSTART H1DIAG" input option

     Wave function specification
     ============================

     For the specification of the Coupled Cluster: see later.

@    For the wave function of type :      >>> CC <<<
@    Number of closed shell electrons           6
@    Number of electrons in active shells       0
@    Total charge of the molecule               0

@    Spin multiplicity and 2 M_S                1         0
     Total number of symmetries                 4
@    Reference state symmetry                   1

     Orbital specifications
     ======================
     Abelian symmetry species          All |    1    2    3    4
                                       --- |  ---  ---  ---  ---
     Total number of orbitals           11 |    7    2    2    0
     Number of basis functions          29 |   19    5    5    0

      ** Automatic occupation of RHF orbitals **

      -- Initial occupation of symmetries is determined from diagonal of H1 matrix.           
      -- Initial occupation of symmetries is :
@    Occupied SCF orbitals               3 |    2    0    1    0

     Maximum number of Fock   iterations      0
     Maximum number of DIIS   iterations     60
     Maximum number of QC-SCF iterations     60
     Threshold for SCF convergence     1.00D-10


 Changes of defaults for CC:
 ---------------------------


 -This is a direct atomic orbital integral based
  calculation for coupled cluster wave function

 -Implicit frozen core calculation
 -Excitation energies calculated
  


 >>>>> DIIS optimization of Hartree-Fock <<<<<

 C1-DIIS algorithm; max error vectors =   10

 Automatic occupation of symmetries with   6 electrons.

 Iter     Total energy    Error norm  Delta(E)    SCF occupation
 -----------------------------------------------------------------------------
   1  Screening settings (-IFTHRS, DIFDEN)   -6    T
@  1  -23.7919251551       2.35D+00  -2.38D+01     2   0   1   0
      Virial theorem: -V/T =      1.842685
@      MULPOP B      -0.85; H       0.85; 
 -----------------------------------------------------------------------------
   2  Screening settings (-IFTHRS, DIFDEN)   -6    T
@  2  -24.8475362942       3.25D-01  -1.06D+00     2   0   1   0
      Virial theorem: -V/T =      2.020807
@      MULPOP B      -0.07; H       0.07; 
 -----------------------------------------------------------------------------
   3  Screening settings (-IFTHRS, DIFDEN)   -8    F
@  3  -24.8632919723       1.02D-01  -1.58D-02     2   0   1   0
      Virial theorem: -V/T =      2.008046
@      MULPOP B      -0.20; H       0.20; 
 -----------------------------------------------------------------------------
   4  Screening settings (-IFTHRS, DIFDEN)   -8    T
@  4  -24.8661450214       1.99D-02  -2.85D-03     2   0   1   0
      Virial theorem: -V/T =      2.005996
@      MULPOP B      -0.25; H       0.25; 
 -----------------------------------------------------------------------------
   5  Screening settings (-IFTHRS, DIFDEN)   -8    T
@  5  -24.8662245512       1.60D-03  -7.95D-05     2   0   1   0
      Virial theorem: -V/T =      2.005979
@      MULPOP B      -0.24; H       0.24; 
 -----------------------------------------------------------------------------
   6  Screening settings (-IFTHRS, DIFDEN)  -10    F
@  6  -24.8662249440       2.88D-04  -3.93D-07     2   0   1   0
      Virial theorem: -V/T =      2.005930
@      MULPOP B      -0.24; H       0.24; 
 -----------------------------------------------------------------------------
   7  Screening settings (-IFTHRS, DIFDEN)  -10    T
@  7  -24.8662249627       4.42D-05  -1.87D-08     2   0   1   0
      Virial theorem: -V/T =      2.005927
@      MULPOP B      -0.24; H       0.24; 
 -----------------------------------------------------------------------------
   8  Screening settings (-IFTHRS, DIFDEN)  -10    T
@  8  -24.8662249632       6.36D-06  -4.55D-10     2   0   1   0
      Virial theorem: -V/T =      2.005926
@      MULPOP B      -0.24; H       0.24; 
 -----------------------------------------------------------------------------
   9  Screening settings (-IFTHRS, DIFDEN)  -12    F
@  9  -24.8662249632       7.38D-07  -1.02D-11     2   0   1   0
      Virial theorem: -V/T =      2.005927
@      MULPOP B      -0.24; H       0.24; 
 -----------------------------------------------------------------------------
  10  Screening settings (-IFTHRS, DIFDEN)  -15    F
@ 10  -24.8662249632       8.14D-08  -1.49D-13     2   0   1   0
      Virial theorem: -V/T =      2.005927
@      MULPOP B      -0.24; H       0.24; 
 -----------------------------------------------------------------------------
  11  Screening settings (-IFTHRS, DIFDEN)  -15    T
@ 11  -24.8662249632       5.72D-09   0.00D+00     2   0   1   0
      Virial theorem: -V/T =      2.005927
@      MULPOP B      -0.24; H       0.24; 
 -----------------------------------------------------------------------------
  12  Screening settings (-IFTHRS, DIFDEN)  -15    T
@ 12  -24.8662249632       3.12D-10  -3.55D-15     2   0   1   0
      Virial theorem: -V/T =      2.005927
@      MULPOP B      -0.24; H       0.24; 
 -----------------------------------------------------------------------------
  13  Screening settings (-IFTHRS, DIFDEN)  -15    T
@ 13  -24.8662249632       1.32D-11   3.55D-15     2   0   1   0

@ *** DIIS converged in  13 iterations !
@     Converged SCF energy, gradient:    -24.866224963189    1.32D-11
    - total time used in SIRFCK :              0.00 seconds


 *** SCF orbital energy analysis ***

 Only the five lowest virtual orbital energies printed in each symmetry.

 Number of electrons :    6
 Orbital occupations :    2    0    1    0

 Sym       Hartree-Fock orbital energies

  1     -7.70595215    -0.61638695    -0.06775641     0.25454406     0.33040601
         0.42240231     0.89411347

  2      0.05644934     0.49080041

  3     -0.24792717     0.46233030

    E(LUMO) :    -0.06775641 au (symmetry 1)
  - E(HOMO) :    -0.24792717 au (symmetry 3)
  ------------------------------------------
    gap     :     0.18017076 au

 >>> Writing SIRIFC interface file <<<

  Canonical primary and secondary basis sets
  ISYM       NORB1 MBAS1       NORB2 MBAS2
     1           7     7          12    12
     2           2     2           3     3
     3           2     2           3     3
     4           0     0           0     0

 Computation of exchange matrix done [5]

 AUXILIARY BASIS LOW EIGENVALUES
 ISYM         EIGENVALUE
   1      0.000000000000
   2      0.000000000000
   3      0.000000000000

 >>>> CPU and wall time for SCF :       0.030       0.030


                       .-----------------------------------.
                       | >>> Final results from SIRIUS <<< |
                       `-----------------------------------'


@    Spin multiplicity:           1
@    Spatial symmetry:            1
@    Total charge of molecule:    0

@    Final HF energy:             -24.866224963189                 
@    Nuclear repulsion:             2.146937881370
@    Electronic energy:           -27.013162844558

@    Final gradient norm:           0.000000000013

 
     Date and time (Linux)  : Sun Sep  8 21:01:34 2013
     Host name              : lpqlx131.ups-tlse.fr                    

 (Only coefficients >0.0100 are printed.)

 Molecular orbitals for symmetry species  1
 ------------------------------------------

    Orbital         1        2        3        4
   1 B   :1s     0.9929   0.2173  -0.1399  -0.0981
   2 B   :1s    -0.0268   0.4807  -0.2638  -0.3588
   3 B   :1s     0.0100   0.1989  -0.5920  -1.9470
   4 B   :2pz   -0.0023  -0.1899  -0.3290   0.1336
   5 B   :2pz   -0.0010   0.0408   0.3043  -1.9599
   6 H   :1s     0.0009   0.3698   0.2400   0.1261
   7 H   :1s    -0.0011   0.1062   0.2634   2.9376

 Molecular orbitals for symmetry species  2
 ------------------------------------------

    Orbital         1        2
   1 B   :2px   -0.3999   1.1233
   2 B   :2px    0.7243   0.9471

 Molecular orbitals for symmetry species  3
 ------------------------------------------

    Orbital         1        2
   1 B   :2py    0.6053   1.0272
   2 B   :2py   -0.5319   1.0671



 >>>> Total CPU  time used in SIRIUS :      0.03 seconds
 >>>> Total wall time used in SIRIUS :      0.03 seconds

 
     Date and time (Linux)  : Sun Sep  8 21:01:34 2013
     Host name              : lpqlx131.ups-tlse.fr                    


                     .---------------------------------------.
                     | End of Wave Function Section (SIRIUS) |
                     `---------------------------------------'



                    .------------------------------------------.
                    | Starting in Coupled Cluster Section (CC) |
                    `------------------------------------------'

  

 *******************************************************************************
 *******************************************************************************
 *                                                                             *
 *                                                                             *
 *                    START OF COUPLED CLUSTER CALCULATION                     *
 *                                                                             *
 *                                                                             *
 *******************************************************************************
 *******************************************************************************



 CCR12 ANSATZ =   1

 CCR12 APPROX =   2

   NRHF   :       1       0       1       0
   NRHFS  :       2       0       1       0
   NORB1  :       7       2       2       0
   NORB2  :      12       3       3       0

 Number of primary orbitals             :           11
 Number of secondary orbitals           :           18
 Total number of orbitals               :           29
 Total number of basis functions        :           29
 Number of (i|p) integrals              :            9
 Number of (i|p') integrals             :           24
 Number of (i|u') integrals             :           24
 Number of (Ip'|jL) integrals           :           24
 Number of (ip'|jq) integrals           :          378
 Threshold for R12 contributions            =  0.00000    
 Threshold for singular value decomposition = 0.100000E-11

 The B matrix is transformed into an orthogonal basis
 and inverted by diagonalization

 ******************************************************************************
 The MP2-R12/A and MP2-R12/B energies are computed as described in:
 W. Klopper, J. Chem. Phys. 120, 10890-10895 (2004).
 To avoid the hybride scheme, the keyword '.NO HYB'
 must be specified in the Dalton input file.
 ------------------------------------------------------------------------------
 Ansatz 1 is used and results are printed for approximations A and B.
 ******************************************************************************

 Core memory required by CCSD_R12 :           3084  (double words)

 Computation of (ip'|r12|jq) integrals done
 Backtransformation of (ip'|r12|jq') integrals done
 Computation of V^aj_kl intermediate done

 >>> Time used for V^aj_kl is    0.00 seconds

 Computation of (ip'|1/r12|jq) integrals done
 Computation of (i* p'|r12|jq) integrals done
 Computation of (i'p|r12|jq) integrals done
 Computation of (ip'|[T,r12]|jq) integrals done


                 +-----------------------------------------------+
                 ! MP2-R12 ansatz := (1 - P1 - P2 + P1*P2) * R12 !
                 +-----------------------------------------------+


 SECOND-ORDER PAIR ENERGIES:

                    1   -0.016795819    0.000000000
                    2   -0.003974111   -0.002817193
                    3   -0.012457849    0.000000000

 MP2 =   -0.036044971   -0.033227778   -0.002817193


                         +--------------------------------+
                         ! Auxiliary-basis MP2-R12 method !
                         +--------------------------------+


 SECOND-ORDER R12/A PAIR ENERGIES:

   1   -0.016795819   -0.034886626    0.000000000    0.000000000    0.680924        0.869962    
   2   -0.003974111   -0.034855381   -0.002817193   -0.022216633    0.680924        0.869962    
   3   -0.012457849   -0.048119091    0.000000000    0.000000000    0.680924        0.869962    

       -0.033227778   -0.117861098   -0.002817193   -0.022216633

              MP2-R12/A   correlation energy =   -0.140077731

 SECOND-ORDER R12/B PAIR ENERGIES:

   1   -0.016795819   -0.027398080    0.000000000    0.000000000     2.17028         2.23311    
   2   -0.003974111   -0.017826513   -0.002817193   -0.011868089     1.80182         1.86465    
   3   -0.012457849   -0.028662489    0.000000000    0.000000000     1.43336         1.49619    

       -0.033227778   -0.073887083   -0.002817193   -0.011868089

              MP2-R12/B   correlation energy =   -0.085755172
 Time for MP2-R12 part cpu :  0.37600000000000000     
 Time for MP2-R12 part wall:  0.38000002503395081     
   

 *******************************************************************
 *                                                                 *
 *<<<<<<<<<<                                             >>>>>>>>>>*
 *<<<<<<<<<< OUTPUT FROM COUPLED CLUSTER ENERGY PROGRAM  >>>>>>>>>>*
 *<<<<<<<<<<                                             >>>>>>>>>>*
 *                                                                 *
 *******************************************************************


             The Direct Coupled Cluster Energy Program
             -----------------------------------------


          Number of t1 amplitudes                 :         6
          Number of t2 amplitudes                 :        48
          Number of t2' amplitudes for R12 part   :         6
          Total number of amplitudes in ccsd      :        60

 Iter.  1: Coupled cluster MP2-R12/A energy :     -25.0063026940181885
     Conventional correlation energy:    -0.0360449713809103
     R12 correlation energy         :    -0.1040327594486883
     Total correlation energy       :    -0.1400777308295986


       Iteration no.:  1
       -----------------

       Time used in   RHS - TOTAL  :       0.07 seconds
       Norm^2 of omega1 after ccvec:        0.9675831043D-04
       Norm^2 of omega2 after ccvec:        0.6605106942D-29
       Norm^2 of Omegar12  in NXTAM:        0.5962252215D-29
 Iter.  1: Coupled cluster CC2-R12/A energy :     -25.0062824074527263
     Conventional correlation energy:    -0.0360246848154482
     R12 correlation energy         :    -0.1040327594486893
     Total correlation energy       :    -0.1400574442641375


       Iteration no.:  2
       -----------------

       Time used in   RHS - TOTAL  :       0.07 seconds
       Norm^2 of omega1 after ccvec:        0.6549308719D-05
       Norm^2 of omega2 after ccvec:        0.1522249272D-04
       Norm^2 of Omegar12  in NXTAM:        0.1251688661D-05
 Iter.  2: Coupled cluster CC2-R12/A energy :     -25.0065966334043175
     Conventional correlation energy:    -0.0360263205711746
     R12 correlation energy         :    -0.1043453496445532
     Total correlation energy       :    -0.1403716702157278


       Iteration no.:  3
       -----------------

       Time used in   RHS - TOTAL  :       0.07 seconds
       Norm^2 of omega1 after ccvec:        0.1881012690D-05
       Norm^2 of omega2 after ccvec:        0.7542276616D-06
       Norm^2 of Omegar12  in NXTAM:        0.5444521982D-07
 Iter.  3: Coupled cluster CC2-R12/A energy :     -25.0067024357474992
     Conventional correlation energy:    -0.0360107582200158
     R12 correlation energy         :    -0.1044667143388952
     Total correlation energy       :    -0.1404774725589110


       Iteration no.:  4
       -----------------

       Time used in   RHS - TOTAL  :       0.07 seconds
       Norm^2 of omega1 after ccvec:        0.8944577375D-07
       Norm^2 of omega2 after ccvec:        0.5659042484D-07
       Norm^2 of Omegar12  in NXTAM:        0.1214271990D-08
 Iter.  4: Coupled cluster CC2-R12/A energy :     -25.0067050691369381
     Conventional correlation energy:    -0.0360021222476696
     R12 correlation energy         :    -0.1044779837006782
     Total correlation energy       :    -0.1404801059483478


       Iteration no.:  5
       -----------------

       Time used in   RHS - TOTAL  :       0.07 seconds
       Norm^2 of omega1 after ccvec:        0.1316547278D-08
       Norm^2 of omega2 after ccvec:        0.3211026380D-09
       Norm^2 of Omegar12  in NXTAM:        0.1357910096D-10
 Iter.  5: Coupled cluster CC2-R12/A energy :     -25.0067051055155787
     Conventional correlation energy:    -0.0360008352494070
     R12 correlation energy         :    -0.1044793070775837
     Total correlation energy       :    -0.1404801423269907


       Iteration no.:  6
       -----------------

       Time used in   RHS - TOTAL  :       0.07 seconds
       Norm^2 of omega1 after ccvec:        0.2661138256D-10
       Norm^2 of omega2 after ccvec:        0.1212447868D-10
       Norm^2 of Omegar12  in NXTAM:        0.6645941668D-12
 Iter.  6: Coupled cluster CC2-R12/A energy :     -25.0067051277287256
     Conventional correlation energy:    -0.0360006089046614
     R12 correlation energy         :    -0.1044795556354734
     Total correlation energy       :    -0.1404801645401348


       Iteration no.:  7
       -----------------

       Time used in   RHS - TOTAL  :       0.07 seconds
       Norm^2 of omega1 after ccvec:        0.2584360906D-12
       Norm^2 of omega2 after ccvec:        0.1602546530D-12
       Norm^2 of Omegar12  in NXTAM:        0.2229422047D-14
 Iter.  7: Coupled cluster CC2-R12/A energy :     -25.0067051380625465
     Conventional correlation energy:    -0.0360006182241577
     R12 correlation energy         :    -0.1044795566497985
     Total correlation energy       :    -0.1404801748739562


       Iteration no.:  8
       -----------------

       Time used in   RHS - TOTAL  :       0.07 seconds
       Norm^2 of omega1 after ccvec:        0.2924703763D-14
       Norm^2 of omega2 after ccvec:        0.7234310740D-15
       Norm^2 of Omegar12  in NXTAM:        0.1862139679D-16
 Iter.  8: Coupled cluster CC2-R12/A energy :     -25.0067051366611359
     Conventional correlation energy:    -0.0360006173668879
     R12 correlation energy         :    -0.1044795561056592
     Total correlation energy       :    -0.1404801734725471


       Iteration no.:  9
       -----------------

       Time used in   RHS - TOTAL  :       0.07 seconds
       Norm^2 of omega1 after ccvec:        0.8232652849D-16
       Norm^2 of omega2 after ccvec:        0.5478070217D-16
       Norm^2 of Omegar12  in NXTAM:        0.1004234646D-17
 Iter.  9: Coupled cluster CC2-R12/A energy :     -25.0067051367077369
     Conventional correlation energy:    -0.0360006174250387
     R12 correlation energy         :    -0.1044795560941073
     Total correlation energy       :    -0.1404801735191460


       Iteration no.: 10
       -----------------

       Time used in   RHS - TOTAL  :       0.07 seconds
       Norm^2 of omega1 after ccvec:        0.8444965999D-17
       Norm^2 of omega2 after ccvec:        0.2902307018D-17
       Norm^2 of Omegar12  in NXTAM:        0.1484230461D-18
 Iter. 10: Coupled cluster CC2-R12/A energy :     -25.0067051367458824
     Conventional correlation energy:    -0.0360006174012391
     R12 correlation energy         :    -0.1044795561560528
     Total correlation energy       :    -0.1404801735572918


       Iteration no.: 11
       -----------------

       Time used in   RHS - TOTAL  :       0.08 seconds
       Norm^2 of omega1 after ccvec:        0.5162639421D-19
       Norm^2 of omega2 after ccvec:        0.1951073981D-19
       Norm^2 of Omegar12  in NXTAM:        0.6408298197D-21
 Iter. 11: Coupled cluster CC2-R12/A energy :     -25.0067051367482271
     Conventional correlation energy:    -0.0360006174027347
     R12 correlation energy         :    -0.1044795561569019
     Total correlation energy       :    -0.1404801735596366


       Iteration no.: 12
       -----------------

       Time used in   RHS - TOTAL  :       0.07 seconds
       Norm^2 of omega1 after ccvec:        0.6233098465D-20
       Norm^2 of omega2 after ccvec:        0.6597373535D-20
       Norm^2 of Omegar12  in NXTAM:        0.3854931939D-21
 Iter. 12: Coupled cluster CC2-R12/A energy :     -25.0067051367538191
     Conventional correlation energy:    -0.0360006174009690
     R12 correlation energy         :    -0.1044795561642603
     Total correlation energy       :    -0.1404801735652293


       Iteration no.: 13
       -----------------

       Time used in   RHS - TOTAL  :       0.07 seconds
       Norm^2 of omega1 after ccvec:        0.3569124096D-21
       Norm^2 of omega2 after ccvec:        0.1783884555D-21
       Norm^2 of Omegar12  in NXTAM:        0.2385936976D-23
 Iter. 13: Coupled cluster CC2-R12/A energy :     -25.0067051367543698
     Conventional correlation energy:    -0.0360006174003864
     R12 correlation energy         :    -0.1044795561653948
     Total correlation energy       :    -0.1404801735657812


       Iteration no.: 14
       -----------------

       Time used in   RHS - TOTAL  :       0.08 seconds
       Norm^2 of omega1 after ccvec:        0.2581345271D-22
       Norm^2 of omega2 after ccvec:        0.1664138445D-22
       Norm^2 of Omegar12  in NXTAM:        0.7845631049D-24
 Iter. 14: Coupled cluster CC2-R12/A energy :     -25.0067051367546505
     Conventional correlation energy:    -0.0360006174003260
     R12 correlation energy         :    -0.1044795561657361
     Total correlation energy       :    -0.1404801735660621


 CC2-R12/A energy converged to within   0.10D-11 is          -25.006705136755
 Final 2-norm of the CC vector function:  6.51573765D-12
 R12       energy converged to within   0.10D-11 is     -0.104479556


                    +------------------------------------------+
                    ! Largest amplitudes in converged solution !
                    +------------------------------------------+



          CC_PRAM:Overall Contribution of the Different Components
          --------------------------------------------------------



          Single Excitation Contribution :               1.9759 %

          Double Excitation Contribution :              98.0241 %

          ||T1||/||T2||                  :               0.1420

          Tau1 diagnostic                :               0.0121

          Norm of Total Amplitude Vector :               0.1728


 +=============================================================================+
 | symmetry|  orbital index  |   Excitation Numbers             |   Amplitude  |
 |  Index  |   a   b   i   j |      NAI      NBJ |     NAIBJ    |              |
 +=============================================================================+
 | 1   1   |   1       1     |        1          |              |    0.022346  |
 | 3   3   |   1       1     |        6          |              |    0.007429  |
 +-----------------------------------------------------------------------------+
 | 1 1 1 1 |   1   1   1   1 |        1        1 |            1 |   -0.052998  |
 | 3 3 3 3 |   1   1   1   1 |        6        6 |           21 |   -0.061058  |
 | 2 2 1 1 |   1   1   1   1 |        1        1 |           22 |   -0.033388  |
 | 1 1 3 3 |   1   1   1   1 |        2        2 |           27 |   -0.117880  |
 +=============================================================================+


          Norm of Printed Amplitude Vector :             0.1487

          Printed all single excitations greater than 0.004686

          Printed all double excitations greater than 0.033002





             +-------------------------------------------------------+
             ! Final results from the Coupled Cluster energy program !
             +-------------------------------------------------------+



            Total SCF   energy:                   -24.8662249632

            Total MP2-R12/A energy:               -25.0063026940

            Total CC2-R12/A energy:               -25.0067051368




                   +--------------------------------------------+
                   ! Calculating singlet intermediates for CCLR !
                   +--------------------------------------------+



       Time used in   RHS - TOTAL  :       0.07 seconds


            E-intermediates calculated 
            Fock-intermediate calculated 


   

 *******************************************************************
 *                                                                 *
 *<<<<<<<<<< OUTPUT FROM COUPLED CLUSTER LINEAR RESPONSE >>>>>>>>>>*
 *                                                                 *
 *<<<<<<<<<<     CALCULATION OF EXCITATION ENERGIES      >>>>>>>>>>*
 *                                                                 *
 *******************************************************************



                            +--------------------------+
                            !  CC2 Excitation Energies !
                            +--------------------------+


 --------------------------
 Symmetry class Nr.:     1
 Multiplicity      :     1
 --------------------------

 Length of Excitation vectors in this class is:        60
 Converging for  4 roots.
  >> output from FNDMN3 <<
  NUMBER OF ELEMENTS OBTAINED IN FNDMN3            7
  FROM FNDMN3 : 
    PLACES OF LOWEST ELEMENTS 
     1 :     33      1     52     35      6     38     42
  MIN AND MAX IN SELECTED SUPSPACE   0.36034152919687312       0.85050024760123488     
 Start vector guessed from diagonal
 ... selected element no. 33
 Start vector guessed from diagonal
 ... selected element no.  1
 Start vector guessed from diagonal
 ... selected element no. 52
 Start vector guessed from diagonal
 ... selected element no. 35



 >>>>> COUPLED CLUSTER RESPONSE SOLVER <<<<<

    Iter  #Vectors  time (min)   residual
    --------------------------------------

 REDUCED EIGENVALUES real part:

               Column   1
       1       0.32115959
       2       0.41181559
       3       0.60875304
       4       0.68458525
    ==== End of matrix output ====
  
 ROOT:  1 RESIDUAL TOT: 1.48681D-01
 ROOT:  2 RESIDUAL TOT: 1.62127D-01
 ROOT:  3 RESIDUAL TOT: 1.47827D-03
 ROOT:  4 RESIDUAL TOT: 3.51545D-02

 (CCORT) new  b-vector no.  4
 is removed because of linear dependence;
 norm of vector after Gram-Schmidt's orthogonalization  1.74331D-27
  After Gram Schmidt orthonormalization
          -1  vectors with norm le:   1.0000000000000000E-035  REMOVED

 (CCORT)  trial vectors reduced from  4 to  3
      1       4         0.00     0.16E+00

 Lowest eigenvalues in this iteration: 

               Column   1
       1       0.32115959
       2       0.41181559
       3       0.60875304
       4       0.68458525
    ==== End of matrix output ====
 Dimension of the reduced space:     7
 >>> TIME USED IN THIS MICRO ITERATION        0.04


 REDUCED EIGENVALUES real part:

               Column   1
       1       0.28670564
       2       0.38636403
       3       0.56842130
       4       0.60878031
    ==== End of matrix output ====
  
 ROOT:  1 RESIDUAL TOT: 3.63038D-02
 ROOT:  2 RESIDUAL TOT: 3.20943D-02
 ROOT:  3 RESIDUAL TOT: 1.14607D-01
 ROOT:  4 RESIDUAL TOT: 4.35403D-03
      2       3         0.00     0.11E+00

 Lowest eigenvalues in this iteration: 

               Column   1
       1       0.28670564
       2       0.38636403
       3       0.56842130
       4       0.60878031
    ==== End of matrix output ====
 Dimension of the reduced space:    11
 >>> TIME USED IN THIS MICRO ITERATION        0.03


 REDUCED EIGENVALUES real part:

               Column   1
       1       0.28420988
       2       0.38472163
       3       0.53550069
       4       0.60876333
    ==== End of matrix output ====
  
 ROOT:  1 RESIDUAL TOT: 6.53204D-03
 ROOT:  2 RESIDUAL TOT: 7.36841D-03
 ROOT:  3 RESIDUAL TOT: 4.96168D-02
 ROOT:  4 RESIDUAL TOT: 1.19233D-03
      3       4         0.00     0.50E-01

 Lowest eigenvalues in this iteration: 

               Column   1
       1       0.28420988
       2       0.38472163
       3       0.53550069
       4       0.60876333
    ==== End of matrix output ====
 Dimension of the reduced space:    15
 >>> TIME USED IN THIS MICRO ITERATION        0.03


 REDUCED EIGENVALUES real part:

               Column   1
       1       0.28438732
       2       0.38485674
       3       0.53192532
       4       0.60876121
    ==== End of matrix output ====
  
 ROOT:  1 RESIDUAL TOT: 1.22855D-03
 ROOT:  2 RESIDUAL TOT: 1.85226D-03
 ROOT:  3 RESIDUAL TOT: 1.99846D-02
 ROOT:  4 RESIDUAL TOT: 4.20168D-04
      4       4         0.00     0.20E-01

 Lowest eigenvalues in this iteration: 

               Column   1
       1       0.28438732
       2       0.38485674
       3       0.53192532
       4       0.60876121
    ==== End of matrix output ====
 Dimension of the reduced space:    19
 >>> TIME USED IN THIS MICRO ITERATION        0.04


 REDUCED EIGENVALUES real part:

               Column   1
       1       0.28439542
       2       0.38487444
       3       0.53131436
       4       0.60876115
    ==== End of matrix output ====
  
 ROOT:  1 RESIDUAL TOT: 7.75440D-05
 ROOT:  2 RESIDUAL TOT: 1.66584D-04
 ROOT:  3 RESIDUAL TOT: 4.23760D-03
 ROOT:  4 RESIDUAL TOT: 1.34252D-04
      5       4         0.00     0.42E-02

 Lowest eigenvalues in this iteration: 

               Column   1
       1       0.28439542
       2       0.38487444
       3       0.53131436
       4       0.60876115
    ==== End of matrix output ====
 Dimension of the reduced space:    23
 >>> TIME USED IN THIS MICRO ITERATION        0.03


 REDUCED EIGENVALUES real part:

               Column   1
       1       0.28439591
       2       0.38487425
       3       0.53130560
       4       0.60876123
    ==== End of matrix output ====
  
 ROOT:  1 RESIDUAL TOT: 7.79749D-06
 ROOT:  2 RESIDUAL TOT: 2.49978D-05
 ROOT:  3 RESIDUAL TOT: 8.75714D-04
 ROOT:  4 RESIDUAL TOT: 4.90323D-05
      6       4         0.00     0.88E-03

 Lowest eigenvalues in this iteration: 

               Column   1
       1       0.28439591
       2       0.38487425
       3       0.53130560
       4       0.60876123
    ==== End of matrix output ====
 Dimension of the reduced space:    27
 >>> TIME USED IN THIS MICRO ITERATION        0.04


 REDUCED EIGENVALUES real part:

               Column   1
       1       0.28439576
       2       0.38487399
       3       0.53130092
       4       0.60876123
    ==== End of matrix output ====
  
 ROOT:  1 RESIDUAL TOT: 6.50578D-07
 ROOT:  2 RESIDUAL TOT: 3.25303D-06
 ROOT:  3 RESIDUAL TOT: 1.88299D-04
 ROOT:  4 RESIDUAL TOT: 2.22746D-05
      7       4         0.00     0.19E-03

 Lowest eigenvalues in this iteration: 

               Column   1
       1       0.28439576
       2       0.38487399
       3       0.53130092
       4       0.60876123
    ==== End of matrix output ====
 Dimension of the reduced space:    31
 >>> TIME USED IN THIS MICRO ITERATION        0.03


 REDUCED EIGENVALUES real part:

               Column   1
       1       0.28439575
       2       0.38487396
       3       0.53130144
       4       0.60876123
    ==== End of matrix output ====
  
 ROOT:  1 RESIDUAL TOT: 2.53055D-08
 ROOT:  2 RESIDUAL TOT: 1.77196D-07
 ROOT:  3 RESIDUAL TOT: 3.37720D-05
 ROOT:  4 RESIDUAL TOT: 7.80671D-06
      8       4         0.00     0.34E-04

 Lowest eigenvalues in this iteration: 

               Column   1
       1       0.28439575
       2       0.38487396
       3       0.53130144
       4       0.60876123
    ==== End of matrix output ====
 Dimension of the reduced space:    35
 >>> TIME USED IN THIS MICRO ITERATION        0.03


 REDUCED EIGENVALUES real part:

               Column   1
       1       0.28439575
       2       0.38487397
       3       0.53130115
       4       0.60876122
    ==== End of matrix output ====
  
 ROOT:  1 RESIDUAL TOT: 1.10022D-09
 ROOT:  2 RESIDUAL TOT: 1.09264D-08
 ROOT:  3 RESIDUAL TOT: 3.76555D-06
 ROOT:  4 RESIDUAL TOT: 1.26444D-06
      9       4         0.00     0.38E-05

 Lowest eigenvalues in this iteration: 

               Column   1
       1       0.28439575
       2       0.38487397
       3       0.53130115
       4       0.60876122
    ==== End of matrix output ====
 Dimension of the reduced space:    39
 >>> TIME USED IN THIS MICRO ITERATION        0.04


 REDUCED EIGENVALUES real part:

               Column   1
       1       0.28439575
       2       0.38487397
       3       0.53130111
       4       0.60876122
    ==== End of matrix output ====
  
 ROOT:  1 RESIDUAL TOT: 3.15366D-11
 ROOT:  1 HAS CONVERGED. RESIDUAL TOT: 3.15366D-11
 ROOT:  2 RESIDUAL TOT: 5.20800D-10
 ROOT:  3 RESIDUAL TOT: 3.11878D-07
 ROOT:  4 RESIDUAL TOT: 1.07457D-07
     10       4         0.00     0.31E-06

 Lowest eigenvalues in this iteration: 

               Column   1
       1       0.28439575
       2       0.38487397
       3       0.53130111
       4       0.60876122
    ==== End of matrix output ====
 Dimension of the reduced space:    42
 >>> TIME USED IN THIS MICRO ITERATION        0.04


 REDUCED EIGENVALUES real part:

               Column   1
       1       0.28439575
       2       0.38487397
       3       0.53130112
       4       0.60876122
    ==== End of matrix output ====
  
 ROOT:  1 RESIDUAL TOT: 6.26229D-12
 ROOT:  1 HAS CONVERGED. RESIDUAL TOT: 6.26229D-12
 ROOT:  2 RESIDUAL TOT: 2.56453D-11
 ROOT:  2 HAS CONVERGED. RESIDUAL TOT: 2.56453D-11
 ROOT:  3 RESIDUAL TOT: 2.43711D-08
 ROOT:  4 RESIDUAL TOT: 9.96661D-09
     11       3         0.00     0.24E-07

 Lowest eigenvalues in this iteration: 

               Column   1
       1       0.28439575
       2       0.38487397
       3       0.53130112
       4       0.60876122
    ==== End of matrix output ====
 Dimension of the reduced space:    44
 >>> TIME USED IN THIS MICRO ITERATION        0.04


 REDUCED EIGENVALUES real part:

               Column   1
       1       0.28439575
       2       0.38487397
       3       0.53130112
       4       0.60876122
    ==== End of matrix output ====
  
 ROOT:  1 RESIDUAL TOT: 4.98980D-12
 ROOT:  1 HAS CONVERGED. RESIDUAL TOT: 4.98980D-12
 ROOT:  2 RESIDUAL TOT: 1.39887D-11
 ROOT:  2 HAS CONVERGED. RESIDUAL TOT: 1.39887D-11
 ROOT:  3 RESIDUAL TOT: 1.83030D-09
 ROOT:  4 RESIDUAL TOT: 1.33491D-09
     12       2         0.00     0.18E-08

 Lowest eigenvalues in this iteration: 

               Column   1
       1       0.28439575
       2       0.38487397
       3       0.53130112
       4       0.60876122
    ==== End of matrix output ====
 Dimension of the reduced space:    46
 >>> TIME USED IN THIS MICRO ITERATION        0.04


 REDUCED EIGENVALUES real part:

               Column   1
       1       0.28439575
       2       0.38487397
       3       0.53130112
       4       0.60876122
    ==== End of matrix output ====
  
 ROOT:  1 RESIDUAL TOT: 4.49998D-12
 ROOT:  1 HAS CONVERGED. RESIDUAL TOT: 4.49998D-12
 ROOT:  2 RESIDUAL TOT: 1.38590D-11
 ROOT:  2 HAS CONVERGED. RESIDUAL TOT: 1.38590D-11
 ROOT:  3 RESIDUAL TOT: 9.82920D-11
 ROOT:  3 HAS CONVERGED. RESIDUAL TOT: 9.82920D-11
 ROOT:  4 RESIDUAL TOT: 8.30252D-11
 ROOT:  4 HAS CONVERGED. RESIDUAL TOT: 8.30252D-11
     13       2         0.00     0.98E-10

 Lowest eigenvalues in this iteration: 

               Column   1
       1       0.28439575
       2       0.38487397
       3       0.53130112
       4       0.60876122
    ==== End of matrix output ====
 Dimension of the reduced space:    46
 >>> TIME USED IN THIS MICRO ITERATION        0.03

    --------------------------------------
    converged in 13 iterations
    threshold:    0.10E-09


         Routine          Time (min)
         ---------------------------
         CC_TRDRV            0.01
         CCRED               0.00
         CCNEX               0.00
         ---------------------------
         Total time          0.01


 >>>> Total CPU  time used in CCEQ_SOLV:   0.46 seconds
 >>>> Total wall time used in CCEQ_SOLV:   0.46 seconds


 >>>>>>>>>>>>>>>>>>>>> <<<<<<<<<<<<<<<<<<<<<



  Final eigenvalues :
 =====================
 (convergence threshold:  1.00D-10)

    1   0.2843957524
    2   0.3848739653
    3   0.5313011154
    4   0.6087612237


 SYMMETRY CLASS NR.    1
 MULTIPLICITY          1


 CC2-R12/A  right excitation energies:
 ====================================
 (conversion factor used: 1 au = 27.2113957 eV)

 Excitation no.       Hartree               eV 
 --------------       -------               --
         1            0.2843957524        7.7388020863
         2            0.3848739653       10.4729533433
         3            0.5313011154       14.4574387829
         4            0.6087612237       16.5652355489


 Total excited state energies for states of symmetry/spin    1    1
 Excitation no.       Energy (Hartree) 
 ------------------------------------- 
@@    1    1           -24.722309384354080
@@    1    2           -24.621831171412708
@@    1    3           -24.475404021333080
@@    1    4           -24.397943913102740


 Analysis of the Coupled Cluster Excitation Vector Number :  1
 -------------------------------------------------------------

          Excitation Energy :                             7.7388 eV


          CC_PRAM:Overall Contribution of the Different Components
          --------------------------------------------------------



          Single Excitation Contribution :              82.0304 %

          Double Excitation Contribution :              17.9696 %

          ||T1||/||T2||                  :               2.1366

          Norm of Total Amplitude Vector :               0.9906


 +=============================================================================+
 | symmetry|  orbital index  |   Excitation Numbers             |   Amplitude  |
 |  Index  |   a   b   i   j |      NAI      NBJ |     NAIBJ    |              |
 +=============================================================================+
 | 1   1   |   1       1     |        1          |              |    0.886470  |
 +-----------------------------------------------------------------------------+
 | 1 1 1 1 |   1   1   1   1 |        1        1 |            1 |    0.112155  |
 | 1 1 3 3 |   1   1   1   1 |        2        2 |           27 |   -0.391366  |
 +=============================================================================+


          Norm of Printed Amplitude Vector :             0.9755

          Printed all single excitations greater than 0.150951

          Printed all double excitations greater than 0.070651


 Analysis of the Coupled Cluster Excitation Vector Number :  2
 -------------------------------------------------------------

          Excitation Energy :                            10.4730 eV


          CC_PRAM:Overall Contribution of the Different Components
          --------------------------------------------------------



          Single Excitation Contribution :              36.2731 %

          Double Excitation Contribution :              63.7269 %

          ||T1||/||T2||                  :               0.7545

          Norm of Total Amplitude Vector :               0.9938


 +=============================================================================+
 | symmetry|  orbital index  |   Excitation Numbers             |   Amplitude  |
 |  Index  |   a   b   i   j |      NAI      NBJ |     NAIBJ    |              |
 +=============================================================================+
 | 1   1   |   1       1     |        1          |              |    0.587706  |
 +-----------------------------------------------------------------------------+
 | 1 1 3 3 |   1   1   1   1 |        2        2 |           27 |    0.784877  |
 +=============================================================================+


          Norm of Printed Amplitude Vector :             0.9805

          Printed all single excitations greater than 0.100379

          Printed all double excitations greater than 0.133049


 Analysis of the Coupled Cluster Excitation Vector Number :  3
 -------------------------------------------------------------

          Excitation Energy :                            14.4574 eV


          CC_PRAM:Overall Contribution of the Different Components
          --------------------------------------------------------



          Single Excitation Contribution :              92.7521 %

          Double Excitation Contribution :               7.2479 %

          ||T1||/||T2||                  :               3.5773

          Norm of Total Amplitude Vector :               0.9952


 +=============================================================================+
 | symmetry|  orbital index  |   Excitation Numbers             |   Amplitude  |
 |  Index  |   a   b   i   j |      NAI      NBJ |     NAIBJ    |              |
 +=============================================================================+
 | 1   1   |   2       1     |        2          |              |    0.300389  |
 | 1   1   |   3       1     |        3          |              |    0.212122  |
 | 3   3   |   1       1     |        6          |              |    0.874373  |
 +-----------------------------------------------------------------------------+
 | 1 1 3 3 |   2   1   1   1 |        3        2 |           29 |   -0.109575  |
 | 1 1 3 3 |   3   1   1   1 |        4        2 |           32 |   -0.206460  |
 | 1 1 3 3 |   4   1   1   1 |        5        2 |           36 |    0.073816  |
 | 1 1 3 3 |   3   2   1   1 |        4        3 |           33 |   -0.059228  |
 +=============================================================================+


          Norm of Printed Amplitude Vector :             0.9815

          Printed all single excitations greater than 0.160513

          Printed all double excitations greater than 0.044870


 Analysis of the Coupled Cluster Excitation Vector Number :  4
 -------------------------------------------------------------

          Excitation Energy :                            16.5652 eV


          CC_PRAM:Overall Contribution of the Different Components
          --------------------------------------------------------



          Single Excitation Contribution :               0.0517 %

          Double Excitation Contribution :              99.9483 %

          ||T1||/||T2||                  :               0.0227

          Norm of Total Amplitude Vector :               1.0000


 +=============================================================================+
 | symmetry|  orbital index  |   Excitation Numbers             |   Amplitude  |
 |  Index  |   a   b   i   j |      NAI      NBJ |     NAIBJ    |              |
 +=============================================================================+
 | 1   1   |   2       1     |        2          |              |    0.020463  |
 +-----------------------------------------------------------------------------+
 | 2 2 3 3 |   1   1   1   1 |        1        1 |           46 |    0.999648  |
 +=============================================================================+


          Norm of Printed Amplitude Vector :             0.9999

          Printed all single excitations greater than 0.010000

          Printed all double excitations greater than 0.166624

 --------------------------
 Symmetry class Nr.:     1
 Multiplicity      :     3
 --------------------------

 Length of Excitation vectors in this class is:       108
 No Excitation Energies calculated in this symmetry class


 *******************************************************************************

 --------------------------
 Symmetry class Nr.:     2
 Multiplicity      :     1
 --------------------------

 Length of Excitation vectors in this class is:        26
 Converging for  4 roots.
  >> output from FNDMN3 <<
  NUMBER OF ELEMENTS OBTAINED IN FNDMN3            7
  FROM FNDMN3 : 
    PLACES OF LOWEST ELEMENTS 
     1 :     16      1     17     18     22     19      2
  MIN AND MAX IN SELECTED SUPSPACE   0.48454728349291531        1.1071873633005991     
 Start vector guessed from diagonal
 ... selected element no. 16
 Start vector guessed from diagonal
 ... selected element no.  1
 Start vector guessed from diagonal
 ... selected element no. 17
 Start vector guessed from diagonal
 ... selected element no. 18



 >>>>> COUPLED CLUSTER RESPONSE SOLVER <<<<<

    Iter  #Vectors  time (min)   residual
    --------------------------------------

 REDUCED EIGENVALUES real part:

               Column   1
       1       0.44282209
       2       0.50872840
       3       0.80860023
       4       0.88273280
    ==== End of matrix output ====
  
 ROOT:  1 RESIDUAL TOT: 1.58112D-01
 ROOT:  2 RESIDUAL TOT: 1.19142D-01
 ROOT:  3 RESIDUAL TOT: 1.43954D-02
 ROOT:  4 RESIDUAL TOT: 1.46939D-03

 (CCORT) new  b-vector no.  2
 is removed because of linear dependence;
 norm of vector after Gram-Schmidt's orthogonalization  1.66111D-32

 (CCORT) new  b-vector no.  3
 is removed because of linear dependence;
 norm of vector after Gram-Schmidt's orthogonalization  6.36761D-33

 (CCORT) new  b-vector no.  4
 is removed because of linear dependence;
 norm of vector after Gram-Schmidt's orthogonalization  5.82594D-33
  After Gram Schmidt orthonormalization
          -3  vectors with norm le:   1.0000000000000000E-035  REMOVED

 (CCORT)  trial vectors reduced from  4 to  1
      1       4         0.00     0.16E+00

 Lowest eigenvalues in this iteration: 

               Column   1
       1       0.44282209
       2       0.50872840
       3       0.80860023
       4       0.88273280
    ==== End of matrix output ====
 Dimension of the reduced space:     5
 >>> TIME USED IN THIS MICRO ITERATION        0.03


 REDUCED EIGENVALUES real part:

               Column   1
       1       0.41090498
       2       0.49762570
       3       0.80829131
       4       0.88272885
    ==== End of matrix output ====
  
 ROOT:  1 RESIDUAL TOT: 3.53768D-02
 ROOT:  2 RESIDUAL TOT: 1.71617D-02
 ROOT:  3 RESIDUAL TOT: 5.49290D-03
 ROOT:  4 RESIDUAL TOT: 6.86422D-04

 (CCORT) new  b-vector no.  3
 is removed because of linear dependence;
 norm of vector after Gram-Schmidt's orthogonalization  2.64335D-30

 (CCORT) new  b-vector no.  4
 is removed because of linear dependence;
 norm of vector after Gram-Schmidt's orthogonalization  3.47907D-30
  After Gram Schmidt orthonormalization
          -2  vectors with norm le:   1.0000000000000000E-035  REMOVED

 (CCORT)  trial vectors reduced from  4 to  2
      2       1         0.00     0.35E-01

 Lowest eigenvalues in this iteration: 

               Column   1
       1       0.41090498
       2       0.49762570
       3       0.80829131
       4       0.88272885
    ==== End of matrix output ====
 Dimension of the reduced space:     7
 >>> TIME USED IN THIS MICRO ITERATION        0.03


 REDUCED EIGENVALUES real part:

               Column   1
       1       0.40859384
       2       0.49694635
       3       0.79286819
       4       0.80924813
    ==== End of matrix output ====
  
 ROOT:  1 RESIDUAL TOT: 2.78091D-03
 ROOT:  2 RESIDUAL TOT: 2.13101D-03
 ROOT:  3 RESIDUAL TOT: 9.45575D-02
 ROOT:  4 RESIDUAL TOT: 2.43555D-02

 (CCORT) new  b-vector no.  4
 is removed because of linear dependence;
 norm of vector after Gram-Schmidt's orthogonalization  1.68980D-30
  After Gram Schmidt orthonormalization
          -1  vectors with norm le:   1.0000000000000000E-035  REMOVED

 (CCORT)  trial vectors reduced from  4 to  3
      3       2         0.00     0.95E-01

 Lowest eigenvalues in this iteration: 

               Column   1
       1       0.40859384
       2       0.49694635
       3       0.79286819
       4       0.80924813
    ==== End of matrix output ====
 Dimension of the reduced space:    10
 >>> TIME USED IN THIS MICRO ITERATION        0.03


 REDUCED EIGENVALUES real part:

               Column   1
       1       0.40858936
       2       0.49694299
       3       0.78390351
       4       0.80885830
    ==== End of matrix output ====
  
 ROOT:  1 RESIDUAL TOT: 3.26536D-04
 ROOT:  2 RESIDUAL TOT: 3.06176D-04
 ROOT:  3 RESIDUAL TOT: 2.58377D-02
 ROOT:  4 RESIDUAL TOT: 4.43768D-03

 (CCORT) new  b-vector no.  3
 is removed because of linear dependence;
 norm of vector after Gram-Schmidt's orthogonalization  1.75253D-23

 (CCORT) new  b-vector no.  4
 is removed because of linear dependence;
 norm of vector after Gram-Schmidt's orthogonalization  2.36447D-23
  After Gram Schmidt orthonormalization
          -2  vectors with norm le:   1.0000000000000000E-035  REMOVED

 (CCORT)  trial vectors reduced from  4 to  2
      4       3         0.00     0.26E-01

 Lowest eigenvalues in this iteration: 

               Column   1
       1       0.40858936
       2       0.49694299
       3       0.78390351
       4       0.80885830
    ==== End of matrix output ====
 Dimension of the reduced space:    12
 >>> TIME USED IN THIS MICRO ITERATION        0.03


 REDUCED EIGENVALUES real part:

               Column   1
       1       0.40858918
       2       0.49694292
       3       0.78302836
       4       0.80882583
    ==== End of matrix output ====
  
 ROOT:  1 RESIDUAL TOT: 2.56021D-05
 ROOT:  2 RESIDUAL TOT: 3.27764D-05
 ROOT:  3 RESIDUAL TOT: 8.69755D-03
 ROOT:  4 RESIDUAL TOT: 1.69425D-03

 (CCORT) new  b-vector no.  3
 is removed because of linear dependence;
 norm of vector after Gram-Schmidt's orthogonalization  5.52893D-22

 (CCORT) new  b-vector no.  4
 is removed because of linear dependence;
 norm of vector after Gram-Schmidt's orthogonalization  7.11456D-22
  After Gram Schmidt orthonormalization
          -2  vectors with norm le:   1.0000000000000000E-035  REMOVED

 (CCORT)  trial vectors reduced from  4 to  2
      5       2         0.00     0.87E-02

 Lowest eigenvalues in this iteration: 

               Column   1
       1       0.40858918
       2       0.49694292
       3       0.78302836
       4       0.80882583
    ==== End of matrix output ====
 Dimension of the reduced space:    14
 >>> TIME USED IN THIS MICRO ITERATION        0.03


 REDUCED EIGENVALUES real part:

               Column   1
       1       0.40858932
       2       0.49694301
       3       0.78319472
       4       0.80882940
    ==== End of matrix output ====
  
 ROOT:  1 RESIDUAL TOT: 1.15187D-06
 ROOT:  2 RESIDUAL TOT: 1.94732D-06
 ROOT:  3 RESIDUAL TOT: 1.34931D-03
 ROOT:  4 RESIDUAL TOT: 2.93158D-04

 (CCORT) new  b-vector no.  4
 is removed because of linear dependence;
 norm of vector after Gram-Schmidt's orthogonalization  2.66963D-22
  After Gram Schmidt orthonormalization
          -1  vectors with norm le:   1.0000000000000000E-035  REMOVED

 (CCORT)  trial vectors reduced from  4 to  3
      6       2         0.00     0.13E-02

 Lowest eigenvalues in this iteration: 

               Column   1
       1       0.40858932
       2       0.49694301
       3       0.78319472
       4       0.80882940
    ==== End of matrix output ====
 Dimension of the reduced space:    17
 >>> TIME USED IN THIS MICRO ITERATION        0.03


 REDUCED EIGENVALUES real part:

               Column   1
       1       0.40858931
       2       0.49694300
       3       0.78319214
       4       0.80882959
    ==== End of matrix output ====
  
 ROOT:  1 RESIDUAL TOT: 7.50948D-08
 ROOT:  2 RESIDUAL TOT: 1.67368D-07
 ROOT:  3 RESIDUAL TOT: 2.51435D-04
 ROOT:  4 RESIDUAL TOT: 5.84303D-05

 (CCORT) new  b-vector no.  4
 is removed because of linear dependence;
 norm of vector after Gram-Schmidt's orthogonalization  7.64022D-21
  After Gram Schmidt orthonormalization
          -1  vectors with norm le:   1.0000000000000000E-035  REMOVED

 (CCORT)  trial vectors reduced from  4 to  3
      7       3         0.00     0.25E-03

 Lowest eigenvalues in this iteration: 

               Column   1
       1       0.40858931
       2       0.49694300
       3       0.78319214
       4       0.80882959
    ==== End of matrix output ====
 Dimension of the reduced space:    20
 >>> TIME USED IN THIS MICRO ITERATION        0.03


 REDUCED EIGENVALUES real part:

               Column   1
       1       0.40858931
       2       0.49694300
       3       0.78318524
       4       0.80882931
    ==== End of matrix output ====
  
 ROOT:  1 RESIDUAL TOT: 1.76405D-09
 ROOT:  2 RESIDUAL TOT: 5.19065D-09
 ROOT:  3 RESIDUAL TOT: 1.80147D-05
 ROOT:  4 RESIDUAL TOT: 4.51772D-06
      8       3         0.00     0.18E-04

 Lowest eigenvalues in this iteration: 

               Column   1
       1       0.40858931
       2       0.49694300
       3       0.78318524
       4       0.80882931
    ==== End of matrix output ====
 Dimension of the reduced space:    24
 >>> TIME USED IN THIS MICRO ITERATION        0.03


 REDUCED EIGENVALUES real part:

               Column   1
       1       0.40858931
       2       0.49694300
       3       0.78318504
       4       0.80882932
    ==== End of matrix output ====
  
 ROOT:  1 RESIDUAL TOT: 1.71244D-11
 ROOT:  1 HAS CONVERGED. RESIDUAL TOT: 1.71244D-11
 ROOT:  2 RESIDUAL TOT: 6.63892D-11
 ROOT:  2 HAS CONVERGED. RESIDUAL TOT: 6.63892D-11
 ROOT:  3 RESIDUAL TOT: 3.95236D-07
 ROOT:  4 RESIDUAL TOT: 1.03006D-07
[...]

               Column   1
       1       0.04918762
       2       0.45051552
       3       0.85300756
       4       0.85369689
    ==== End of matrix output ====
 Dimension of the reduced space:    13
 >>> TIME USED IN THIS MICRO ITERATION        0.03


 REDUCED EIGENVALUES real part:

               Column   1
       1       0.04918762
       2       0.45051499
       3       0.85300756
       4       0.85369675
    ==== End of matrix output ====
  
 ROOT:  1 RESIDUAL TOT: 5.02610D-11
 ROOT:  1 HAS CONVERGED. RESIDUAL TOT: 5.02610D-11
 ROOT:  2 RESIDUAL TOT: 4.72960D-06
 ROOT:  3 RESIDUAL TOT: 3.05131D-07
 ROOT:  4 RESIDUAL TOT: 3.46688D-05
      5       3         0.00     0.35E-04

 Lowest eigenvalues in this iteration: 

               Column   1
       1       0.04918762
       2       0.45051499
       3       0.85300756
       4       0.85369675
    ==== End of matrix output ====
 Dimension of the reduced space:    16
 >>> TIME USED IN THIS MICRO ITERATION        0.03


 REDUCED EIGENVALUES real part:

               Column   1
       1       0.04918762
       2       0.45051494
       3       0.85300756
       4       0.85369672
    ==== End of matrix output ====
  
 ROOT:  1 RESIDUAL TOT: 2.19306D-13
 ROOT:  1 HAS CONVERGED. RESIDUAL TOT: 2.19306D-13
 ROOT:  2 RESIDUAL TOT: 2.88583D-07
 ROOT:  3 RESIDUAL TOT: 6.35600D-08
 ROOT:  4 RESIDUAL TOT: 7.45664D-06
      6       3         0.00     0.75E-05

 Lowest eigenvalues in this iteration: 

               Column   1
       1       0.04918762
       2       0.45051494
       3       0.85300756
       4       0.85369672
    ==== End of matrix output ====
 Dimension of the reduced space:    19
 >>> TIME USED IN THIS MICRO ITERATION        0.03


 REDUCED EIGENVALUES real part:

               Column   1
       1       0.04918762
       2       0.45051495
       3       0.85300756
       4       0.85369673
    ==== End of matrix output ====
  
 ROOT:  1 RESIDUAL TOT: 6.62207D-16
 ROOT:  1 HAS CONVERGED. RESIDUAL TOT: 6.62207D-16
 ROOT:  2 RESIDUAL TOT: 1.03778D-08
 ROOT:  3 RESIDUAL TOT: 7.87496D-09
 ROOT:  4 RESIDUAL TOT: 8.94272D-07
      7       3         0.00     0.89E-06

 Lowest eigenvalues in this iteration: 

               Column   1
       1       0.04918762
       2       0.45051495
       3       0.85300756
       4       0.85369673
    ==== End of matrix output ====
 Dimension of the reduced space:    22
 >>> TIME USED IN THIS MICRO ITERATION        0.03


 REDUCED EIGENVALUES real part:

               Column   1
       1       0.04918762
       2       0.45051495
       3       0.85300756
       4       0.85369673
    ==== End of matrix output ====
  
 ROOT:  1 RESIDUAL TOT: 5.23161D-17
 ROOT:  1 HAS CONVERGED. RESIDUAL TOT: 5.23161D-17
 ROOT:  2 RESIDUAL TOT: 2.49767D-10
 ROOT:  3 RESIDUAL TOT: 6.97427D-10
 ROOT:  4 RESIDUAL TOT: 7.01665D-08
      8       3         0.00     0.70E-07

 Lowest eigenvalues in this iteration: 

               Column   1
       1       0.04918762
       2       0.45051495
       3       0.85300756
       4       0.85369673
    ==== End of matrix output ====
 Dimension of the reduced space:    25
 >>> TIME USED IN THIS MICRO ITERATION        0.03


 REDUCED EIGENVALUES real part:

               Column   1
       1       0.04918762
       2       0.45051495
       3       0.85300756
       4       0.85369673
    ==== End of matrix output ====
  
 ROOT:  1 RESIDUAL TOT: 4.26914D-16
 ROOT:  1 HAS CONVERGED. RESIDUAL TOT: 4.26914D-16
 ROOT:  2 RESIDUAL TOT: 4.66424D-14
 ROOT:  2 HAS CONVERGED. RESIDUAL TOT: 4.66424D-14
 ROOT:  3 RESIDUAL TOT: 2.06279D-12
 ROOT:  3 HAS CONVERGED. RESIDUAL TOT: 2.06279D-12
 ROOT:  4 RESIDUAL TOT: 2.96704D-10
      9       3         0.00     0.30E-09

 Lowest eigenvalues in this iteration: 

               Column   1
       1       0.04918762
       2       0.45051495
       3       0.85300756
       4       0.85369673
    ==== End of matrix output ====
 Dimension of the reduced space:    26
 >>> TIME USED IN THIS MICRO ITERATION        0.03


 REDUCED EIGENVALUES real part:

               Column   1
       1       0.04918762
       2       0.45051495
       3       0.85300756
       4       0.85369673
    ==== End of matrix output ====
  
 ROOT:  1 RESIDUAL TOT: 1.47019D-16
 ROOT:  1 HAS CONVERGED. RESIDUAL TOT: 1.47019D-16
 ROOT:  2 RESIDUAL TOT: 8.06694D-16
 ROOT:  2 HAS CONVERGED. RESIDUAL TOT: 8.06694D-16
 ROOT:  3 RESIDUAL TOT: 3.49017D-15
 ROOT:  3 HAS CONVERGED. RESIDUAL TOT: 3.49017D-15
 ROOT:  4 RESIDUAL TOT: 8.15610D-16
 ROOT:  4 HAS CONVERGED. RESIDUAL TOT: 8.15610D-16
     10       1         0.00     0.35E-14

 Lowest eigenvalues in this iteration: 

               Column   1
       1       0.04918762
       2       0.45051495
       3       0.85300756
       4       0.85369673
    ==== End of matrix output ====
 Dimension of the reduced space:    26
 >>> TIME USED IN THIS MICRO ITERATION        0.03

    --------------------------------------
    converged in 10 iterations
    threshold:    0.10E-09


         Routine          Time (min)
         ---------------------------
         CC_TRDRV            0.00
         CCRED               0.00
         CCNEX               0.00
         ---------------------------
         Total time          0.00


 >>>> Total CPU  time used in CCEQ_SOLV:   0.30 seconds
 >>>> Total wall time used in CCEQ_SOLV:   0.30 seconds


 >>>>>>>>>>>>>>>>>>>>> <<<<<<<<<<<<<<<<<<<<<



  Final eigenvalues :
 =====================
 (convergence threshold:  1.00D-10)

    1   0.0491876226
    2   0.4505149501
    3   0.8530075601
    4   0.8536967335


 SYMMETRY CLASS NR.    4
 MULTIPLICITY          1


 CC2-R12/A  right excitation energies:
 ====================================
 (conversion factor used: 1 au = 27.2113957 eV)

 Excitation no.       Hartree               eV 
 --------------       -------               --
         1            0.0491876226        1.3384632971
         2            0.4505149501       12.2591353998
         3            0.8530075601       23.2115164530
         4            0.8536967335       23.2302698148


 Total excited state energies for states of symmetry/spin    4    1
 Excitation no.       Energy (Hartree) 
 ------------------------------------- 
@@    4    1           -24.957517514148186
@@    4    2           -24.556190186645193
@@    4    3           -24.153697576612675
@@    4    4           -24.153008403226945


 Analysis of the Coupled Cluster Excitation Vector Number :  1
 -------------------------------------------------------------

          Excitation Energy :                             1.3385 eV


          CC_PRAM:Overall Contribution of the Different Components
          --------------------------------------------------------



          Single Excitation Contribution :              99.5074 %

          Double Excitation Contribution :               0.4926 %

          ||T1||/||T2||                  :              14.2132

          Norm of Total Amplitude Vector :               1.0000


 +=============================================================================+
 | symmetry|  orbital index  |   Excitation Numbers             |   Amplitude  |
 |  Index  |   a   b   i   j |      NAI      NBJ |     NAIBJ    |              |
 +=============================================================================+
 | 2   3   |   1       1     |        1          |              |    0.978777  |
 | 2   3   |   2       1     |        2          |              |   -0.192538  |
 +-----------------------------------------------------------------------------+
 | 2 1 3 1 |   2   3   1   1 |        2        3 |           18 |    0.021254  |
 | 2 1 3 1 |   2   4   1   1 |        2        4 |           20 |   -0.014648  |
 | 2 1 3 1 |   1   5   1   1 |        1        5 |           21 |   -0.027226  |
 | 2 3 3 3 |   1   1   1   1 |        1        6 |           23 |   -0.011987  |
 | 2 3 3 3 |   2   1   1   1 |        2        6 |           24 |    0.053113  |
 +=============================================================================+


          Norm of Printed Amplitude Vector :             0.9997

          Printed all single excitations greater than 0.166256

          Printed all double excitations greater than 0.011697


 Analysis of the Coupled Cluster Excitation Vector Number :  2
 -------------------------------------------------------------

          Excitation Energy :                            12.2591 eV


          CC_PRAM:Overall Contribution of the Different Components
          --------------------------------------------------------



          Single Excitation Contribution :              96.6920 %

          Double Excitation Contribution :               3.3080 %

          ||T1||/||T2||                  :               5.4064

          Norm of Total Amplitude Vector :               1.0000


 +=============================================================================+
 | symmetry|  orbital index  |   Excitation Numbers             |   Amplitude  |
 |  Index  |   a   b   i   j |      NAI      NBJ |     NAIBJ    |              |
 +=============================================================================+
 | 2   3   |   1       1     |        1          |              |    0.184483  |
 | 2   3   |   2       1     |        2          |              |    0.965860  |
 +-----------------------------------------------------------------------------+
 | 3 2 1 1 |   1   2   1   1 |        1        2 |            7 |   -0.051394  |
 | 2 1 3 1 |   2   1   1   1 |        2        1 |           14 |   -0.032847  |
 | 2 1 3 1 |   1   2   1   1 |        1        2 |           15 |   -0.056689  |
 | 2 1 3 1 |   2   3   1   1 |        2        3 |           18 |    0.149275  |
 +=============================================================================+


          Norm of Printed Amplitude Vector :             0.9981

          Printed all single excitations greater than 0.163887

          Printed all double excitations greater than 0.030313


 Analysis of the Coupled Cluster Excitation Vector Number :  3
 -------------------------------------------------------------

          Excitation Energy :                            23.2115 eV


          CC_PRAM:Overall Contribution of the Different Components
          --------------------------------------------------------



          Single Excitation Contribution :               0.0016 %

          Double Excitation Contribution :              99.9984 %

          ||T1||/||T2||                  :               0.0040

          Norm of Total Amplitude Vector :               1.0000


 +=============================================================================+
 | symmetry|  orbital index  |   Excitation Numbers             |   Amplitude  |
 |  Index  |   a   b   i   j |      NAI      NBJ |     NAIBJ    |              |
 +=============================================================================+
 | 2   3   |   1       1     |        1          |              |   -0.003719  |
 +-----------------------------------------------------------------------------+
 | 1 2 3 1 |   2   1   1   1 |        3        1 |            3 |    0.758759  |
 | 2 1 3 1 |   1   1   1   1 |        1        1 |           13 |   -0.651359  |
 +=============================================================================+


          Norm of Printed Amplitude Vector :             1.0000

          Printed all single excitations greater than 0.002000

          Printed all double excitations greater than 0.166665


 Analysis of the Coupled Cluster Excitation Vector Number :  4
 -------------------------------------------------------------

          Excitation Energy :                            23.2303 eV


          CC_PRAM:Overall Contribution of the Different Components
          --------------------------------------------------------



          Single Excitation Contribution :               0.1520 %

          Double Excitation Contribution :              99.8480 %

          ||T1||/||T2||                  :               0.0390

          Norm of Total Amplitude Vector :               1.0000


 +=============================================================================+
 | symmetry|  orbital index  |   Excitation Numbers             |   Amplitude  |
 |  Index  |   a   b   i   j |      NAI      NBJ |     NAIBJ    |              |
 +=============================================================================+
 | 2   3   |   1       1     |        1          |              |    0.011849  |
 | 2   3   |   2       1     |        2          |              |    0.037141  |
 +-----------------------------------------------------------------------------+
 | 1 2 3 1 |   2   1   1   1 |        3        1 |            3 |    0.700573  |
 | 2 1 3 1 |   1   1   1   1 |        1        1 |           13 |    0.712159  |
 +=============================================================================+


          Norm of Printed Amplitude Vector :             0.9997

          Printed all single excitations greater than 0.010000

          Printed all double excitations greater than 0.166540


 *******************************************************************************

 --------------------------
 Symmetry class Nr.:     4
 Multiplicity      :     3
 --------------------------

 Length of Excitation vectors in this class is:        50
 No Excitation Energies calculated in this symmetry class

 *******************************************************************

 Ground state energy is target 

 Ecorr =                    -25.00670513675465045367

 *******************************************************************
  

 *******************************************************************************
 *******************************************************************************
 *                                                                             *
 *                                                                             *
 *                   SUMMARY OF COUPLED CLUSTER CALCULATION                    *
 *                                                                             *
 *                                                                             *
 *******************************************************************************
 *******************************************************************************

                                                                                
                                                                                
            Total SCF   energy:                   -24.8662249632                
            Total MP2-R12/A energy:               -25.0063026940                
            Total CC2-R12/A energy:               -25.0067051368                
                                                                                
                                                                                
 +=============================================================================+
 |  sym. | Exci.  |        CC2-R12/A  Excitation energies            | ||T1||  |
 |(spin, |        +------------------------------------------------------------+
 | spat) |        |     Hartree    |       eV.      |     cm-1       |    %    |
 +=============================================================================+
 | ^1A1  |    1   |     0.2843958  |       7.73880  |     62417.652  |  82.03  |
 | ^1A1  |    2   |     0.3848740  |      10.47295  |     84470.071  |  36.27  |
 | ^1A1  |    3   |     0.5313011  |      14.45744  |    116607.115  |  92.75  |
 | ^1A1  |    4   |     0.6087612  |      16.56524  |    133607.644  |   0.05  |
 +-----------------------------------------------------------------------------+
 | ^1B1  |    1   |     0.4085893  |      11.11828  |     89674.988  |  81.74  |
 | ^1B1  |    2   |     0.4969430  |      13.52251  |    109066.381  |  12.70  |
 | ^1B1  |    3   |     0.7831850  |      21.31155  |    171889.246  |  88.24  |
 | ^1B1  |    4   |     0.8088293  |      22.00937  |    177517.514  |   2.28  |
 +-----------------------------------------------------------------------------+
 | ^1B2  |    1   |    -0.0600237  |      -1.63333  |    -13173.674  |  98.99  |
 | ^1B2  |    2   |     0.2998231  |       8.15860  |     65803.554  |  96.69  |
 | ^1B2  |    3   |     0.3606523  |       9.81385  |     79154.022  |  96.13  |
 | ^1B2  |    4   |     0.4067781  |      11.06900  |     89277.478  |  96.71  |
 +-----------------------------------------------------------------------------+
 | ^1A2  |    1   |     0.0491876  |       1.33846  |     10795.435  |  99.51  |
 | ^1A2  |    2   |     0.4505150  |      12.25914  |     98876.602  |  96.69  |
 | ^1A2  |    3   |     0.8530076  |      23.21152  |    187213.518  |   0.00  |
 | ^1A2  |    4   |     0.8536967  |      23.23027  |    187364.774  |   0.15  |
 +=============================================================================+
                                                                                
                                                                                
     Total energies in Hartree:                                                 
             1 ^1A1       -24.7223093844                                        
             2 ^1A1       -24.6218311714                                        
             3 ^1A1       -24.4754040213                                        
             4 ^1A1       -24.3979439131                                        
             1 ^1B1       -24.5981158248                                        
             2 ^1B1       -24.5097621357                                        
             3 ^1B1       -24.2235200991                                        
             4 ^1B1       -24.1978758202                                        
             1 ^1B2       -25.0667288107                                        
             2 ^1B2       -24.7068820815                                        
             3 ^1B2       -24.6460528713                                        
             4 ^1B2       -24.5999270130                                        
             1 ^1A2       -24.9575175141                                        
             2 ^1A2       -24.5561901866                                        
             3 ^1A2       -24.1536975766                                        
             4 ^1A2       -24.1530084032                                        

  1 a.u. =        27.21138 eV.  
  1 a.u. =    219474.62934 cm-1.
  

 *******************************************************************************
 *******************************************************************************
 *                                                                             *
 *                                                                             *
 *                      END OF COUPLED CLUSTER CALCULATION                     *
 *                                                                             *
 *                                                                             *
 *******************************************************************************
 *******************************************************************************


 >>>> CPU and wall time for CC :       2.906       2.991

 
     Date and time (Linux)  : Sun Sep  8 21:01:37 2013
     Host name              : lpqlx131.ups-tlse.fr                    


                      .-------------------------------------.
                      | End of Coupled Cluster Section (CC) |
                      `-------------------------------------'

 >>>> Total CPU  time used in DALTON:   2.96 seconds
 >>>> Total wall time used in DALTON:   3.05 seconds

 
     Date and time (Linux)  : Sun Sep  8 21:01:37 2013
     Host name              : lpqlx131.ups-tlse.fr                    
