

     ************************************************************************
     *************** Dalton - An Electronic Structure Program ***************
     ************************************************************************

    This is output from DALTON 2014.0
   ----------------------------------------------------------------------------
    NOTE:
     
    Dalton is an experimental code for the evaluation of molecular
    properties using (MC)SCF, DFT, CI, and CC wave functions.
    The authors accept no responsibility for the performance of
    the code or for the correctness of the results.
     
    The code (in whole or part) is provided under a licence and
    is not to be reproduced for further distribution without
    the written permission of the authors or their representatives.
     
    See the home page "http://daltonprogram.org" for further information.
     
    If results obtained with this code are published,
    the appropriate citations would be both of:
     
       K. Aidas, C. Angeli, K. L. Bak, V. Bakken, R. Bast,
       L. Boman, O. Christiansen, R. Cimiraglia, S. Coriani,
       J. Cukras, P. Dahle, E. K. Dalskov, U. Ekstroem,
       T. Enevoldsen, J. J. Eriksen, P. Ettenhuber, B. Fernandez,
       L. Ferrighi, H. Fliegl, L. Frediani, K. Hald, A. Halkier,
       C. Haettig, H. Heiberg, T. Helgaker, A. C. Hennum,
       H. Hettema, E. Hjertenaes, S. Hoest, I.-M. Hoeyvik,
       M. F. Iozzi, B. Jansik, H. J. Aa. Jensen, D. Jonsson,
       P. Joergensen, M. Kaminski, J. Kauczor, S. Kirpekar,
       T. Kjaergaard, W. Klopper, S. Knecht, R. Kobayashi, H. Koch,
       J. Kongsted, A. Krapp, K. Kristensen, A. Ligabue,
       O. B. Lutnaes, J. I. Melo, K. V. Mikkelsen, R. H. Myhre,
       C. Neiss, C. B. Nielsen, P. Norman, J. Olsen,
       J. M. H. Olsen, A. Osted, M. J. Packer, F. Pawlowski,
       T. B. Pedersen, P. F. Provasi, S. Reine, Z. Rinkevicius,
       T. A. Ruden, K. Ruud, V. Rybkin, P. Salek, C. C. M. Samson,
       A. Sanchez de Meras, T. Saue, S. P. A. Sauer,
       B. Schimmelpfennig, K. Sneskov, A. H. Steindal,
       K. O. Sylvester-Hvid, P. R. Taylor, A. M. Teale,
       E. I. Tellgren, D. P. Tew, A. J. Thorvaldsen, L. Thoegersen,
       O. Vahtras, M. A. Watson, D. J. D. Wilson, M. Ziolkowski
       and H. Agren,
       "The Dalton quantum chemistry program system",
       WIREs Comput. Mol. Sci. 2013. (doi: 10.1002/wcms.1172)
    
    and
    
       Dalton, a Molecular Electronic Structure Program,
       Release DALTON2014.0 (2014), see http://daltonprogram.org
   ----------------------------------------------------------------------------

    Authors in alphabetical order (major contribution(s) in parenthesis):

  Kestutis Aidas,           Vilnius University,           Lithuania   (QM/MM)
  Celestino Angeli,         University of Ferrara,        Italy       (NEVPT2)
  Keld L. Bak,              UNI-C,                        Denmark     (AOSOPPA, non-adiabatic coupling, magnetic properties)
  Vebjoern Bakken,          University of Oslo,           Norway      (DALTON; geometry optimizer, symmetry detection)
  Radovan Bast,             KTH Stockholm,                Sweden      (DALTON installation and execution frameworks)
  Pablo Baudin,             University of Valencia,       Spain       (Cholesky excitation energies)
  Linus Boman,              NTNU,                         Norway      (Cholesky decomposition and subsystems)
  Ove Christiansen,         Aarhus University,            Denmark     (CC module)
  Renzo Cimiraglia,         University of Ferrara,        Italy       (NEVPT2)
  Sonia Coriani,            University of Trieste,        Italy       (CC module, MCD in RESPONS)
  Janusz Cukras,            University of Trieste,        Italy       (MChD in RESPONS)
  Paal Dahle,               University of Oslo,           Norway      (Parallelization)
  Erik K. Dalskov,          UNI-C,                        Denmark     (SOPPA)
  Thomas Enevoldsen,        Univ. of Southern Denmark,    Denmark     (SOPPA)
  Janus J. Eriksen,         Aarhus University,            Denmark     (Polarizable embedding model, TDA)
  Berta Fernandez,          U. of Santiago de Compostela, Spain       (doublet spin, ESR in RESPONS)
  Lara Ferrighi,            Aarhus University,            Denmark     (PCM Cubic response)
  Heike Fliegl,             University of Oslo,           Norway      (CCSD(R12))
  Luca Frediani,            UiT The Arctic U. of Norway,  Norway      (PCM)
  Bin Gao,                  UiT The Arctic U. of Norway,  Norway      (Gen1Int library)
  Christof Haettig,         Ruhr-University Bochum,       Germany     (CC module)
  Kasper Hald,              Aarhus University,            Denmark     (CC module)
  Asger Halkier,            Aarhus University,            Denmark     (CC module)
  Erik D. Hedegaard,        Univ. of Southern Denmark,    Denmark     (Polarizable embedding model, QM/MM)
  Hanne Heiberg,            University of Oslo,           Norway      (geometry analysis, selected one-electron integrals)
  Trygve Helgaker,          University of Oslo,           Norway      (DALTON; ABACUS, ERI, DFT modules, London, and much more)
  Alf Christian Hennum,     University of Oslo,           Norway      (Parity violation)
  Hinne Hettema,            University of Auckland,       New Zealand (quadratic response in RESPONS; SIRIUS supersymmetry)
  Eirik Hjertenaes,         NTNU,                         Norway      (Cholesky decomposition)
  Maria Francesca Iozzi,    University of Oslo,           Norway      (RPA)
  Brano Jansik              Technical Univ. of Ostrava    Czech Rep.  (DFT cubic response)
  Hans Joergen Aa. Jensen,  Univ. of Southern Denmark,    Denmark     (DALTON; SIRIUS, RESPONS, ABACUS modules, London, and much more)
  Dan Jonsson,              UiT The Arctic U. of Norway,  Norway      (cubic response in RESPONS module)
  Poul Joergensen,          Aarhus University,            Denmark     (RESPONS, ABACUS, and CC modules)
  Maciej Kaminski,          University of Warsaw,         Poland      (CPPh in RESPONS)
  Joanna Kauczor,           Linkoeping University,        Sweden      (Complex polarization propagator (CPP) module)
  Sheela Kirpekar,          Univ. of Southern Denmark,    Denmark     (Mass-velocity & Darwin integrals)
  Wim Klopper,              KIT Karlsruhe,                Germany     (R12 code in CC, SIRIUS, and ABACUS modules)
  Stefan Knecht,            ETH Zurich,                   Switzerland (Parallel CI and MCSCF)
  Rika Kobayashi,           Australian National Univ.,    Australia   (DIIS in CC, London in MCSCF)
  Henrik Koch,              NTNU,                         Norway      (CC module, Cholesky decomposition)
  Jacob Kongsted,           Univ. of Southern Denmark,    Denmark     (Polarizable embedding model, QM/MM)
  Andrea Ligabue,           University of Modena,         Italy       (CTOCD, AOSOPPA)
  Nanna H. List             Univ. of Southern Denmark,    Denmark     (Polarizable embedding model)
  Ola B. Lutnaes,           University of Oslo,           Norway      (DFT Hessian)
  Juan I. Melo,             University of Buenos Aires,   Argentina   (LRESC, Relativistic Effects on NMR Shieldings)
  Kurt V. Mikkelsen,        University of Copenhagen,     Denmark     (MC-SCRF and QM/MM)
  Rolf H. Myhre,            NTNU,                         Norway      (Cholesky, subsystems and ECC2)
  Christian Neiss,          Univ. Erlangen-Nuernberg,     Germany     (CCSD(R12))
  Christian B. Nielsen,     University of Copenhagen,     Denmark     (QM/MM)
  Patrick Norman,           Linkoeping University,        Sweden      (Cubic response and complex response in RESPONS)
  Jeppe Olsen,              Aarhus University,            Denmark     (SIRIUS CI/density modules)
  Jogvan Magnus H. Olsen,   Univ. of Southern Denmark,    Denmark     (Polarizable embedding model, QM/MM)
  Anders Osted,             Copenhagen University,        Denmark     (QM/MM)
  Martin J. Packer,         University of Sheffield,      UK          (SOPPA)
  Filip Pawlowski,          Kazimierz Wielki University,  Poland      (CC3)
  Morten N. Pedersen,       Univ. of Southern Denmark,    Denmark     (Polarizable embedding model)
  Thomas B. Pedersen,       University of Oslo,           Norway      (Cholesky decomposition)
  Patricio F. Provasi,      University of Northeastern,   Argentina   (Analysis of coupling constants in localized orbitals)
  Zilvinas Rinkevicius,     KTH Stockholm,                Sweden      (open-shell DFT, ESR)
  Elias Rudberg,            KTH Stockholm,                Sweden      (DFT grid and basis info)
  Torgeir A. Ruden,         University of Oslo,           Norway      (Numerical derivatives in ABACUS)
  Kenneth Ruud,             UiT The Arctic U. of Norway,  Norway      (DALTON; ABACUS magnetic properties and much more)
  Pawel Salek,              KTH Stockholm,                Sweden      (DALTON; DFT code)
  Claire C. M. Samson       University of Karlsruhe       Germany     (Boys localization, r12 integrals in ERI)
  Alfredo Sanchez de Meras, University of Valencia,       Spain       (CC module, Cholesky decomposition)
  Trond Saue,               Paul Sabatier University,     France      (direct Fock matrix construction)
  Stephan P. A. Sauer,      University of Copenhagen,     Denmark     (SOPPA(CCSD), SOPPA prop., AOSOPPA, vibrational g-factors)
  Bernd Schimmelpfennig,    Forschungszentrum Karlsruhe,  Germany     (AMFI module)
  Kristian Sneskov,         Aarhus University,            Denmark     (Polarizable embedding model, QM/MM)
  Arnfinn H. Steindal,      UiT The Arctic U. of Norway,  Norway      (parallel QM/MM, Polarizable embedding model)
  Casper Steinmann,         Univ. of Southern Denmark,    Denmark     (QFIT, Polarizable embedding model)
  K. O. Sylvester-Hvid,     University of Copenhagen,     Denmark     (MC-SCRF)
  Peter R. Taylor,          VLSCI/Univ. of Melbourne,     Australia   (Symmetry handling ABACUS, integral transformation)
  Andrew M. Teale,          University of Nottingham,     England     (DFT-AC, DFT-D)
  David P. Tew,             University of Bristol,        England     (CCSD(R12))
  Olav Vahtras,             KTH Stockholm,                Sweden      (triplet response, spin-orbit, ESR, TDDFT, open-shell DFT)
  David J. Wilson,          La Trobe University,          Australia   (DFT Hessian and DFT magnetizabilities)
  Hans Agren,               KTH Stockholm,                Sweden      (SIRIUS module, RESPONS, MC-SCRF solvation model)
 --------------------------------------------------------------------------------

     Date and time (Linux)  : Sat Jan  3 11:32:00 2015
     Host name              : sunray                                  

 * Work memory size             :    64000000 =  488.28 megabytes.

 * Directories for basis set searches:
   1) /home/beyer/master/worksite/dalton/DALTON/prop_exci_aosopcc_direct
   2) /home/beyer/master/worksite/dalton/DALTON/build32/basis


Compilation information
-----------------------

 Who compiled             | beyer
 Host                     | sunray
 System                   | Linux-2.6.32-41-server
 CMake generator          | Unix Makefiles
 Processor                | x86_64
 64-bit integers          | OFF
 MPI                      | ON
 Fortran compiler         | /opt/openmpi-1.5_intel/bin/mpif90
 Fortran compiler version | ifort (IFORT) 12.1.0 20110811
 C compiler               | /opt/openmpi-1.5_intel/bin/mpicc
 C compiler version       | icc (ICC) 12.1.0 20110811
 C++ compiler             | /opt/openmpi-1.5_intel/bin/mpicxx
 C++ compiler version     | unknown
 BLAS                     | /opt/intel/mkl/lib/intel64/libmkl_intel_lp64.so;/o
                          | pt/intel/mkl/lib/intel64/libmkl_sequential.so;/opt
                          | /intel/mkl/lib/intel64/libmkl_core.so;/usr/lib/lib
                          | pthread.so;/usr/lib/libm.so
 LAPACK                   | /opt/intel/mkl/lib/intel64/libmkl_lapack95_lp64.a;
                          | /opt/intel/mkl/lib/intel64/libmkl_intel_lp64.so
 Static linking           | OFF
 Last Git revision        | 21d8d827ca1040047c3fba3c4328fbb9e2875786
 Git branch               | parallelSOPPA
 Configuration time       | 2014-12-19 12:39:42.869996

 * Sequential calculation.


   Content of the .dal input file
 ----------------------------------

**DALTON INPUT                                    
.RUN PROPERTIES                                   
.DIRECT                                           
**WAVE FUNCTIONS                                  
.HF                                               
.CC                                               
*CC INPUT                                         
.CCSD                                             
.AO-SOPPA                                         
**PROPERTIES                                      
.SOPPA                                            
.EXCITA                                           
.PRINT                                            
 2                                                
*SOPPA                                            
.AOSOP                                            
.AOSOC                                            
.NSAVMX                                           
 4                                                
.NEXCI2                                           
   0    1    0    0    0    0    0    0           
*EXCITA                                           
.DIPSTR                                           
.ROTVEL                                           
.NEXCITA                                          
    5    6    5    5    0    0    0    0          
**END OF DALTON INPUT                             


   Content of the .mol file
 ----------------------------

BASIS                                                                          
cc-pVDZ                                                                        
      Calculation of excitation energies through ABACUS                        
                                                                               
   2    2  X  Y      0.10D-14                                                  
      8.00    1                                                                
O   0.00000             0.00000              0.1241444240                      
      1.00    1                                                                
H   0.00000             1.43153              -0.985265576                      


       *******************************************************************
       *********** Output from DALTON general input processing ***********
       *******************************************************************

 --------------------------------------------------------------------------------
   Overall default print level:    0
   Print level for DALTON.STAT:    1

    AO-direct calculation (in sections where implemented)
    HERMIT 1- and 2-electron integral sections will be executed
    "Old" integral transformation used (limited to max 255 basis functions)
    Wave function sections will be executed (SIRIUS module)
    Static molecular property section will be executed (ABACUS module)
 --------------------------------------------------------------------------------


   ****************************************************************************
   *************** Output of molecule and basis set information ***************
   ****************************************************************************


    The two title cards from your ".mol" input:
    ------------------------------------------------------------------------
 1:       Calculation of excitation energies through ABACUS                 
 2:                                                                         
    ------------------------------------------------------------------------



@ WARNING - deprecated old .mol fixed format input has been detected:
   2    2  X  Y      0.10D-14                                                   
@ WARNING - this input format may not be supported in future releases.




  Atomic type no.    1
  --------------------
  Nuclear charge:   8.00000
  Number of symmetry independent centers:    1
  Number of basis sets to read;    2
  Basis set file used for this atomic type with Z =   8 :
     "/home/beyer/master/worksite/dalton/DALTON/build32/basis/cc-pVDZ"

  Atomic type no.    2
  --------------------
  Nuclear charge:   1.00000
  Number of symmetry independent centers:    1
  Number of basis sets to read;    2
  Basis set file used for this atomic type with Z =   1 :
     "/home/beyer/master/worksite/dalton/DALTON/build32/basis/cc-pVDZ"


                         SYMGRP: Point group information
                         -------------------------------

@    Point group: C2v

@  * The irrep name for each symmetry:    1: A1     2: B1     3: B2     4: A2 

   * The point group was generated by:

      Reflection in the yz-plane
      Reflection in the xz-plane

   * Group multiplication table

        |  E   C2z  Oxz  Oyz
   -----+--------------------
     E  |  E   C2z  Oxz  Oyz
    C2z | C2z   E   Oyz  Oxz
    Oxz | Oxz  Oyz   E   C2z
    Oyz | Oyz  Oxz  C2z   E 

   * Character table

        |  E   C2z  Oxz  Oyz
   -----+--------------------
    A1  |   1    1    1    1
    B1  |   1   -1    1   -1
    B2  |   1   -1   -1    1
    A2  |   1    1   -1   -1

   * Direct product table

        | A1   B1   B2   A2 
   -----+--------------------
    A1  | A1   B1   B2   A2 
    B1  | B1   A1   A2   B2 
    B2  | B2   A2   A1   B1 
    A2  | A2   B2   B1   A1 


                                 Isotopic Masses
                                 ---------------

                           O          15.994915
                           H   _1      1.007825
                           H   _2      1.007825

                       Total mass:    18.010565 amu
                       Natural abundance:  99.730 %

 Center-of-mass coordinates (a.u.):    0.000000    0.000000   -0.000015


  Atoms and basis sets
  --------------------

  Number of atom types :    2
  Total number of atoms:    3

  Basis set used is "cc-pVDZ" from the basis set library.

  label    atoms   charge   prim   cont     basis
  ----------------------------------------------------------------------
  O           1    8.0000    26    14      [9s4p1d|3s2p1d]                                    
  H           2    1.0000     7     5      [4s1p|2s1p]                                        
  ----------------------------------------------------------------------
  total:      3   10.0000    40    24
  ----------------------------------------------------------------------
  Spherical harmonic basis used.

  Threshold for neglecting AO integrals:  1.00D-15


  Cartesian Coordinates (a.u.)
  ----------------------------

  Total number of coordinates:    9
  O       :     1  x   0.0000000000    2  y   0.0000000000    3  z   0.1241444240
  H   / 1 :     4  x   0.0000000000    5  y   1.4315300000    6  z  -0.9852655760
  H   / 2 :     7  x   0.0000000000    8  y  -1.4315300000    9  z  -0.9852655760


  Symmetry Coordinates
  --------------------

  Number of coordinates in each symmetry:     3    2    3    1

  Symmetry  A1  ( 1)

    1   O     z    3
    2   H     y    [  5  -    8 ]/2
    3   H     z    [  6  +    9 ]/2

  Symmetry  B1  ( 2)

    4   O     x    1
    5   H     x    [  4  +    7 ]/2

  Symmetry  B2  ( 3)

    6   O     y    2
    7   H     y    [  5  +    8 ]/2
    8   H     z    [  6  -    9 ]/2

  Symmetry  A2  ( 4)

    9   H     x    [  4  -    7 ]/2


   Interatomic separations (in Angstrom):
   --------------------------------------

            O           H   _1      H   _2
            ------      ------      ------
 O     :    0.000000
 H   _1:    0.958391    0.000000
 H   _2:    0.958391    1.515066    0.000000


  Max    interatomic separation is    1.5151 Angstrom (    2.8631 Bohr)
  between atoms    3 and    2, "H   _2" and "H   _1".

  Min HX interatomic separation is    0.9584 Angstrom (    1.8111 Bohr)


  Bond distances (Angstrom):
  --------------------------

                  atom 1     atom 2       distance
                  ------     ------       --------
  bond distance:  H   _1     O            0.958391
  bond distance:  H   _2     O            0.958391


  Bond angles (degrees):
  ----------------------

                  atom 1     atom 2     atom 3         angle
                  ------     ------     ------         -----
  bond angle:     H   _1     O          H   _2       104.450




 Principal moments of inertia (u*A**2) and principal axes
 --------------------------------------------------------

   IA       0.616959          0.000000    1.000000    0.000000
   IB       1.156694          0.000000    0.000000    1.000000
   IC       1.773652          1.000000    0.000000    0.000000


 Rotational constants
 --------------------

@    The molecule is planar.

               A                   B                   C

         819145.5126         436916.9575         284936.9149 MHz
           27.323753           14.573981            9.504472 cm-1


@  Nuclear repulsion energy :    9.183706230245 Hartree


  Symmetry Orbitals
  -----------------

  Number of orbitals in each symmetry:          11    4    7    2


  Symmetry  A1 ( 1)

    1     O        1s         1
    2     O        1s         2
    3     O        1s         3
    4     O        2pz        6
    5     O        2pz        9
    6     O        3d0       12
    7     O        3d2+      14
    8     H        1s        15 +   16
    9     H        1s        17 +   18
   10     H        2py       21 -   22
   11     H        2pz       23 +   24


  Symmetry  B1 ( 2)

   12     O        2px        4
   13     O        2px        7
   14     O        3d1+      13
   15     H        2px       19 +   20


  Symmetry  B2 ( 3)

   16     O        2py        5
   17     O        2py        8
   18     O        3d1-      11
   19     H        1s        15 -   16
   20     H        1s        17 -   18
   21     H        2py       21 +   22
   22     H        2pz       23 -   24


  Symmetry  A2 ( 4)

   23     O        3d2-      10
   24     H        2px       19 -   20

  Symmetries of electric field:  B1 (2)  B2 (3)  A1 (1)

  Symmetries of magnetic field:  B2 (3)  B1 (2)  A2 (4)


                     .---------------------------------------.
                     | Starting in Integral Section (HERMIT) |
                     `---------------------------------------'



 ***************************************************************************************
 ****************** Output from **INTEGRALS input processing (HERMIT) ******************
 ***************************************************************************************


 - Using defaults, no **INTEGRALS input found

 Default print level:        1

 * Nuclear model: Point charge

 Calculation of one-electron Hamiltonian integrals.

 Center of mass  (bohr):      0.000000000000      0.000000000000     -0.000015049426
 Operator center (bohr):      0.000000000000      0.000000000000      0.000000000000
 Gauge origin    (bohr):      0.000000000000      0.000000000000      0.000000000000
 Dipole origin   (bohr):      0.000000000000      0.000000000000      0.000000000000


     ************************************************************************
     ************************** Output from HERINT **************************
     ************************************************************************

 >>>> Total CPU  time used in HERMIT:   0.00 seconds
 >>>> Total wall time used in HERMIT:   0.01 seconds


                        .----------------------------------.
                        | End of Integral Section (HERMIT) |
                        `----------------------------------'



                   .--------------------------------------------.
                   | Starting in Wave Function Section (SIRIUS) |
                   `--------------------------------------------'


 *** Output from Huckel module :

     Using EWMO model:          F
     Using EHT  model:          T
     Number of Huckel orbitals each symmetry:    4    1    2    0

 Huckel EHT eigenvalues for symmetry :  1
          -20.705520      -1.505990      -0.670643      -0.292535

 Huckel EHT eigenvalues for symmetry :  2
           -0.616200

 Huckel EHT eigenvalues for symmetry :  3
           -0.731199      -0.257813

 **********************************************************************
 *SIRIUS* a direct, restricted step, second order MCSCF program       *
 **********************************************************************

 
     Date and time (Linux)  : Sat Jan  3 11:32:00 2015
     Host name              : sunray                                  

 Title lines from ".mol" input file:
           Calculation of excitation energies through ABACUS                 
                                                                             

 Print level on unit LUPRI =   2 is   0
 Print level on unit LUW4  =   2 is   5

@    (Integral direct) CC calculation.

@    This is a combination run starting with
@              a restricted, closed shell Hartree-Fock calculation

 Fock matrices are calculated directly without use of integrals on disk.

 Initial molecular orbitals are obtained according to
 ".MOSTART EHT   " input option

     Wave function specification
     ============================

     For the specification of the Coupled Cluster: see later.

@    Wave function type        >>> CC <<<
@    Number of closed shell electrons          10
@    Number of electrons in active shells       0
@    Total charge of the molecule               0

@    Spin multiplicity and 2 M_S                1         0
@    Total number of symmetries                 4 (point group: C2v)
@    Reference state symmetry                   1 (irrep name : A1 )

     Orbital specifications
     ======================
     Abelian symmetry species          All |    1    2    3    4
                                           |  A1   B1   B2   A2 
                                       --- |  ---  ---  ---  ---
     Total number of orbitals           24 |   11    4    7    2
     Number of basis functions          24 |   11    4    7    2

      ** Automatic occupation of RHF orbitals **

      -- Initial occupation of symmetries is determined from extended Huckel guess.           
      -- Initial occupation of symmetries is :
@    Occupied SCF orbitals               5 |    3    1    1    0

     Maximum number of Fock   iterations      0
     Maximum number of DIIS   iterations     60
     Maximum number of QC-SCF iterations     60
     Threshold for SCF convergence     1.00D-06


 Changes of defaults for CC:
 ---------------------------


 -This is a direct atomic orbital integral based
  calculation for coupled cluster wave function

 MP2 Amplitudes written for atom integral direct SOPPA calculations
  


 ***********************************************
 ***** DIIS acceleration of SCF iterations *****
 ***********************************************

 C1-DIIS algorithm; max error vectors =    8

 Automatic occupation of symmetries with  10 electrons.

 Iter     Total energy    Error norm  Delta(E)    SCF occupation
 -----------------------------------------------------------------------------
   1  Screening settings (-IFTHRS, JTDIIS, DIFDEN, times)   -6    1    T  2.00D-02  8.00D-03
@  1  -75.8016297608       2.30D+00  -7.58D+01     3   1   1   0
      Virial theorem: -V/T =      1.999463
@      MULPOP O      -0.43; H   _1  0.22; H   _2  0.22; 
 -----------------------------------------------------------------------------
   2  Screening settings (-IFTHRS, JTDIIS, DIFDEN, times)   -6    2    T  0.00D+00  8.00D-03
@  2  -76.0187288373       3.57D-01  -2.17D-01     3   1   1   0
      Virial theorem: -V/T =      1.999555
@      MULPOP O      -0.27; H   _1  0.13; H   _2  0.13; 
 -----------------------------------------------------------------------------
   3  Screening settings (-IFTHRS, JTDIIS, DIFDEN, times)   -6    3    T  1.00D-02  8.00D-03
@  3  -76.0261063595       8.85D-02  -7.38D-03     3   1   1   0
      Virial theorem: -V/T =      2.001670
@      MULPOP O      -0.28; H   _1  0.14; H   _2  0.14; 
 -----------------------------------------------------------------------------
   4  Screening settings (-IFTHRS, JTDIIS, DIFDEN, times)   -8    4    F  1.00D-02  8.00D-03
@  4  -76.0266798512       3.29D-02  -5.73D-04     3   1   1   0
      Virial theorem: -V/T =      2.000020
@      MULPOP O      -0.31; H   _1  0.15; H   _2  0.15; 
 -----------------------------------------------------------------------------
   5  Screening settings (-IFTHRS, JTDIIS, DIFDEN, times)   -8    5    T  0.00D+00  8.00D-03
@  5  -76.0267390571       7.17D-03  -5.92D-05     3   1   1   0
      Virial theorem: -V/T =      2.000664
@      MULPOP O      -0.30; H   _1  0.15; H   _2  0.15; 
 -----------------------------------------------------------------------------
   6  Screening settings (-IFTHRS, JTDIIS, DIFDEN, times)  -11    6    F  1.00D-02  8.00D-03
@  6  -76.0267418358       7.54D-04  -2.78D-06     3   1   1   0
      Virial theorem: -V/T =      2.000549
@      MULPOP O      -0.31; H   _1  0.15; H   _2  0.15; 
 -----------------------------------------------------------------------------
   7  Screening settings (-IFTHRS, JTDIIS, DIFDEN, times)  -11    7    T  1.00D-02  8.00D-03
@  7  -76.0267418964       1.35D-04  -6.06D-08     3   1   1   0
      Virial theorem: -V/T =      2.000556
@      MULPOP O      -0.31; H   _1  0.15; H   _2  0.15; 
 -----------------------------------------------------------------------------
   8  Screening settings (-IFTHRS, JTDIIS, DIFDEN, times)  -11    8    T  1.00D-02  8.00D-03
@  8  -76.0267418987       1.11D-05  -2.27D-09     3   1   1   0
      Virial theorem: -V/T =      2.000557
@      MULPOP O      -0.31; H   _1  0.15; H   _2  0.15; 
 -----------------------------------------------------------------------------
   9  Screening settings (-IFTHRS, JTDIIS, DIFDEN, times)  -11    9    T  1.00D-02  8.00D-03
@  9  -76.0267418987       1.22D-06  -1.31D-11     3   1   1   0
      Virial theorem: -V/T =      2.000557
@      MULPOP O      -0.31; H   _1  0.15; H   _2  0.15; 
 -----------------------------------------------------------------------------
  10  Screening settings (-IFTHRS, JTDIIS, DIFDEN, times)  -11   10    T  0.00D+00  8.00D-03
@ 10  -76.0267418987       5.45D-07  -3.98D-13     3   1   1   0

@ *** DIIS converged in  10 iterations !
@     Converged SCF energy, gradient:    -76.026741898677    5.45D-07
    - total time used in SIRFCK :              0.00 seconds


 *** SCF orbital energy analysis ***

 Only the five lowest virtual orbital energies printed in each symmetry.

 Number of electrons :   10
 Orbital occupations :    3    1    1    0

 Sym       Hartree-Fock orbital energies

1 A1    -20.55066299    -1.33615941    -0.56649080     0.18536447     0.85354105
          1.16363571     1.44420047     1.86740400

2 B1     -0.49308726     1.20035802     1.67410855     3.28499307

3 B2     -0.69856493     0.25609267     0.78828016     1.25343489     1.93402422
          2.45003958

4 A2      1.47617069     3.33756148

    E(LUMO) :     0.18536447 au (symmetry 1)
  - E(HOMO) :    -0.49308726 au (symmetry 2)
  ------------------------------------------
    gap     :     0.67845173 au

 >>> Writing SIRIFC interface file

 >>>> CPU and wall time for SCF :       0.080       0.081


                       .-----------------------------------.
                       | >>> Final results from SIRIUS <<< |
                       `-----------------------------------'


@    Spin multiplicity:           1
@    Spatial symmetry:            1 ( irrep  A1  in C2v )
@    Total charge of molecule:    0

@    Final HF energy:             -76.026741898677                 
@    Nuclear repulsion:             9.183706230245
@    Electronic energy:           -85.210448128923

@    Final gradient norm:           0.000000545348

 
     Date and time (Linux)  : Sat Jan  3 11:32:00 2015
     Host name              : sunray                                  

 (Only coefficients >0.0100 are printed.)

 Molecular orbitals for symmetry species 1  (A1 )
 ------------------------------------------------

    Orbital         1        2        3        4        5
   1 O   :1s     1.0004  -0.0082  -0.0022   0.0520  -0.0654
   2 O   :1s     0.0023   0.8706   0.2955  -0.1427  -0.5036
   3 O   :1s    -0.0014  -0.1222   0.1803  -0.9197   0.6089
   4 O   :2pz   -0.0026  -0.1146   0.7945   0.2782   0.4803
   5 O   :2pz    0.0017   0.0657  -0.0006   0.2094  -0.2307
   6 O   :3d0    0.0000   0.0012  -0.0179  -0.0075   0.0010
   7 O   :3d2+  -0.0001  -0.0030   0.0046   0.0099  -0.1069
   8 H   :1s    -0.0004   0.3287  -0.3514   0.1006   1.3411
   9 H   :1s     0.0006  -0.1547   0.1356   0.7784  -1.2207
  10 H   :2py    0.0006  -0.0372   0.0318  -0.0175   0.2953
  11 H   :2pz   -0.0005   0.0205   0.0075   0.0163  -0.0594

 Molecular orbitals for symmetry species 2  (B1 )
 ------------------------------------------------

    Orbital         1        2        3
   1 O   :2px    0.9197  -1.4102   0.0265
   2 O   :2px    0.0721   1.6737   0.6221
   3 O   :3d1+  -0.0182   0.0034   0.1609
   4 H   :2px    0.0310   0.0092  -0.7668

 Molecular orbitals for symmetry species 3  (B2 )
 ------------------------------------------------

    Orbital         1        2        3
   1 O   :2py    0.7137  -0.4131  -0.3906
   2 O   :2py   -0.1064  -0.4807  -0.2794
   3 O   :3d1-  -0.0268   0.0212  -0.1116
   4 H   :1s     0.5577   0.0447   1.6068
   5 H   :1s    -0.1895   1.4202  -1.4934
   6 H   :2py   -0.0233  -0.0208   0.0737
   7 H   :2pz    0.0327   0.0171  -0.1525

 Molecular orbitals for symmetry species 4  (A2 )
 ------------------------------------------------

    Orbital         1        2
   1 O   :3d2-  -0.1314   1.0658
   2 H   :2px   -0.6856  -0.3708



 >>>> Total CPU  time used in SIRIUS :      0.09 seconds
 >>>> Total wall time used in SIRIUS :      0.08 seconds

 
     Date and time (Linux)  : Sat Jan  3 11:32:00 2015
     Host name              : sunray                                  

 NOTE:    1 warnings have been issued.
 Check output, result, and error files for "WARNING".


                     .---------------------------------------.
                     | End of Wave Function Section (SIRIUS) |
                     `---------------------------------------'



                    .------------------------------------------.
                    | Starting in Coupled Cluster Section (CC) |
                    `------------------------------------------'

  

 *******************************************************************************
 *******************************************************************************
 *                                                                             *
 *                                                                             *
 *                    START OF COUPLED CLUSTER CALCULATION                     *
 *                                                                             *
 *                                                                             *
 *******************************************************************************
 *******************************************************************************



 CCR12 ANSATZ =   0

 CCR12 APPROX =   0

   

 *******************************************************************
 *                                                                 *
 *<<<<<<<<<<                                             >>>>>>>>>>*
 *<<<<<<<<<< OUTPUT FROM COUPLED CLUSTER ENERGY PROGRAM  >>>>>>>>>>*
 *<<<<<<<<<<                                             >>>>>>>>>>*
 *                                                                 *
 *******************************************************************

 
             The Direct Coupled Cluster Energy Program
             -----------------------------------------


          Number of t1 amplitudes                 :        33
          Number of t2 amplitudes                 :      1277
          Total number of amplitudes in ccsd      :      1310
 
 Iter.  1: Coupled cluster MP2   energy :     -76.2307908199047120
 Iter.  1: Coupled cluster CCSD  energy :     -76.2357343901404363
 Iter.  2: Coupled cluster CCSD  energy :     -76.2396381923960860
 Iter.  3: Coupled cluster CCSD  energy :     -76.2401004137836793
 Iter.  4: Coupled cluster CCSD  energy :     -76.2401069491870373
 Iter.  5: Coupled cluster CCSD  energy :     -76.2401173114218693
 Iter.  6: Coupled cluster CCSD  energy :     -76.2401155893787319
 Iter.  7: Coupled cluster CCSD  energy :     -76.2401149507430631
 Iter.  8: Coupled cluster CCSD  energy :     -76.2401148241426085
 Iter.  9: Coupled cluster CCSD  energy :     -76.2401147960161012
 Iter. 10: Coupled cluster CCSD  energy :     -76.2401147842004576
 Iter. 11: Coupled cluster CCSD  energy :     -76.2401147810830366

 CCSD  energy converged to within   0.10D-07 is          -76.240114781083
 Final 2-norm of the CC vector function:  1.01217932D-07





             +-------------------------------------------------------+
             ! Final results from the Coupled Cluster energy program !
             +-------------------------------------------------------+



            Total SCF   energy:                   -76.0267418987

            Total MP2   energy:                   -76.2307908199

            Total CCSD  energy:                   -76.2401147811
  

 *******************************************************************************
 *******************************************************************************
 *                                                                             *
 *                                                                             *
 *                   SUMMARY OF COUPLED CLUSTER CALCULATION                    *
 *                                                                             *
 *                                                                             *
 *******************************************************************************
 *******************************************************************************

                                                                                
                                                                                
            Total SCF   energy:                   -76.0267418987                
            Total MP2   energy:                   -76.2307908199                
            Total CCSD  energy:                   -76.2401147811                
  

 *******************************************************************************
 *******************************************************************************
 *                                                                             *
 *                                                                             *
 *                      END OF COUPLED CLUSTER CALCULATION                     *
 *                                                                             *
 *                                                                             *
 *******************************************************************************
 *******************************************************************************


 >>>> CPU and wall time for CC :       0.410       0.410

 
     Date and time (Linux)  : Sat Jan  3 11:32:01 2015
     Host name              : sunray                                  


                      .-------------------------------------.
                      | End of Coupled Cluster Section (CC) |
                      `-------------------------------------'



        *****************************************************************
        ******** Output from **PROPE input processing for ABACUS ********
        *****************************************************************



      AO integral driven SOPPA :
         (Ref.: K. L. Bak, H. Koch, J. Oddershede, O. Christiansen and S. P. A. Sauer
          J. Chem. Phys. 112, 4173-4185 (2000))


 The following molecular properties will be calculated in this run:
 ------------------------------------------------------------------

 Default print level:        2

      Electronic excitation energies 
      Direct calculation - no two-electron integrals written or read.
      No mass-velocity correction calculated
      No Darwin correction calculated
      Natural orbital connection is used
      for perturbation dependent basis sets.


 Changes of defaults in SOPPA:
 -----------------------------

 AO integral driven SOPPA :
    (Ref.: K. L. Bak, H. Koch, J. Oddershede, O. Christiansen and S. P. A. Sauer
     J. Chem. Phys. 112, 4173-4185 (2000))
 AO integral driven SOPPA(CCSD)
    (Ref.: H. H. Falden, K. R. Falster-Hansen, K. L. Bak, S. Rettrup and S. P. A. Sauer,
     J. Phys. Chem. A 113, 11995-12012 (2009))
 The maximum number of trial vectors for each excitation is changed to :   4
 The last :     0    1    0    0    0    0    0    0 excitation energies
    are only converged to :  0.10E-01


 Changes of defaults for .EXCITA:
 --------------------------------

 Number of excitation energies:    5    6    5    5
 Print level          :    2
 Integral print level :    2
 Convergence threshold: 1.00E-04
 Maximum iterations   :   60
 Conventional rotational strength
 Dipole strength

 WARNING SIR_INTOPEN, old integral transformation not found as expected, ICASE = 1
 - ICASE = 1: MO integral file MOTWOINT does not exist
 - ICASE = 2: no MO integrals on MOTWOINT
 - ICASE = 3: transformation level on MOTWOINT not sufficient

 NSETUP: MO transformation level too low or no MO integral file found.
 NSETUP: generating MO 2-el. integral file.


 WORKING AREA IN TRANSFORMATION SECTION    8000000

 TRANSFORMATION SECTION: PARAMETER =  10
 MAXIMUM NUMBER OF AO INTEGRALS =      12419

---> (Re)generating AOTWOINT


     ************************************************************************
     ************************** Output from HERINT **************************
     ************************************************************************


 Threshold for neglecting two-electron integrals:  1.00D-15
 HERMIT - Number of two-electron integrals written:       11412 ( 25.3% )
 HERMIT - Megabytes written:                              0.137


 FIRST HALF-SORT STATISTICS
  NUMBER OF PASSES OVER AO FI      1
  NUMBER OF BLOCKS PER CHA       300
  TOTAL NUMBER OF CHAINS           1
  NUMBER OF BUFFERS PER PA         1

  NUMBER OF INTEGRALS PER DIRECT ACCESS BUFFER      1706

  NUMBER OF DA RECORDS FOR ALL INTEGRALS      15
  NUMBER OF DA RECORDS ACTUALLY USED          14
  PERCENT NON-ZERO AO INTEGRALS             0.01

  THRESHOLD FOR DISCARDING INTEGRALS  1.00D-16

 TIME IN SORTA      0.00

 NUMBER OF INTEGRALS (PQ/CD) WRITTEN ON UNIT 13 IS     24538

  THRESHOLD FOR DISCARDING INTEGRALS  1.00D-15
 TIME IN TRACD      0.01

 SECOND HALF-SORT STATISTICS
  NUMBER OF PASSES OVER FILE       1
  NUMBER OF BLOCKS PER CHA       300
  TOTAL NUMBER OF CHAINS           1
  NUMBER OF BUFFERS PER PA         1

 NUMBER OF INTEGRALS PER DIRECT ACCESS BUFFER      1706

  NUMBER OF DA RECORDS FOR ALL INTEGRALS      15
  NUMBER OF DA RECORDS ACTUALLY USED          15
  PERCENT NON-ZERO INTEGRALS                0.01
 TIME IN SORTB      0.00
 TIME IN TRAAB      0.00

 NUMBER OF TRANSFORMED INTEGRALS WRITTEN ON UNIT 12 IS     24538
 USING   300 + 1 RECORDS WITH BUFFER LENGTH   107

  THRESHOLD FOR DISCARDING INTEGRALS  1.00D-15
 TOTAL TIME IN TRACD,SORTB,TRAAB      0.01

 Integral transformation: Total CPU and WALL times (sec)       0.010       0.013


                                 Isotopic Masses
                                 ---------------

                           O          15.994915
                           H   _1      1.007825
                           H   _2      1.007825

                       Total mass:    18.010565 amu
                       Natural abundance:  99.730 %

 Center-of-mass coordinates (a.u.):    0.000000    0.000000   -0.000015

 Center of mass dipole origin  :    0.000000    0.000000   -0.000015

 Center of mass gauge origin   :    0.000000    0.000000   -0.000015


                 .------------------------------------------------.
                 | Starting in Static Property Section (ABACUS) - |
                 `------------------------------------------------'


 
     Date and time (Linux)  : Sat Jan  3 11:32:01 2015
     Host name              : sunray                                  


                            **************************
                            *** Output from TROINV ***
                            **************************



  Translational and rotational coordinates
  ----------------------------------------


  Symmetry  1

        Translation along Z axis

  Symmetry  2

        Translation along X axis
        Rotation around Y axis

  Symmetry  3

        Translation along Y axis
        Rotation around X axis

  Symmetry  4

        Rotation around Z axis


                  **********************************************
                  *** ABACUS - Excitation energies (.EXCITA) ***
                  **********************************************


 Maximum number of trial vectors for each excitation is  4

 number of new trial vectors           5
 number of new trial vectors           5
 number of new trial vectors           5
 number of new trial vectors           5
 number of new trial vectors           5

  ******************************************************************
              SOPPA iterations, Excitation symmetry 1
  ******************************************************************

  ==================================================================
                1. SOPPA iteration, Excitation symmetry 1
  ==================================================================

            --------------------------------------------------
            Excitation   Energy (au)     Residual    Converged
            --------------------------------------------------
                 1       0.50629500     6.6163D-01       no
                 2       0.76859604     6.1603D-01       no
                 3       1.10766370     7.4527D-01       no
                 4       1.35690451     3.4132D-02       no
                 5       1.49867194     1.3287D-02       no
            --------------------------------------------------

  ==================================================================
                2. SOPPA iteration, Excitation symmetry 1
  ==================================================================

            --------------------------------------------------
            Excitation   Energy (au)     Residual    Converged
            --------------------------------------------------
                 1       0.38750491     6.1890D-02       no
                 2       0.65091297     1.0051D-01       no
                 3       0.96118590     1.1279D-01       no
                 4       1.23991405     7.1125D-01       no
                 5       1.36488639     1.8686D-01       no
            --------------------------------------------------

  ==================================================================
                3. SOPPA iteration, Excitation symmetry 1
  ==================================================================

            --------------------------------------------------
            Excitation   Energy (au)     Residual    Converged
            --------------------------------------------------
                 1       0.38655179     7.8440D-03       no
                 2       0.64750126     2.8964D-02       no
                 3       0.95699560     3.4103D-02       no
                 4       1.09056391     7.6873D-02       no
                 5       1.25579660     4.3052D-01       no
            --------------------------------------------------

  ==================================================================
                4. SOPPA iteration, Excitation symmetry 1
  ==================================================================

            --------------------------------------------------
            Excitation   Energy (au)     Residual    Converged
            --------------------------------------------------
                 1       0.38653397     1.4237D-03       no
                 2       0.64719876     6.5655D-03       no
                 3       0.95652621     1.1264D-02       no
                 4       1.08762101     3.8544D-02       no
                 5       1.15523740     3.8754D-01       no
            --------------------------------------------------

  ==================================================================
                5. SOPPA iteration, Excitation symmetry 1
  ==================================================================

            --------------------------------------------------
            Excitation   Energy (au)     Residual    Converged
            --------------------------------------------------
                 1       0.38653354     1.6047D-04       no
                 2       0.64718662     1.2753D-03       no
                 3       0.95647278     3.4965D-03       no
                 4       1.08405454     8.3438D-02       no
                 5       1.09420287     1.0833D-01       no
            --------------------------------------------------

  ==================================================================
                6. SOPPA iteration, Excitation symmetry 1
  ==================================================================

            --------------------------------------------------
            Excitation   Energy (au)     Residual    Converged
            --------------------------------------------------
                 1       0.38653354     2.6500D-05      yes
                 2       0.64718624     1.7691D-04       no
                 3       0.95646918     1.0661D-03       no
                 4       1.08069672     2.7759D-02       no
                 5       1.09114739     1.9195D-02       no
            --------------------------------------------------

  ==================================================================
                7. SOPPA iteration, Excitation symmetry 1
  ==================================================================

            --------------------------------------------------
            Excitation   Energy (au)     Residual    Converged
            --------------------------------------------------
                 1       0.38653354     2.5360D-05      yes
                 2       0.64718623     3.5659D-05      yes
                 3       0.95646891     4.5783D-04       no
                 4       1.08041190     1.0884D-02       no
                 5       1.09101739     7.2906D-03       no
            --------------------------------------------------

  ==================================================================
                8. SOPPA iteration, Excitation symmetry 1
  ==================================================================

            --------------------------------------------------
            Excitation   Energy (au)     Residual    Converged
            --------------------------------------------------
                 1       0.38653354     2.1664D-05      yes
                 2       0.64718623     2.2521D-05      yes
                 3       0.95646886     1.2591D-04       no
                 4       1.08037667     3.2495D-03       no
                 5       1.09100136     2.2182D-03       no
            --------------------------------------------------

  ==================================================================
                9. SOPPA iteration, Excitation symmetry 1
  ==================================================================

            --------------------------------------------------
            Excitation   Energy (au)     Residual    Converged
            --------------------------------------------------
                 1       0.38653354     2.1064D-05      yes
                 2       0.64718623     2.1510D-05      yes
                 3       0.95646886     5.6483D-05      yes
                 4       1.08037180     1.6895D-03       no
                 5       1.09099891     1.2572D-03       no
            --------------------------------------------------

  ==================================================================
               10. SOPPA iteration, Excitation symmetry 1
  ==================================================================

            --------------------------------------------------
            Excitation   Energy (au)     Residual    Converged
            --------------------------------------------------
                 1       0.38653354     2.0476D-05      yes
                 2       0.64718623     2.0393D-05      yes
                 3       0.95646886     5.0258D-05      yes
                 4       1.08037065     5.4967D-04       no
                 5       1.09099825     4.2789D-04       no
            --------------------------------------------------

  ==================================================================
               11. SOPPA iteration, Excitation symmetry 1
  ==================================================================

            --------------------------------------------------
            Excitation   Energy (au)     Residual    Converged
            --------------------------------------------------
                 1       0.38653354     1.9923D-05      yes
                 2       0.64718623     1.9234D-05      yes
                 3       0.95646886     5.0242D-05      yes
                 4       1.08037055     1.3578D-04       no
                 5       1.09099819     1.0812D-04       no
            --------------------------------------------------

  ==================================================================
               12. SOPPA iteration, Excitation symmetry 1
  ==================================================================

            --------------------------------------------------
            Excitation   Energy (au)     Residual    Converged
            --------------------------------------------------
                 1       0.38653354     1.9726D-05      yes
                 2       0.64718623     1.6943D-05      yes
                 3       0.95646886     4.9416D-05      yes
                 4       1.08037055     3.9669D-05      yes
                 5       1.09099819     3.2886D-05      yes
            --------------------------------------------------

 -------------------------------------------------------------
 Iterations stopped since: 
 -------------------------
 All of the excitations are converged.
 -------------------------------------------------------------


 --------------------------------------------------------------
 Excitation symmetry  1, state no.  1

 SOPPA excitation energy :  0.38653354     au
                             10.518113     eV
                             84834.304     cm-1
                             1014.8436     kj / mole

 1p-1h + 1h-1p excitation weight:  95.39 + -0.13  =  95.26 %
 2p-2h + 2h-2p excitation weight:   4.74 +  0.00  =   4.74 %

 |=====================================================|
 |          | Symmetry|  Orbital index  |   Amplitude  |
 |          | index   |   a   b   i   j |              |
 |=====================================================|
 |    exci. | 1   1   |   1       3     |    0.977962  |
 |-----------------------------------------------------|
 |    exci. | 3 1 3 1 |   1   1   1   3 |   -0.101995  |
 |=====================================================|

 Printed all single excitation amplitudes greater than 0.100000
 Printed all double excitation amplitudes greater than 0.100000

 --------------------------------------------------------------
 Excitation symmetry  1, state no.  2

 SOPPA excitation energy :  0.64718623     au
                             17.610833     eV
                             142040.96     cm-1
                             1699.1872     kj / mole

 1p-1h + 1h-1p excitation weight:  96.40 + -0.41  =  95.98 %
 2p-2h + 2h-2p excitation weight:   4.02 +  0.00  =   4.02 %

 |=====================================================|
 |          | Symmetry|  Orbital index  |   Amplitude  |
 |          | index   |   a   b   i   j |              |
 |=====================================================|
 |    exci. | 3   3   |   1       1     |   -0.977367  |
 |-----------------------------------------------------|
 |    exci. | 3 1 3 1 |   1   1   1   2 |    0.046053  |
 |    exci. | 3 1 3 1 |   1   5   1   2 |    0.023462  |
 |    exci. | 3 1 3 1 |   1   1   1   3 |   -0.060778  |
 |    exci. | 3 1 3 1 |   1   3   1   3 |    0.056777  |
 |    exci. | 3 2 3 2 |   1   1   1   1 |    0.068499  |
 |    exci. | 3 2 3 2 |   3   1   1   1 |   -0.023182  |
 |    exci. | 3 3 3 3 |   1   1   1   1 |    0.099155  |
 |    exci. | 3 3 3 3 |   3   1   1   1 |    0.032652  |
 |    exci. | 3 3 3 3 |   5   2   1   1 |   -0.020020  |
 |    exci. | 3 3 1 1 |   1   1   2   2 |    0.021820  |
 |    exci. | 3 3 1 1 |   1   1   3   2 |    0.025310  |
 |    exci. | 3 3 1 1 |   2   1   3   2 |    0.046972  |
 |    exci. | 3 3 1 1 |   1   2   3   2 |    0.022038  |
 |    exci. | 4 3 2 1 |   1   1   1   2 |    0.031407  |
 |    exci. | 4 3 2 1 |   2   1   1   2 |   -0.025739  |
 |    exci. | 1 3 3 1 |   2   1   1   2 |   -0.033340  |
 |    exci. | 1 3 3 1 |   1   1   1   3 |   -0.020149  |
 |    exci. | 1 3 3 1 |   1   2   1   3 |   -0.027425  |
 |    exci. | 1 1 3 3 |   1   1   1   1 |    0.029589  |
 |    exci. | 1 1 3 3 |   2   1   1   1 |    0.034436  |
 |=====================================================|

 Printed all single excitation amplitudes greater than 0.100000
 Printed all double excitation amplitudes greater than 0.020000

 --------------------------------------------------------------
 Excitation symmetry  1, state no.  3

 SOPPA excitation energy :  0.95646886     au
                             26.026842     eV
                             209920.65     cm-1
                             2511.2086     kj / mole

 1p-1h + 1h-1p excitation weight:  94.86 + -0.07  =  94.80 %
 2p-2h + 2h-2p excitation weight:   5.20 +  0.00  =   5.20 %

 |=====================================================|
 |          | Symmetry|  Orbital index  |   Amplitude  |
 |          | index   |   a   b   i   j |              |
 |=====================================================|
 |    exci. | 1   1   |   2       3     |   -0.960731  |
 |    exci. | 2   2   |   1       1     |   -0.105461  |
 |-----------------------------------------------------|
 |    exci. | 1 1 1 1 |   1   1   3   2 |   -0.035204  |
 |    exci. | 1 1 1 1 |   2   1   3   2 |    0.021187  |
 |    exci. | 1 1 1 1 |   2   2   3   2 |    0.021145  |
 |    exci. | 1 1 1 1 |   3   2   3   2 |    0.030890  |
 |    exci. | 1 1 1 1 |   4   2   3   2 |    0.023141  |
 |    exci. | 1 1 1 1 |   2   5   3   2 |    0.020359  |
 |    exci. | 1 1 1 1 |   1   1   3   3 |    0.038788  |
 |    exci. | 1 1 1 1 |   2   1   3   3 |   -0.041990  |
 |    exci. | 1 1 1 1 |   3   1   3   3 |   -0.044757  |
 |    exci. | 1 1 1 1 |   2   2   3   3 |   -0.058766  |
 |    exci. | 1 1 1 1 |   3   2   3   3 |    0.052615  |
 |    exci. | 1 1 1 1 |   4   2   3   3 |    0.022453  |
 |    exci. | 1 1 1 1 |   5   2   3   3 |    0.039021  |
 |    exci. | 1 1 1 1 |   7   2   3   3 |   -0.028009  |
 |    exci. | 1 1 1 1 |   6   3   3   3 |    0.023209  |
 |    exci. | 2 1 2 1 |   2   2   1   2 |   -0.023375  |
 |    exci. | 2 1 2 1 |   3   2   1   2 |   -0.023275  |
 |    exci. | 2 1 2 1 |   1   1   1   3 |   -0.045555  |
 |    exci. | 2 1 2 1 |   1   2   1   3 |    0.062369  |
 |    exci. | 2 1 2 1 |   2   2   1   3 |   -0.032516  |
 |    exci. | 2 1 2 1 |   3   2   1   3 |   -0.024804  |
 |    exci. | 2 1 2 1 |   1   6   1   3 |    0.021685  |
 |    exci. | 3 1 3 1 |   2   2   1   2 |    0.040483  |
 |    exci. | 3 1 3 1 |   1   1   1   3 |   -0.035741  |
 |    exci. | 3 1 3 1 |   3   1   1   3 |   -0.024339  |
 |    exci. | 3 1 3 1 |   1   2   1   3 |    0.081699  |
 |    exci. | 3 1 3 1 |   2   2   1   3 |    0.086174  |
 |    exci. | 3 1 3 1 |   3   2   1   3 |    0.037663  |
 |    exci. | 3 1 3 1 |   5   2   1   3 |    0.023614  |
 |    exci. | 3 3 1 1 |   2   2   3   2 |    0.027121  |
 |    exci. | 3 3 1 1 |   2   1   3   3 |   -0.028474  |
 |    exci. | 3 3 1 1 |   2   2   3   3 |   -0.049523  |
 |    exci. | 4 3 2 1 |   1   2   1   3 |   -0.022356  |
 |    exci. | 1 3 3 1 |   1   2   1   3 |    0.040071  |
 |    exci. | 1 3 3 1 |   2   2   1   3 |    0.056248  |
 |    exci. | 1 3 3 1 |   2   3   1   3 |    0.021118  |
 |    exci. | 1 3 3 1 |   2   4   1   3 |   -0.028369  |
 |=====================================================|

 Printed all single excitation amplitudes greater than 0.100000
 Printed all double excitation amplitudes greater than 0.020000

 --------------------------------------------------------------
 Excitation symmetry  1, state no.  4

 SOPPA excitation energy :   1.0803705     au
                             29.398378     eV
                             237113.93     cm-1
                             2836.5124     kj / mole

 1p-1h + 1h-1p excitation weight:  94.93 + -0.15  =  94.78 %
 2p-2h + 2h-2p excitation weight:   5.22 +  0.00  =   5.22 %

 |=====================================================|
 |          | Symmetry|  Orbital index  |   Amplitude  |
 |          | index   |   a   b   i   j |              |
 |=====================================================|
 |    exci. | 1   1   |   1       2     |   -0.509685  |
 |    exci. | 3   3   |   2       1     |    0.823435  |
 |-----------------------------------------------------|
 |    exci. | 1 1 1 1 |   1   1   2   2 |    0.032467  |
 |    exci. | 1 1 1 1 |   1   1   3   2 |   -0.043797  |
 |    exci. | 1 1 1 1 |   2   1   3   2 |   -0.020634  |
 |    exci. | 1 1 1 1 |   3   1   3   2 |    0.041935  |
 |    exci. | 2 1 2 1 |   1   1   1   2 |    0.052107  |
 |    exci. | 3 1 3 1 |   1   1   1   2 |    0.074442  |
 |    exci. | 3 1 3 1 |   3   1   1   2 |    0.037753  |
 |    exci. | 3 1 3 1 |   2   4   1   2 |    0.021062  |
 |    exci. | 3 1 3 1 |   2   1   1   3 |    0.072295  |
 |    exci. | 3 1 3 1 |   2   2   1   3 |    0.030645  |
 |    exci. | 3 1 3 1 |   1   3   1   3 |    0.030443  |
 |    exci. | 3 1 3 1 |   2   3   1   3 |   -0.032302  |
 |    exci. | 3 2 3 2 |   1   1   1   1 |    0.036086  |
 |    exci. | 3 2 3 2 |   2   1   1   1 |   -0.042273  |
 |    exci. | 3 3 3 3 |   1   1   1   1 |    0.047534  |
 |    exci. | 3 3 3 3 |   2   1   1   1 |   -0.050025  |
 |    exci. | 3 3 3 3 |   3   1   1   1 |    0.023806  |
 |    exci. | 3 3 3 3 |   5   1   1   1 |    0.023727  |
 |    exci. | 3 3 3 3 |   2   2   1   1 |   -0.037303  |
 |    exci. | 3 3 3 3 |   3   2   1   1 |   -0.035544  |
 |    exci. | 3 3 3 3 |   5   3   1   1 |    0.021488  |
 |    exci. | 1 1 2 2 |   1   1   1   1 |    0.057557  |
 |    exci. | 1 1 2 2 |   2   1   1   1 |    0.034914  |
 |    exci. | 4 1 3 2 |   1   1   1   1 |    0.024697  |
 |    exci. | 3 3 1 1 |   2   2   3   2 |   -0.057248  |
 |    exci. | 4 3 2 1 |   1   2   1   2 |   -0.027658  |
 |    exci. | 4 3 2 1 |   2   2   1   2 |    0.021137  |
 |    exci. | 1 3 3 1 |   1   1   1   2 |    0.033647  |
 |    exci. | 1 3 3 1 |   4   2   1   2 |    0.023685  |
 |    exci. | 1 3 3 1 |   1   1   1   3 |    0.030091  |
 |    exci. | 1 3 3 1 |   1   2   1   3 |    0.049268  |
 |    exci. | 1 3 3 1 |   2   2   1   3 |    0.026144  |
 |    exci. | 1 4 3 2 |   1   1   1   1 |    0.027250  |
 |    exci. | 1 1 3 3 |   2   1   1   1 |   -0.066373  |
 |    exci. | 1 1 3 3 |   2   2   1   1 |   -0.051375  |
 |=====================================================|

 Printed all single excitation amplitudes greater than 0.100000
 Printed all double excitation amplitudes greater than 0.020000

 --------------------------------------------------------------
 Excitation symmetry  1, state no.  5

 SOPPA excitation energy :   1.0909982     au
                             29.687571     eV
                             239446.42     cm-1
                             2864.4153     kj / mole

 1p-1h + 1h-1p excitation weight:  93.84 + -0.16  =  93.68 %
 2p-2h + 2h-2p excitation weight:   6.32 +  0.00  =   6.32 %

 |=====================================================|
 |          | Symmetry|  Orbital index  |   Amplitude  |
 |          | index   |   a   b   i   j |              |
 |=====================================================|
 |    exci. | 1   1   |   1       2     |    0.780505  |
 |    exci. | 1   1   |   2       3     |   -0.107643  |
 |    exci. | 2   2   |   1       1     |   -0.281052  |
 |    exci. | 3   3   |   2       1     |    0.481775  |
 |-----------------------------------------------------|
 |    exci. | 1 1 1 1 |   1   1   2   2 |   -0.049395  |
 |    exci. | 1 1 1 1 |   1   1   3   2 |    0.069264  |
 |    exci. | 1 1 1 1 |   2   1   3   2 |    0.038763  |
 |    exci. | 1 1 1 1 |   3   1   3   2 |   -0.058261  |
 |    exci. | 1 1 1 1 |   3   1   3   3 |   -0.033804  |
 |    exci. | 1 1 1 1 |   4   1   3   3 |   -0.035110  |
 |    exci. | 1 1 1 1 |   5   1   3   3 |   -0.021981  |
 |    exci. | 1 1 1 1 |   7   1   3   3 |    0.020507  |
 |    exci. | 2 1 2 1 |   1   1   1   2 |   -0.073122  |
 |    exci. | 2 1 2 1 |   2   1   1   3 |    0.033736  |
 |    exci. | 2 1 2 1 |   3   1   1   3 |    0.025666  |
 |    exci. | 3 1 3 1 |   1   1   1   2 |   -0.077046  |
 |    exci. | 3 1 3 1 |   2   1   1   2 |   -0.044882  |
 |    exci. | 3 1 3 1 |   3   1   1   2 |   -0.049030  |
 |    exci. | 3 1 3 1 |   1   1   1   3 |   -0.043425  |
 |    exci. | 3 1 3 1 |   2   1   1   3 |   -0.047655  |
 |    exci. | 3 1 3 1 |   5   1   1   3 |   -0.026102  |
 |    exci. | 3 1 3 1 |   2   2   1   3 |    0.023234  |
 |    exci. | 3 2 3 2 |   1   1   1   1 |    0.024476  |
 |    exci. | 3 2 3 2 |   2   1   1   1 |   -0.024067  |
 |    exci. | 3 3 3 3 |   1   1   1   1 |    0.025367  |
 |    exci. | 3 3 3 3 |   2   1   1   1 |   -0.030281  |
 |    exci. | 3 3 3 3 |   2   2   1   1 |   -0.021550  |
 |    exci. | 3 3 3 3 |   3   2   1   1 |   -0.022590  |
 |    exci. | 1 2 2 1 |   1   2   1   3 |    0.035469  |
 |    exci. | 1 2 2 1 |   1   3   1   3 |    0.026272  |
 |    exci. | 1 1 2 2 |   1   1   1   1 |   -0.091764  |
 |    exci. | 1 1 2 2 |   2   1   1   1 |   -0.067245  |
 |    exci. | 1 1 2 2 |   3   1   1   1 |   -0.022899  |
 |    exci. | 1 1 2 2 |   4   1   1   1 |    0.020708  |
 |    exci. | 1 1 2 2 |   5   1   1   1 |    0.024394  |
 |    exci. | 1 1 2 2 |   6   1   1   1 |    0.031716  |
 |    exci. | 1 1 2 2 |   8   1   1   1 |    0.023223  |
 |    exci. | 4 1 3 2 |   1   1   1   1 |   -0.042093  |
 |    exci. | 4 1 3 2 |   2   1   1   1 |    0.022934  |
 |    exci. | 3 3 1 1 |   2   2   3   2 |   -0.021645  |
 |    exci. | 1 3 3 1 |   1   1   1   2 |   -0.050801  |
 |    exci. | 1 3 3 1 |   2   1   1   2 |   -0.025193  |
 |    exci. | 1 3 3 1 |   1   1   1   3 |   -0.038863  |
 |    exci. | 1 3 3 1 |   1   2   1   3 |   -0.071465  |
 |    exci. | 1 3 3 1 |   1   5   1   3 |   -0.022674  |
 |    exci. | 1 4 3 2 |   1   1   1   1 |   -0.044631  |
 |    exci. | 1 4 3 2 |   1   2   1   1 |    0.026461  |
 |    exci. | 1 1 3 3 |   2   1   1   1 |    0.031664  |
 |    exci. | 1 1 3 3 |   3   1   1   1 |    0.028586  |
 |    exci. | 1 1 3 3 |   4   1   1   1 |    0.029568  |
 |    exci. | 1 1 3 3 |   6   1   1   1 |   -0.021557  |
 |    exci. | 1 1 3 3 |   2   2   1   1 |   -0.023498  |
 |=====================================================|

 Printed all single excitation amplitudes greater than 0.100000
 Printed all double excitation amplitudes greater than 0.020000

 --------------------------------------------------------------

 ZDIPLEN  SOPPA transition moments for excitation symmetry  1
 ===================================================================
 Exci.    1p-1h        2p-2h        1h-1p        2h-2p        Total
 -------------------------------------------------------------------
   1     0.61562 +    0.02523 +   -0.03541 +   -0.00068 =    0.60476
   2     0.56362 +    0.01839 +   -0.05742 +   -0.00097 =    0.52362
   3     0.01754 +    0.00305 +    0.01258 +    0.00021 =    0.03339
   4    -0.45853 +   -0.01280 +    0.05694 +    0.00058 =   -0.41381
   5    -0.44943 +   -0.00274 +    0.03993 +    0.00066 =   -0.41158
 ===================================================================

 ZDIPVEL  SOPPA transition moments for excitation symmetry  1
 ===================================================================
 Exci.    1p-1h        2p-2h        1h-1p        2h-2p        Total
 -------------------------------------------------------------------
   1    -0.31183 +   -0.00982 +   -0.01970 +   -0.00036 =   -0.34171
   2    -0.30718 +   -0.00816 +   -0.04021 +   -0.00059 =   -0.35614
   3    -0.07883 +   -0.00282 +    0.00466 +    0.00011 =   -0.07688
   4     0.35223 +    0.00462 +    0.07209 +    0.00032 =    0.42925
   5     0.40014 +    0.00438 +    0.02259 +    0.00034 =    0.42746
 ===================================================================

 XXSECMOM SOPPA transition moments for excitation symmetry  1
 ===================================================================
 Exci.    1p-1h        2p-2h        1h-1p        2h-2p        Total
 -------------------------------------------------------------------
   1    -0.12473 +   -0.00898 +    0.03599 +    0.00022 =   -0.09751
   2    -0.31349 +   -0.01913 +    0.08393 +    0.00043 =   -0.24826
   3    -0.20779 +   -0.01010 +   -0.02659 +   -0.00004 =   -0.24453
   4    -0.57041 +   -0.02295 +    0.02301 +    0.00037 =   -0.56998
   5    -0.33869 +   -0.00076 +   -0.03458 +   -0.00003 =   -0.37406
 ===================================================================

 YYSECMOM SOPPA transition moments for excitation symmetry  1
 ===================================================================
 Exci.    1p-1h        2p-2h        1h-1p        2h-2p        Total
 -------------------------------------------------------------------
   1    -0.59926 +   -0.03137 +    0.09411 +    0.00161 =   -0.53491
   2    -2.05406 +   -0.07989 +    0.15328 +    0.00226 =   -1.97842
   3     0.54520 +    0.01549 +   -0.06635 +   -0.00077 =    0.49357
   4    -0.60008 +   -0.03640 +    0.00682 +    0.00000 =   -0.62966
   5     0.64607 +    0.01033 +   -0.09738 +   -0.00127 =    0.55775
 ===================================================================

 ZZSECMOM SOPPA transition moments for excitation symmetry  1
 ===================================================================
 Exci.    1p-1h        2p-2h        1h-1p        2h-2p        Total
 -------------------------------------------------------------------
   1    -0.52298 +   -0.02256 +    0.05916 +    0.00083 =   -0.48554
   2    -0.80520 +   -0.03727 +    0.13086 +    0.00146 =   -0.71016
   3    -0.14384 +   -0.01771 +   -0.02776 +   -0.00022 =   -0.18954
   4    -0.24231 +   -0.01568 +   -0.00488 +   -0.00013 =   -0.26299
   5     0.49767 +    0.01448 +   -0.07038 +   -0.00070 =    0.44107
 ===================================================================

  ******************************************************************
           SOPPA(CCSD)  iterations, Excitation symmetry 1
  ******************************************************************

  ==================================================================
             1. SOPPA(CCSD)  iteration, Excitation symmetry 1
  ==================================================================

            --------------------------------------------------
            Excitation   Energy (au)     Residual    Converged
            --------------------------------------------------
                 1       0.38886622     2.1562D-03       no
                 2       0.64944261     1.5774D-03       no
                 3       0.95897287     2.0570D-03       no
                 4       1.08333250     2.1376D-03       no
                 5       1.09368381     3.0078D-03       no
            --------------------------------------------------

  ==================================================================
             2. SOPPA(CCSD)  iteration, Excitation symmetry 1
  ==================================================================

            --------------------------------------------------
            Excitation   Energy (au)     Residual    Converged
            --------------------------------------------------
                 1       0.38886463     5.9116D-04       no
                 2       0.64944184     4.5133D-04       no
                 3       0.95897176     8.1383D-04       no
                 4       1.08333097     5.9816D-04       no
                 5       1.09368108     9.4283D-04       no
            --------------------------------------------------

  ==================================================================
             3. SOPPA(CCSD)  iteration, Excitation symmetry 1
  ==================================================================

            --------------------------------------------------
            Excitation   Energy (au)     Residual    Converged
            --------------------------------------------------
                 1       0.38886456     7.8023D-05      yes
                 2       0.64944178     1.3195D-04       no
                 3       0.95897155     2.5316D-04       no
                 4       1.08333086     1.7605D-04       no
                 5       1.09368065     4.9443D-04       no
            --------------------------------------------------

  ==================================================================
             4. SOPPA(CCSD)  iteration, Excitation symmetry 1
  ==================================================================

            --------------------------------------------------
            Excitation   Energy (au)     Residual    Converged
            --------------------------------------------------
                 1       0.38886456     4.8581D-05      yes
                 2       0.64944177     2.4268D-05      yes
                 3       0.95897152     9.0394D-05      yes
                 4       1.08333084     7.0399D-05      yes
                 5       1.09368040     4.1163D-04       no
            --------------------------------------------------

  ==================================================================
             5. SOPPA(CCSD)  iteration, Excitation symmetry 1
  ==================================================================

            --------------------------------------------------
            Excitation   Energy (au)     Residual    Converged
            --------------------------------------------------
                 1       0.38886456     4.7462D-05      yes
                 2       0.64944177     2.4166D-05      yes
                 3       0.95897152     4.4035D-05      yes
                 4       1.08333084     6.4870D-05      yes
                 5       1.09368035     1.0959D-04       no
            --------------------------------------------------

  ==================================================================
             6. SOPPA(CCSD)  iteration, Excitation symmetry 1
  ==================================================================

            --------------------------------------------------
            Excitation   Energy (au)     Residual    Converged
            --------------------------------------------------
                 1       0.38886456     4.7416D-05      yes
                 2       0.64944177     2.4172D-05      yes
                 3       0.95897152     3.8318D-05      yes
                 4       1.08333084     6.3657D-05      yes
                 5       1.09368034     3.4762D-05      yes
            --------------------------------------------------

 -------------------------------------------------------------
 Iterations stopped since: 
 -------------------------
 All of the excitations are converged.
 -------------------------------------------------------------


 --------------------------------------------------------------
 Excitation symmetry  1, state no.  1

 SOPPA(CCSD) excitation energy :  0.38886456     au
                                   10.581543     eV
                                   85345.905     cm-1
                                   1020.9637     kj / mole

 1p-1h + 1h-1p excitation weight:  95.37 + -0.13  =  95.23 %
 2p-2h + 2h-2p excitation weight:   4.77 +  0.00  =   4.77 %

 |=====================================================|
 |          | Symmetry|  Orbital index  |   Amplitude  |
 |          | index   |   a   b   i   j |              |
 |=====================================================|
 |    exci. | 1   1   |   1       3     |    0.979397  |
 |-----------------------------------------------------|
 |    exci. | 3 1 3 1 |   1   1   1   3 |   -0.102346  |
 |=====================================================|

 Printed all single excitation amplitudes greater than 0.100000
 Printed all double excitation amplitudes greater than 0.100000

 --------------------------------------------------------------
 Excitation symmetry  1, state no.  2

 SOPPA(CCSD) excitation energy :  0.64944177     au
                                   17.672210     eV
                                   142535.99     cm-1
                                   1705.1091     kj / mole

 1p-1h + 1h-1p excitation weight:  96.38 + -0.42  =  95.96 %
 2p-2h + 2h-2p excitation weight:   4.04 +  0.00  =   4.04 %

 |=====================================================|
 |          | Symmetry|  Orbital index  |   Amplitude  |
 |          | index   |   a   b   i   j |              |
 |=====================================================|
 |    exci. | 3   3   |   1       1     |    0.978797  |
 |-----------------------------------------------------|
 |    exci. | 3 1 3 1 |   1   1   1   2 |   -0.046203  |
 |    exci. | 3 1 3 1 |   1   5   1   2 |   -0.023512  |
 |    exci. | 3 1 3 1 |   1   1   1   3 |    0.060945  |
 |    exci. | 3 1 3 1 |   1   3   1   3 |   -0.056928  |
 |    exci. | 3 2 3 2 |   1   1   1   1 |   -0.068683  |
 |    exci. | 3 2 3 2 |   3   1   1   1 |    0.023223  |
 |    exci. | 3 3 3 3 |   1   1   1   1 |   -0.099486  |
 |    exci. | 3 3 3 3 |   3   1   1   1 |   -0.032740  |
 |    exci. | 3 3 3 3 |   5   2   1   1 |    0.020059  |
 |    exci. | 3 3 1 1 |   1   1   2   2 |   -0.021871  |
 |    exci. | 3 3 1 1 |   1   1   3   2 |   -0.025376  |
 |    exci. | 3 3 1 1 |   2   1   3   2 |   -0.047079  |
 |    exci. | 3 3 1 1 |   1   2   3   2 |   -0.022082  |
 |    exci. | 4 3 2 1 |   1   1   1   2 |   -0.031474  |
 |    exci. | 4 3 2 1 |   2   1   1   2 |    0.025788  |
 |    exci. | 1 3 3 1 |   2   1   1   2 |    0.033414  |
 |    exci. | 1 3 3 1 |   1   1   1   3 |    0.020201  |
 |    exci. | 1 3 3 1 |   1   2   1   3 |    0.027495  |
 |    exci. | 1 1 3 3 |   1   1   1   1 |   -0.029694  |
 |    exci. | 1 1 3 3 |   2   1   1   1 |   -0.034507  |
 |=====================================================|

 Printed all single excitation amplitudes greater than 0.100000
 Printed all double excitation amplitudes greater than 0.020000

[...]


 ======================================================================
                              SOPPA results:
 ----------------------------------------------------------------------


@               Singlet electronic excitation energies
                --------------------------------------

               ========================================
                 Sym.   Mode   Frequency    Frequency
                ex. st.  No.      (au)         (eV)
               ----------------------------------------
                   1      1     0.386534    10.518113
                   1      2     0.647186    17.610833
                   1      3     0.956469    26.026842
                   1      4     1.080371    29.398378
                   1      5     1.090998    29.687571
               ----------------------------------------
                   2      1     0.290059     7.892909
                   2      2     0.858570    23.362876
                   2      3     1.140290    31.028871
                   2      4     1.253509    34.109718
                   2      5     1.426915    38.828330
                   2      6     1.439592    39.173296
               ----------------------------------------
                   3      1     0.463397    12.609675
                   3      2     0.536367    14.595299
                   3      3     0.918303    24.988287
                   3      4     1.134109    30.860671
                   3      5     1.159706    31.557205
               ----------------------------------------
                   4      1     0.365039     9.933229
                   4      2     0.791054    21.525665
                   4      3     1.227658    33.406275
                   4      4     1.411008    38.395471
                   4      5     1.500655    40.834892
               ========================================


@               Electric transition dipole moments (au)
                ---------------------------------------

@        Mode    Frequency       Velocity/Frequency              Length
@         No.      (au)          x       y       z         x       y       z
@==============================================================================
@  Symmetry of excited state: 1  ( A1 )
@           1     0.386534     0.0000  0.0000  0.8840    0.0000  0.0000  0.6048
@           2     0.647186     0.0000  0.0000  0.5503    0.0000  0.0000  0.5236
@           3     0.956469     0.0000  0.0000  0.0804    0.0000  0.0000  0.0334
@           4     1.080371     0.0000  0.0000 -0.3973    0.0000  0.0000 -0.4138
@           5     1.090998     0.0000  0.0000 -0.3918    0.0000  0.0000 -0.4116
@------------------------------------------------------------------------------
@  Symmetry of excited state: 2  ( B1 )
@           1     0.290059    -0.8090  0.0000  0.0000   -0.3703  0.0000  0.0000
@           2     0.858570     0.3193  0.0000  0.0000    0.3417  0.0000  0.0000
@           3     1.140290    -0.1134  0.0000  0.0000   -0.0799  0.0000  0.0000
@           4     1.253509     0.1307  0.0000  0.0000    0.0273  0.0000  0.0000
@           5     1.426915     0.0374  0.0000  0.0000    0.0656  0.0000  0.0000
@           6     1.439592    -0.0145  0.0000  0.0000   -0.0299  0.0000  0.0000
@------------------------------------------------------------------------------
@  Symmetry of excited state: 3  ( B2 )
@           1     0.463397     0.0000 -0.5276  0.0000    0.0000 -0.4858  0.0000
@           2     0.536367     0.0000  0.9240  0.0000    0.0000  0.8949  0.0000
@           3     0.918303     0.0000 -0.4576  0.0000    0.0000 -0.4880  0.0000
@           4     1.134109     0.0000 -0.6173  0.0000    0.0000 -0.6827  0.0000
@           5     1.159706     0.0000  0.0401  0.0000    0.0000  0.0591  0.0000
@------------------------------------------------------------------------------
@  Symmetry of excited state: 4  ( A2 )
@           1     0.365039     0.0000  0.0000  0.0000    0.0000  0.0000  0.0000
@           2     0.791054     0.0000  0.0000  0.0000    0.0000  0.0000  0.0000
@           3     1.227658     0.0000  0.0000  0.0000    0.0000  0.0000  0.0000
@           4     1.411008     0.0000  0.0000  0.0000    0.0000  0.0000  0.0000
@           5     1.500655     0.0000  0.0000  0.0000    0.0000  0.0000  0.0000
@------------------------------------------------------------------------------


@               Magnetic transition dipole moments (au)
                ---------------------------------------

  ( mu_B*<0|l_i|n>, where mu_B = 0.5 is the Bohr magneton)

 Symm.  Mode   Frequency         Conventional                  London
 ex.st.  No.     (eV)        x        y       z         x        y        z
 ==============================================================================
   1      1    10.5181    0.00000  0.00000  0.00000   0.00000  0.00000  0.00000
   1      2    17.6108    0.00000  0.00000  0.00000   0.00000  0.00000  0.00000
   1      3    26.0268    0.00000  0.00000  0.00000   0.00000  0.00000  0.00000
   1      4    29.3984    0.00000  0.00000  0.00000   0.00000  0.00000  0.00000
   1      5    29.6876    0.00000  0.00000  0.00000   0.00000  0.00000  0.00000
 ------------------------------------------------------------------------------
   2      1     7.8929    0.00000  0.09114  0.00000   0.00000  0.00000  0.00000
   2      2    23.3629    0.00000  0.09437  0.00000   0.00000  0.00000  0.00000
   2      3    31.0289    0.00000 -0.03345  0.00000   0.00000  0.00000  0.00000
   2      4    34.1097    0.00000  0.05481  0.00000   0.00000  0.00000  0.00000
   2      5    38.8283    0.00000 -0.00710  0.00000   0.00000  0.00000  0.00000
   2      6    39.1733    0.00000  0.01460  0.00000   0.00000  0.00000  0.00000
 ------------------------------------------------------------------------------
   3      1    12.6097    0.13620  0.00000  0.00000   0.00000  0.00000  0.00000
   3      2    14.5953    0.06884  0.00000  0.00000   0.00000  0.00000  0.00000
   3      3    24.9883    0.24650  0.00000  0.00000   0.00000  0.00000  0.00000
   3      4    30.8607   -0.09995  0.00000  0.00000   0.00000  0.00000  0.00000
   3      5    31.5572   -0.04285  0.00000  0.00000   0.00000  0.00000  0.00000
 ------------------------------------------------------------------------------
   4      1     9.9332    0.00000  0.00000 -0.13328   0.00000  0.00000  0.00000
   4      2    21.5257    0.00000  0.00000  0.13164   0.00000  0.00000  0.00000
   4      3    33.4063    0.00000  0.00000 -0.02281   0.00000  0.00000  0.00000
   4      4    38.3955    0.00000  0.00000  0.09932   0.00000  0.00000  0.00000
   4      5    40.8349    0.00000  0.00000  0.02410   0.00000  0.00000  0.00000
 ------------------------------------------------------------------------------


@                  Oscillator and Scalar Rotational Strengths
                   ------------------------------------------

@   Units: 10**(-40) (esu**2)*(cm**2) (rotational strength)
@          dimensionless              (oscillator strength)

@ Symm.  Mode   Frequency    Oscillator-strength      Rotational-strength   
@ ex.st.  No.     (eV)        velocity  length     velocity  length   London
@ ==========================================================================
@  1      1    10.5181        0.2014   0.0942       0.000    0.000    0.000
@  1      2    17.6108        0.1307   0.1183       0.000    0.000    0.000
@  1      3    26.0268        0.0041   0.0007       0.000    0.000    0.000
@  1      4    29.3984        0.1137   0.1233       0.000    0.000    0.000
@  1      5    29.6876        0.1117   0.1232       0.000    0.000    0.000
@ --------------------------------------------------------------------------
@  2      1     7.8929        0.1266   0.0265       0.000    0.000    0.000
@  2      2    23.3629        0.0583   0.0668       0.000    0.000    0.000
@  2      3    31.0289        0.0098   0.0049       0.000    0.000    0.000
@  2      4    34.1097        0.0143   0.0006       0.000    0.000    0.000
@  2      5    38.8283        0.0013   0.0041       0.000    0.000    0.000
@  2      6    39.1733        0.0002   0.0009       0.000    0.000    0.000
@ --------------------------------------------------------------------------
@  3      1    12.6097        0.0860   0.0729       0.000    0.000    0.000
@  3      2    14.5953        0.3053   0.2864       0.000    0.000    0.000
@  3      3    24.9883        0.1282   0.1458       0.000    0.000    0.000
@  3      4    30.8607        0.2881   0.3524       0.000    0.000    0.000
@  3      5    31.5572        0.0012   0.0027       0.000    0.000    0.000
@ --------------------------------------------------------------------------
@  4      1     9.9332        0.0000   0.0000       0.000    0.000    0.000
@  4      2    21.5257        0.0000   0.0000       0.000    0.000    0.000
@  4      3    33.4063        0.0000   0.0000       0.000    0.000    0.000
@  4      4    38.3955        0.0000   0.0000       0.000    0.000    0.000
@  4      5    40.8349        0.0000   0.0000       0.000    0.000    0.000
@ --------------------------------------------------------------------------


 ======================================================================
                              SOPPA(CCSD) results:
 ----------------------------------------------------------------------


@               Singlet electronic excitation energies
                --------------------------------------

               ========================================
                 Sym.   Mode   Frequency    Frequency
                ex. st.  No.      (au)         (eV)
               ----------------------------------------
                   1      1     0.388865    10.581543
                   1      2     0.649442    17.672210
                   1      3     0.958972    26.094943
                   1      4     1.083331    29.478932
                   1      5     1.093680    29.760556
               ----------------------------------------
                   2      1     0.291842     7.941432
                   2      2     0.860561    23.417061
                   2      3     1.140975    31.047500
                   2      4     1.254597    34.139324
                   2      5     1.427406    38.841698
                   2      6     1.440349    39.193881
               ----------------------------------------
                   3      1     0.465229    12.659529
                   3      2     0.539120    14.670211
                   3      3     0.920821    25.056806
                   3      4     1.136886    30.936245
                   3      5     1.162266    31.626855
               ----------------------------------------
                   4      1     0.366406     9.970409
                   4      2     0.793081    21.580844
                   4      3     1.228484    33.428745
                   4      4     1.412431    38.434207
                   4      5     1.500680    40.835574
               ========================================


@               Electric transition dipole moments (au)
                ---------------------------------------

@        Mode    Frequency       Velocity/Frequency              Length
@         No.      (au)          x       y       z         x       y       z
@==============================================================================
@  Symmetry of excited state: 1  ( A1 )
@           1     0.388865     0.0000  0.0000  0.8806    0.0000  0.0000  0.6011
@           2     0.649442     0.0000  0.0000 -0.5488    0.0000  0.0000 -0.5183
@           3     0.958972     0.0000  0.0000  0.0759    0.0000  0.0000  0.0333
@           4     1.083331     0.0000  0.0000 -0.3979    0.0000  0.0000 -0.4138
@           5     1.093680     0.0000  0.0000  0.3916    0.0000  0.0000  0.4118
@------------------------------------------------------------------------------
@  Symmetry of excited state: 2  ( B1 )
@           1     0.291842    -0.8017  0.0000  0.0000   -0.3692  0.0000  0.0000
@           2     0.860561     0.3160  0.0000  0.0000    0.3414  0.0000  0.0000
@           3     1.140975    -0.1137  0.0000  0.0000   -0.0784  0.0000  0.0000
@           4     1.254597    -0.1304  0.0000  0.0000   -0.0285  0.0000  0.0000
@           5     1.427406    -0.0361  0.0000  0.0000   -0.0656  0.0000  0.0000
@           6     1.440349    -0.0173  0.0000  0.0000   -0.0323  0.0000  0.0000
@------------------------------------------------------------------------------
@  Symmetry of excited state: 3  ( B2 )
@           1     0.465229     0.0000 -0.5306  0.0000    0.0000 -0.4820  0.0000
@           2     0.539120     0.0000 -0.9229  0.0000    0.0000 -0.8858  0.0000
@           3     0.920821     0.0000  0.4595  0.0000    0.0000  0.4867  0.0000
@           4     1.136886     0.0000 -0.6201  0.0000    0.0000 -0.6820  0.0000
@           5     1.162266     0.0000  0.0385  0.0000    0.0000  0.0583  0.0000
@------------------------------------------------------------------------------
@  Symmetry of excited state: 4  ( A2 )
@           1     0.366406     0.0000  0.0000  0.0000    0.0000  0.0000  0.0000
@           2     0.793081     0.0000  0.0000  0.0000    0.0000  0.0000  0.0000
@           3     1.228484     0.0000  0.0000  0.0000    0.0000  0.0000  0.0000
@           4     1.412431     0.0000  0.0000  0.0000    0.0000  0.0000  0.0000
@           5     1.500680     0.0000  0.0000  0.0000    0.0000  0.0000  0.0000
@------------------------------------------------------------------------------


@               Magnetic transition dipole moments (au)
                ---------------------------------------

  ( mu_B*<0|l_i|n>, where mu_B = 0.5 is the Bohr magneton)

 Symm.  Mode   Frequency         Conventional                  London
 ex.st.  No.     (eV)        x        y       z         x        y        z
 ==============================================================================
   1      1    10.5815    0.00000  0.00000  0.00000   0.00000  0.00000  0.00000
   1      2    17.6722    0.00000  0.00000  0.00000   0.00000  0.00000  0.00000
   1      3    26.0949    0.00000  0.00000  0.00000   0.00000  0.00000  0.00000
   1      4    29.4789    0.00000  0.00000  0.00000   0.00000  0.00000  0.00000
   1      5    29.7606    0.00000  0.00000  0.00000   0.00000  0.00000  0.00000
 ------------------------------------------------------------------------------
   2      1     7.9414    0.00000  0.09086  0.00000   0.00000  0.00000  0.00000
   2      2    23.4171    0.00000  0.09639  0.00000   0.00000  0.00000  0.00000
   2      3    31.0475    0.00000 -0.03348  0.00000   0.00000  0.00000  0.00000
   2      4    34.1393    0.00000 -0.05555  0.00000   0.00000  0.00000  0.00000
   2      5    38.8417    0.00000  0.00655  0.00000   0.00000  0.00000  0.00000
   2      6    39.1939    0.00000  0.01526  0.00000   0.00000  0.00000  0.00000
 ------------------------------------------------------------------------------
   3      1    12.6595    0.13579  0.00000  0.00000   0.00000  0.00000  0.00000
   3      2    14.6702   -0.06837  0.00000  0.00000   0.00000  0.00000  0.00000
   3      3    25.0568   -0.24940  0.00000  0.00000   0.00000  0.00000  0.00000
   3      4    30.9362   -0.09971  0.00000  0.00000   0.00000  0.00000  0.00000
   3      5    31.6269   -0.04221  0.00000  0.00000   0.00000  0.00000  0.00000
 ------------------------------------------------------------------------------
   4      1     9.9704    0.00000  0.00000 -0.13280   0.00000  0.00000  0.00000
   4      2    21.5808    0.00000  0.00000 -0.13420   0.00000  0.00000  0.00000
   4      3    33.4287    0.00000  0.00000  0.02129   0.00000  0.00000  0.00000
   4      4    38.4342    0.00000  0.00000  0.10096   0.00000  0.00000  0.00000
   4      5    40.8356    0.00000  0.00000  0.02543   0.00000  0.00000  0.00000
 ------------------------------------------------------------------------------


@                  Oscillator and Scalar Rotational Strengths
                   ------------------------------------------

@   Units: 10**(-40) (esu**2)*(cm**2) (rotational strength)
@          dimensionless              (oscillator strength)

@ Symm.  Mode   Frequency    Oscillator-strength      Rotational-strength   
@ ex.st.  No.     (eV)        velocity  length     velocity  length   London
@ ==========================================================================
@  1      1    10.5815        0.2010   0.0937       0.000    0.000    0.000
@  1      2    17.6722        0.1304   0.1163       0.000    0.000    0.000
@  1      3    26.0949        0.0037   0.0007       0.000    0.000    0.000
@  1      4    29.4789        0.1144   0.1237       0.000    0.000    0.000
@  1      5    29.7606        0.1118   0.1236       0.000    0.000    0.000
@ --------------------------------------------------------------------------
@  2      1     7.9414        0.1251   0.0265       0.000    0.000    0.000
@  2      2    23.4171        0.0573   0.0669       0.000    0.000    0.000
@  2      3    31.0475        0.0098   0.0047       0.000    0.000    0.000
@  2      4    34.1393        0.0142   0.0007       0.000    0.000    0.000
@  2      5    38.8417        0.0012   0.0041       0.000    0.000    0.000
@  2      6    39.1939        0.0003   0.0010       0.000    0.000    0.000
@ --------------------------------------------------------------------------
@  3      1    12.6595        0.0873   0.0720       0.000    0.000    0.000
@  3      2    14.6702        0.3061   0.2820       0.000    0.000    0.000
@  3      3    25.0568        0.1296   0.1454       0.000    0.000    0.000
@  3      4    30.9362        0.2915   0.3525       0.000    0.000    0.000
@  3      5    31.6269        0.0012   0.0026       0.000    0.000    0.000
@ --------------------------------------------------------------------------
@  4      1     9.9704        0.0000   0.0000       0.000    0.000    0.000
@  4      2    21.5808        0.0000   0.0000       0.000    0.000    0.000
@  4      3    33.4287        0.0000   0.0000       0.000    0.000    0.000
@  4      4    38.4342        0.0000   0.0000       0.000    0.000    0.000
@  4      5    40.8356        0.0000   0.0000       0.000    0.000    0.000
@ --------------------------------------------------------------------------


   Interatomic separations (in Angstrom):
   --------------------------------------

            O           H   _1      H   _2
            ------      ------      ------
 O     :    0.000000
 H   _1:    0.958391    0.000000
 H   _2:    0.958391    1.515066    0.000000


  Max    interatomic separation is    1.5151 Angstrom (    2.8631 Bohr)
  between atoms    3 and    2, "H   _2" and "H   _1".

  Min HX interatomic separation is    0.9584 Angstrom (    1.8111 Bohr)


  Bond distances (Angstrom):
  --------------------------

                  atom 1     atom 2       distance
                  ------     ------       --------
  bond distance:  H   _1     O            0.958391
  bond distance:  H   _2     O            0.958391


  Bond angles (degrees):
  ----------------------

                  atom 1     atom 2     atom 3         angle
                  ------     ------     ------         -----
  bond angle:     H   _1     O          H   _2       104.450




 CPU time statistics for ABACUS
 ------------------------------

 EXCITA     00:00:12     100 %

 TOTAL      00:00:12     100 %


 >>>> Total CPU  time used in ABACUS:  12.17 seconds
 >>>> Total wall time used in ABACUS:  12.20 seconds


                   .-------------------------------------------.
                   | End of Static Property Section (ABACUS) - |
                   `-------------------------------------------'

 >>>> Total CPU  time used in DALTON:  12.68 seconds
 >>>> Total wall time used in DALTON:  12.72 seconds

 
     Date and time (Linux)  : Sat Jan  3 11:32:13 2015
     Host name              : sunray                                  
