

     ************************************************************************
     *************** Dalton - An Electronic Structure Program ***************
     ************************************************************************

    This is output from DALTON 2016.alpha
   ----------------------------------------------------------------------------
    NOTE:
     
    Dalton is an experimental code for the evaluation of molecular
    properties using (MC)SCF, DFT, CI, and CC wave functions.
    The authors accept no responsibility for the performance of
    the code or for the correctness of the results.
     
    The code (in whole or part) is provided under a licence and
    is not to be reproduced for further distribution without
    the written permission of the authors or their representatives.
     
    See the home page "http://daltonprogram.org" for further information.
     
    If results obtained with this code are published,
    the appropriate citations would be both of:
     
       K. Aidas, C. Angeli, K. L. Bak, V. Bakken, R. Bast,
       L. Boman, O. Christiansen, R. Cimiraglia, S. Coriani,
       J. Cukras, P. Dahle, E. K. Dalskov, U. Ekstroem,
       T. Enevoldsen, J. J. Eriksen, P. Ettenhuber, B. Fernandez,
       L. Ferrighi, H. Fliegl, L. Frediani, K. Hald, A. Halkier,
       C. Haettig, H. Heiberg, T. Helgaker, A. C. Hennum,
       H. Hettema, E. Hjertenaes, S. Hoest, I.-M. Hoeyvik,
       M. F. Iozzi, B. Jansik, H. J. Aa. Jensen, D. Jonsson,
       P. Joergensen, M. Kaminski, J. Kauczor, S. Kirpekar,
       T. Kjaergaard, W. Klopper, S. Knecht, R. Kobayashi, H. Koch,
       J. Kongsted, A. Krapp, K. Kristensen, A. Ligabue,
       O. B. Lutnaes, J. I. Melo, K. V. Mikkelsen, R. H. Myhre,
       C. Neiss, C. B. Nielsen, P. Norman, J. Olsen,
       J. M. H. Olsen, A. Osted, M. J. Packer, F. Pawlowski,
       T. B. Pedersen, P. F. Provasi, S. Reine, Z. Rinkevicius,
       T. A. Ruden, K. Ruud, V. Rybkin, P. Salek, C. C. M. Samson,
       A. Sanchez de Meras, T. Saue, S. P. A. Sauer,
       B. Schimmelpfennig, K. Sneskov, A. H. Steindal,
       K. O. Sylvester-Hvid, P. R. Taylor, A. M. Teale,
       E. I. Tellgren, D. P. Tew, A. J. Thorvaldsen, L. Thoegersen,
       O. Vahtras, M. A. Watson, D. J. D. Wilson, M. Ziolkowski
       and H. Agren,
       "The Dalton quantum chemistry program system",
       WIREs Comput. Mol. Sci. 2013. (doi: 10.1002/wcms.1172)
    
    and
    
       Dalton, a Molecular Electronic Structure Program,
       Release Dalton2016.0 (2015), see http://daltonprogram.org
   ----------------------------------------------------------------------------

    Authors in alphabetical order (major contribution(s) in parenthesis):

  Kestutis Aidas,           Vilnius University,           Lithuania   (QM/MM)
  Celestino Angeli,         University of Ferrara,        Italy       (NEVPT2)
  Keld L. Bak,              UNI-C,                        Denmark     (AOSOPPA, non-adiabatic coupling, magnetic properties)
  Vebjoern Bakken,          University of Oslo,           Norway      (DALTON; geometry optimizer, symmetry detection)
  Radovan Bast,             UiT The Arctic U. of Norway,  Norway      (DALTON installation and execution frameworks)
  Pablo Baudin,             University of Valencia,       Spain       (Cholesky excitation energies)
  Linus Boman,              NTNU,                         Norway      (Cholesky decomposition and subsystems)
  Ove Christiansen,         Aarhus University,            Denmark     (CC module)
  Renzo Cimiraglia,         University of Ferrara,        Italy       (NEVPT2)
  Sonia Coriani,            University of Trieste,        Italy       (CC module, MCD in RESPONS)
  Janusz Cukras,            University of Trieste,        Italy       (MChD in RESPONS)
  Paal Dahle,               University of Oslo,           Norway      (Parallelization)
  Erik K. Dalskov,          UNI-C,                        Denmark     (SOPPA)
  Thomas Enevoldsen,        Univ. of Southern Denmark,    Denmark     (SOPPA)
  Janus J. Eriksen,         Aarhus University,            Denmark     (Polarizable embedding model, TDA)
  Berta Fernandez,          U. of Santiago de Compostela, Spain       (doublet spin, ESR in RESPONS)
  Lara Ferrighi,            Aarhus University,            Denmark     (PCM Cubic response)
  Heike Fliegl,             University of Oslo,           Norway      (CCSD(R12))
  Luca Frediani,            UiT The Arctic U. of Norway,  Norway      (PCM)
  Bin Gao,                  UiT The Arctic U. of Norway,  Norway      (Gen1Int library)
  Christof Haettig,         Ruhr-University Bochum,       Germany     (CC module)
  Kasper Hald,              Aarhus University,            Denmark     (CC module)
  Asger Halkier,            Aarhus University,            Denmark     (CC module)
  Erik D. Hedegaard,        Univ. of Southern Denmark,    Denmark     (Polarizable embedding model, QM/MM)
  Hanne Heiberg,            University of Oslo,           Norway      (geometry analysis, selected one-electron integrals)
  Trygve Helgaker,          University of Oslo,           Norway      (DALTON; ABACUS, ERI, DFT modules, London, and much more)
  Alf Christian Hennum,     University of Oslo,           Norway      (Parity violation)
  Hinne Hettema,            University of Auckland,       New Zealand (quadratic response in RESPONS; SIRIUS supersymmetry)
  Eirik Hjertenaes,         NTNU,                         Norway      (Cholesky decomposition)
  Maria Francesca Iozzi,    University of Oslo,           Norway      (RPA)
  Brano Jansik              Technical Univ. of Ostrava    Czech Rep.  (DFT cubic response)
  Hans Joergen Aa. Jensen,  Univ. of Southern Denmark,    Denmark     (DALTON; SIRIUS, RESPONS, ABACUS modules, London, and much more)
  Dan Jonsson,              UiT The Arctic U. of Norway,  Norway      (cubic response in RESPONS module)
  Poul Joergensen,          Aarhus University,            Denmark     (RESPONS, ABACUS, and CC modules)
  Maciej Kaminski,          University of Warsaw,         Poland      (CPPh in RESPONS)
  Joanna Kauczor,           Linkoeping University,        Sweden      (Complex polarization propagator (CPP) module)
  Sheela Kirpekar,          Univ. of Southern Denmark,    Denmark     (Mass-velocity & Darwin integrals)
  Wim Klopper,              KIT Karlsruhe,                Germany     (R12 code in CC, SIRIUS, and ABACUS modules)
  Stefan Knecht,            ETH Zurich,                   Switzerland (Parallel CI and MCSCF)
  Rika Kobayashi,           Australian National Univ.,    Australia   (DIIS in CC, London in MCSCF)
  Henrik Koch,              NTNU,                         Norway      (CC module, Cholesky decomposition)
  Jacob Kongsted,           Univ. of Southern Denmark,    Denmark     (Polarizable embedding model, QM/MM)
  Andrea Ligabue,           University of Modena,         Italy       (CTOCD, AOSOPPA)
  Nanna H. List             Univ. of Southern Denmark,    Denmark     (Polarizable embedding model)
  Ola B. Lutnaes,           University of Oslo,           Norway      (DFT Hessian)
  Juan I. Melo,             University of Buenos Aires,   Argentina   (LRESC, Relativistic Effects on NMR Shieldings)
  Kurt V. Mikkelsen,        University of Copenhagen,     Denmark     (MC-SCRF and QM/MM)
  Rolf H. Myhre,            NTNU,                         Norway      (Cholesky, subsystems and ECC2)
  Christian Neiss,          Univ. Erlangen-Nuernberg,     Germany     (CCSD(R12))
  Christian B. Nielsen,     University of Copenhagen,     Denmark     (QM/MM)
  Patrick Norman,           Linkoeping University,        Sweden      (Cubic response and complex response in RESPONS)
  Jeppe Olsen,              Aarhus University,            Denmark     (SIRIUS CI/density modules)
  Jogvan Magnus H. Olsen,   Univ. of Southern Denmark,    Denmark     (Polarizable embedding model, QM/MM)
  Anders Osted,             Copenhagen University,        Denmark     (QM/MM)
  Martin J. Packer,         University of Sheffield,      UK          (SOPPA)
  Filip Pawlowski,          Kazimierz Wielki University,  Poland      (CC3)
  Morten N. Pedersen,       Univ. of Southern Denmark,    Denmark     (Polarizable embedding model)
  Thomas B. Pedersen,       University of Oslo,           Norway      (Cholesky decomposition)
  Patricio F. Provasi,      University of Northeastern,   Argentina   (Analysis of coupling constants in localized orbitals)
  Zilvinas Rinkevicius,     KTH Stockholm,                Sweden      (open-shell DFT, ESR)
  Elias Rudberg,            KTH Stockholm,                Sweden      (DFT grid and basis info)
  Torgeir A. Ruden,         University of Oslo,           Norway      (Numerical derivatives in ABACUS)
  Kenneth Ruud,             UiT The Arctic U. of Norway,  Norway      (DALTON; ABACUS magnetic properties and much more)
  Pawel Salek,              KTH Stockholm,                Sweden      (DALTON; DFT code)
  Claire C. M. Samson       University of Karlsruhe       Germany     (Boys localization, r12 integrals in ERI)
  Alfredo Sanchez de Meras, University of Valencia,       Spain       (CC module, Cholesky decomposition)
  Trond Saue,               Paul Sabatier University,     France      (direct Fock matrix construction)
  Stephan P. A. Sauer,      University of Copenhagen,     Denmark     (SOPPA(CCSD), SOPPA prop., AOSOPPA, vibrational g-factors)
  Bernd Schimmelpfennig,    Forschungszentrum Karlsruhe,  Germany     (AMFI module)
  Kristian Sneskov,         Aarhus University,            Denmark     (Polarizable embedding model, QM/MM)
  Arnfinn H. Steindal,      UiT The Arctic U. of Norway,  Norway      (parallel QM/MM, Polarizable embedding model)
  Casper Steinmann,         Univ. of Southern Denmark,    Denmark     (QFIT, Polarizable embedding model)
  K. O. Sylvester-Hvid,     University of Copenhagen,     Denmark     (MC-SCRF)
  Peter R. Taylor,          VLSCI/Univ. of Melbourne,     Australia   (Symmetry handling ABACUS, integral transformation)
  Andrew M. Teale,          University of Nottingham,     England     (DFT-AC, DFT-D)
  David P. Tew,             University of Bristol,        England     (CCSD(R12))
  Olav Vahtras,             KTH Stockholm,                Sweden      (triplet response, spin-orbit, ESR, TDDFT, open-shell DFT)
  David J. Wilson,          La Trobe University,          Australia   (DFT Hessian and DFT magnetizabilities)
  Hans Agren,               KTH Stockholm,                Sweden      (SIRIUS module, RESPONS, MC-SCRF solvation model)
 --------------------------------------------------------------------------------

     Date and time (Linux)  : Fri Aug 12 11:36:13 2016
     Host name              : spasnode101                             

 * Work memory size             :   128000000 =  976.56 megabytes.

 * Directories for basis set searches:
   1) /home/zth702/source/dalton/DALTON/test/prop_exci_aosopcc_direct
   2) /home/zth702/source/dalton/build/basis


Compilation information
-----------------------

 Who compiled             | zth702
 Host                     | sunray
 System                   | Linux-3.16.0-4-amd64
 CMake generator          | Unix Makefiles
 Processor                | x86_64
 64-bit integers          | OFF
 MPI                      | OFF
 Fortran compiler         | /usr/bin/gfortran
 Fortran compiler version | GNU Fortran (Debian 4.9.2-10) 4.9.2
 C compiler               | /usr/bin/gcc
 C compiler version       | gcc (Debian 4.9.2-10) 4.9.2
 C++ compiler             | /usr/bin/g++
 C++ compiler version     | g++ (Debian 4.9.2-10) 4.9.2
 BLAS                     | /usr/lib/atlas-base/libf77blas.so;/usr/lib/atlas-b
                          | ase/libcblas.so;/usr/lib/atlas-base/libatlas.so
 LAPACK                   | /usr/lib/atlas-base/libatlas.so;/usr/lib/atlas-bas
                          | e/atlas/liblapack.so
 Static linking           | OFF
 Last Git revision        | 6e949b3723a9e5eda84edd2707d61fb1ab9b7722
 Git branch               | aosoppa_devel
 Configuration time       | 2016-08-12 11:30:28.559945


   Content of the .dal input file
 ----------------------------------

**DALTON INPUT                                    
.RUN PROPERTIES                                   
.DIRECT                                           
**WAVE FUNCTIONS                                  
.HF                                               
.CC                                               
*CC INPUT                                         
.MP2                                              
.CCSD                                             
.AO-SOPPA                                         
**PROPERTIES                                      
.SOPPA                                            
.EXCITA                                           
.PRINT                                            
 2                                                
*SOPPA                                            
.AOSOP                                            
.AOSOC                                            
.NSAVMX                                           
 4                                                
.NEXCI2                                           
   0    1    0    0    0    0    0    0           
*EXCITA                                           
.DIPSTR                                           
.ROTVEL                                           
.NEXCITA                                          
    5    6    5    5    0    0    0    0          
**END OF DALTON INPUT                             


   Content of the .mol file
 ----------------------------

BASIS                                                                          
cc-pVDZ                                                                        
      Calculation of excitation energies through ABACUS                        
                                                                               
   2    2  X  Y      0.10D-14                                                  
      8.00    1                                                                
O   0.00000             0.00000              0.1241444240                      
      1.00    1                                                                
H   0.00000             1.43153              -0.985265576                      


       *******************************************************************
       *********** Output from DALTON general input processing ***********
       *******************************************************************

 --------------------------------------------------------------------------------
   Overall default print level:    0
   Print level for DALTON.STAT:    1

    AO-direct calculation (in sections where implemented)
    HERMIT 1- and 2-electron integral sections will be executed
    "Old" integral transformation used (limited to max 255 basis functions)
    Wave function sections will be executed (SIRIUS module)
    Static molecular property section will be executed (ABACUS module)
 --------------------------------------------------------------------------------


   ****************************************************************************
   *************** Output of molecule and basis set information ***************
   ****************************************************************************


    The two title cards from your ".mol" input:
    ------------------------------------------------------------------------
 1:       Calculation of excitation energies through ABACUS                 
 2:                                                                         
    ------------------------------------------------------------------------



@ WARNING - deprecated old .mol fixed format input has been detected:
   2    2  X  Y      0.10D-14                                                   
@ WARNING - this input format may not be supported in future releases.




  Atomic type no.    1
  --------------------
  Nuclear charge:   8.00000
  Number of symmetry independent centers:    1
  Number of basis sets to read;    2
  Basis set file used for this atomic type with Z =   8 :
     "/home/zth702/source/dalton/build/basis/cc-pVDZ"

  Atomic type no.    2
  --------------------
  Nuclear charge:   1.00000
  Number of symmetry independent centers:    1
  Number of basis sets to read;    2
  Basis set file used for this atomic type with Z =   1 :
     "/home/zth702/source/dalton/build/basis/cc-pVDZ"


                         SYMGRP: Point group information
                         -------------------------------

@    Point group: C2v

@  * The irrep name for each symmetry:    1: A1     2: B1     3: B2     4: A2 

   * The point group was generated by:

      Reflection in the yz-plane
      Reflection in the xz-plane

   * Group multiplication table

        |  E   C2z  Oxz  Oyz
   -----+--------------------
     E  |  E   C2z  Oxz  Oyz
    C2z | C2z   E   Oyz  Oxz
    Oxz | Oxz  Oyz   E   C2z
    Oyz | Oyz  Oxz  C2z   E 

   * Character table

        |  E   C2z  Oxz  Oyz
   -----+--------------------
    A1  |   1    1    1    1
    B1  |   1   -1    1   -1
    B2  |   1   -1   -1    1
    A2  |   1    1   -1   -1

   * Direct product table

        | A1   B1   B2   A2 
   -----+--------------------
    A1  | A1   B1   B2   A2 
    B1  | B1   A1   A2   B2 
    B2  | B2   A2   A1   B1 
    A2  | A2   B2   B1   A1 


                                 Isotopic Masses
                                 ---------------

                           O          15.994915
                           H   _1      1.007825
                           H   _2      1.007825

                       Total mass:    18.010565 amu
                       Natural abundance:  99.730 %

 Center-of-mass coordinates (a.u.):    0.000000    0.000000   -0.000015


  Atoms and basis sets
  --------------------

  Number of atom types :    2
  Total number of atoms:    3

  Basis set used is "cc-pVDZ" from the basis set library.

  label    atoms   charge   prim   cont     basis
  ----------------------------------------------------------------------
  O           1    8.0000    26    14      [9s4p1d|3s2p1d]                                    
  H           2    1.0000     7     5      [4s1p|2s1p]                                        
  ----------------------------------------------------------------------
  total:      3   10.0000    40    24
  ----------------------------------------------------------------------
  Spherical harmonic basis used.

  Threshold for neglecting AO integrals:  1.00D-15


  Cartesian Coordinates (a.u.)
  ----------------------------

  Total number of coordinates:    9
  O       :     1  x   0.0000000000    2  y   0.0000000000    3  z   0.1241444240
  H   / 1 :     4  x   0.0000000000    5  y   1.4315300000    6  z  -0.9852655760
  H   / 2 :     7  x   0.0000000000    8  y  -1.4315300000    9  z  -0.9852655760


  Symmetry Coordinates
  --------------------

  Number of coordinates in each symmetry:     3    2    3    1

  Symmetry  A1  ( 1)

    1   O     z    3
    2   H     y    [  5  -    8 ]/2
    3   H     z    [  6  +    9 ]/2

  Symmetry  B1  ( 2)

    4   O     x    1
    5   H     x    [  4  +    7 ]/2

  Symmetry  B2  ( 3)

    6   O     y    2
    7   H     y    [  5  +    8 ]/2
    8   H     z    [  6  -    9 ]/2

  Symmetry  A2  ( 4)

    9   H     x    [  4  -    7 ]/2


   Interatomic separations (in Angstrom):
   --------------------------------------

            O           H   _1      H   _2
            ------      ------      ------
 O     :    0.000000
 H   _1:    0.958391    0.000000
 H   _2:    0.958391    1.515066    0.000000


  Max    interatomic separation is    1.5151 Angstrom (    2.8631 Bohr)
  between atoms    3 and    2, "H   _2" and "H   _1".

  Min HX interatomic separation is    0.9584 Angstrom (    1.8111 Bohr)


  Bond distances (Angstrom):
  --------------------------

                  atom 1     atom 2       distance
                  ------     ------       --------
  bond distance:  H   _1     O            0.958391
  bond distance:  H   _2     O            0.958391


  Bond angles (degrees):
  ----------------------

                  atom 1     atom 2     atom 3         angle
                  ------     ------     ------         -----
  bond angle:     H   _1     O          H   _2       104.450




 Principal moments of inertia (u*A**2) and principal axes
 --------------------------------------------------------

   IA       0.616959          0.000000    1.000000    0.000000
   IB       1.156694          0.000000    0.000000    1.000000
   IC       1.773652          1.000000    0.000000    0.000000


 Rotational constants
 --------------------

@    The molecule is planar.

               A                   B                   C

         819145.5126         436916.9575         284936.9149 MHz
           27.323753           14.573981            9.504472 cm-1


@  Nuclear repulsion energy :    9.183706230245 Hartree


  Symmetry Orbitals
  -----------------

  Number of orbitals in each symmetry:          11    4    7    2


  Symmetry  A1 ( 1)

    1     O        1s         1
    2     O        1s         2
    3     O        1s         3
    4     O        2pz        6
    5     O        2pz        9
    6     O        3d0       12
    7     O        3d2+      14
    8     H        1s        15 +   16
    9     H        1s        17 +   18
   10     H        2py       21 -   22
   11     H        2pz       23 +   24


  Symmetry  B1 ( 2)

   12     O        2px        4
   13     O        2px        7
   14     O        3d1+      13
   15     H        2px       19 +   20


  Symmetry  B2 ( 3)

   16     O        2py        5
   17     O        2py        8
   18     O        3d1-      11
   19     H        1s        15 -   16
   20     H        1s        17 -   18
   21     H        2py       21 +   22
   22     H        2pz       23 -   24


  Symmetry  A2 ( 4)

   23     O        3d2-      10
   24     H        2px       19 -   20

  Symmetries of electric field:  B1 (2)  B2 (3)  A1 (1)

  Symmetries of magnetic field:  B2 (3)  B1 (2)  A2 (4)


                     .---------------------------------------.
                     | Starting in Integral Section (HERMIT) |
                     `---------------------------------------'



 ***************************************************************************************
 ****************** Output from **INTEGRALS input processing (HERMIT) ******************
 ***************************************************************************************


 - Using defaults, no **INTEGRALS input found

 Default print level:        1

 * Nuclear model: Point charge

 Calculation of one-electron Hamiltonian integrals.

 Center of mass  (bohr):      0.000000000000      0.000000000000     -0.000015049426
 Operator center (bohr):      0.000000000000      0.000000000000      0.000000000000
 Gauge origin    (bohr):      0.000000000000      0.000000000000      0.000000000000
 Dipole origin   (bohr):      0.000000000000      0.000000000000      0.000000000000


     ************************************************************************
     ************************** Output from HERINT **************************
     ************************************************************************

  Total CPU  time used in HERMIT:   0.02 seconds
  Total wall time used in HERMIT:   0.02 seconds


                        .----------------------------------.
                        | End of Integral Section (HERMIT) |
                        `----------------------------------'



                   .--------------------------------------------.
                   | Starting in Wave Function Section (SIRIUS) |
                   `--------------------------------------------'


 *** Output from Huckel module :

     Using EWMO model:          F
     Using EHT  model:          T
     Number of Huckel orbitals each symmetry:    4    1    2    0

 Huckel EHT eigenvalues for symmetry :  1
          -20.705520      -1.505990      -0.670643      -0.292535

 Huckel EHT eigenvalues for symmetry :  2
           -0.616200

 Huckel EHT eigenvalues for symmetry :  3
           -0.731199      -0.257813

 **********************************************************************
 *SIRIUS* a direct, restricted step, second order MCSCF program       *
 **********************************************************************

 
     Date and time (Linux)  : Fri Aug 12 11:36:13 2016
     Host name              : spasnode101                             

 Title lines from ".mol" input file:
           Calculation of excitation energies through ABACUS                 
                                                                             

 Print level on unit LUPRI =   2 is   0
 Print level on unit LUW4  =   2 is   5

@    (Integral direct) CC calculation.

@    This is a combination run starting with
@              a restricted, closed shell Hartree-Fock calculation

 Fock matrices are calculated directly without use of integrals on disk.

 Initial molecular orbitals are obtained according to
 ".MOSTART EHT   " input option

     Wave function specification
     ============================

     For the specification of the Coupled Cluster: see later.

@    Wave function type        --- CC ---
@    Number of closed shell electrons          10
@    Number of electrons in active shells       0
@    Total charge of the molecule               0

@    Spin multiplicity and 2 M_S                1         0
@    Total number of symmetries                 4 (point group: C2v)
@    Reference state symmetry                   1 (irrep name : A1 )

     Orbital specifications
     ======================
@    Abelian symmetry species          All |    1    2    3    4
@                                          |  A1   B1   B2   A2 
                                       --- |  ---  ---  ---  ---
@    Total number of orbitals           24 |   11    4    7    2
@    Number of basis functions          24 |   11    4    7    2

      ** Automatic occupation of RHF orbitals **

      -- Initial occupation of symmetries is determined from extended Huckel guess.           
      -- Initial occupation of symmetries is :
@    Occupied SCF orbitals               5 |    3    1    1    0

     Maximum number of Fock   iterations      0
     Maximum number of DIIS   iterations     60
     Maximum number of QC-SCF iterations     60
     Threshold for SCF convergence     1.00D-06


 Changes of defaults for CC:
 ---------------------------


 -This is a direct atomic orbital integral based
  calculation for coupled cluster wave function

 MP2 Amplitudes written for atom integral direct SOPPA calculations
  


 ***********************************************
 ***** DIIS acceleration of SCF iterations *****
 ***********************************************

 C1-DIIS algorithm; max error vectors =    8

 Automatic occupation of symmetries with  10 electrons.

 Iter     Total energy    Error norm  Delta(E)    SCF occupation
 -----------------------------------------------------------------------------
   1  Screening settings (-IFTHRS, JTDIIS, DIFDEN, times)   -6    1    T  2.80D-02  2.60D-02
@  1  -75.8016297608       2.30D+00  -7.58D+01     3   1   1   0
      Virial theorem: -V/T =      1.999463
@      MULPOP O      -0.43; H   _1  0.22; H   _2  0.22; 
   1  Level shift: doubly occupied orbital energies shifted by -2.00D-01
 -----------------------------------------------------------------------------
   2  Screening settings (-IFTHRS, JTDIIS, DIFDEN, times)   -6    2    T  2.00D-02  2.30D-02
@  2  -76.0137459055       3.94D-01  -2.12D-01     3   1   1   0
      Virial theorem: -V/T =      2.000477
@      MULPOP O      -0.27; H   _1  0.13; H   _2  0.13; 
   2  Level shift: doubly occupied orbital energies shifted by -5.00D-02
 -----------------------------------------------------------------------------
   3  Screening settings (-IFTHRS, JTDIIS, DIFDEN, times)   -6    3    T  2.00D-02  2.00D-02
@  3  -76.0257589727       1.03D-01  -1.20D-02     3   1   1   0
      Virial theorem: -V/T =      2.001561
@      MULPOP O      -0.28; H   _1  0.14; H   _2  0.14; 
   3  Level shift: doubly occupied orbital energies shifted by -2.50D-02
 -----------------------------------------------------------------------------
   4  Screening settings (-IFTHRS, JTDIIS, DIFDEN, times)   -8    4    F  2.00D-02  1.90D-02
@  4  -76.0266803114       3.27D-02  -9.21D-04     3   1   1   0
      Virial theorem: -V/T =      2.000010
@      MULPOP O      -0.31; H   _1  0.15; H   _2  0.15; 
   4  Level shift: doubly occupied orbital energies shifted by -1.25D-02
 -----------------------------------------------------------------------------
   5  Screening settings (-IFTHRS, JTDIIS, DIFDEN, times)   -8    5    T  1.60D-02  1.80D-02
@  5  -76.0267390444       6.61D-03  -5.87D-05     3   1   1   0
      Virial theorem: -V/T =      2.000644
@      MULPOP O      -0.30; H   _1  0.15; H   _2  0.15; 
 -----------------------------------------------------------------------------
   6  Screening settings (-IFTHRS, JTDIIS, DIFDEN, times)  -11    6    F  1.60D-02  1.70D-02
@  6  -76.0267418020       9.18D-04  -2.76D-06     3   1   1   0
      Virial theorem: -V/T =      2.000545
@      MULPOP O      -0.31; H   _1  0.15; H   _2  0.15; 
 -----------------------------------------------------------------------------
   7  Screening settings (-IFTHRS, JTDIIS, DIFDEN, times)  -11    7    T  1.60D-02  1.60D-02
@  7  -76.0267418950       1.63D-04  -9.30D-08     3   1   1   0
      Virial theorem: -V/T =      2.000556
@      MULPOP O      -0.31; H   _1  0.15; H   _2  0.15; 
 -----------------------------------------------------------------------------
   8  Screening settings (-IFTHRS, JTDIIS, DIFDEN, times)  -11    8    T  1.60D-02  1.60D-02
@  8  -76.0267418986       1.96D-05  -3.65D-09     3   1   1   0
      Virial theorem: -V/T =      2.000557
@      MULPOP O      -0.31; H   _1  0.15; H   _2  0.15; 
 -----------------------------------------------------------------------------
   9  Screening settings (-IFTHRS, JTDIIS, DIFDEN, times)  -11    9    T  1.60D-02  1.60D-02
@  9  -76.0267418987       3.86D-06  -5.24D-11     3   1   1   0
      Virial theorem: -V/T =      2.000557
@      MULPOP O      -0.31; H   _1  0.15; H   _2  0.15; 
 -----------------------------------------------------------------------------
  10  Screening settings (-IFTHRS, JTDIIS, DIFDEN, times)  -11   10    T  1.60D-02  1.60D-02
@ 10  -76.0267418987       9.39D-07  -2.47D-12     3   1   1   0

@ *** DIIS converged in  10 iterations !
@     Converged SCF energy, gradient:    -76.026741898677    9.39D-07
    - total time used in SIRFCK :              0.00 seconds


 *** SCF orbital energy analysis ***

 Number of electrons :   10
 Orbital occupations :    3    1    1    0

 Sym       Hartree-Fock orbital energies

1 A1    -20.55066307    -1.33615943    -0.56649080     0.18536448     0.85354106
          1.16363571     1.44420046     1.86740399     2.48765402     3.50932872
          3.86416926

2 B1     -0.49308727     1.20035801     1.67410855     3.28499305

3 B2     -0.69856497     0.25609266     0.78828015     1.25343486     1.93402423
          2.45003957     4.14658105

4 A2      1.47617069     3.33756146

    E(LUMO) :     0.18536448 au (symmetry 1)
  - E(HOMO) :    -0.49308727 au (symmetry 2)
  ------------------------------------------
    gap     :     0.67845175 au

 --- Writing SIRIFC interface file

 CPU and wall time for SCF :       0.192       0.192


                       .-----------------------------------.
                       | --- Final results from SIRIUS --- |
                       `-----------------------------------'


@    Spin multiplicity:           1
@    Spatial symmetry:            1 ( irrep  A1  in C2v )
@    Total charge of molecule:    0

@    Final HF energy:             -76.026741898677                 
@    Nuclear repulsion:             9.183706230245
@    Electronic energy:           -85.210448128922

@    Final gradient norm:           0.000000939133

 
     Date and time (Linux)  : Fri Aug 12 11:36:13 2016
     Host name              : spasnode101                             

File label for MO orbitals:  12Aug16   FOCKDIIS

 (Only coefficients >0.0100 are printed.)

 Molecular orbitals for symmetry species 1  (A1 )
 ------------------------------------------------

    Orbital         1        2        3        4        5        6        7
   1 O   :1s     1.0004  -0.0082  -0.0022   0.0520  -0.0654  -0.0033   0.2014
   2 O   :1s     0.0023   0.8706   0.2955  -0.1427  -0.5036  -0.2262   1.0381
   3 O   :1s    -0.0014  -0.1222   0.1803  -0.9197   0.6089  -0.6164  -1.0968
   4 O   :2pz   -0.0026  -0.1146   0.7945   0.2782   0.4803  -1.0993   0.1941
   5 O   :2pz    0.0017   0.0657  -0.0006   0.2094  -0.2307   1.7840  -0.8307
   6 O   :3d0    0.0000   0.0012  -0.0179  -0.0075   0.0010  -0.0129  -0.1175
   7 O   :3d2+  -0.0001  -0.0030   0.0046   0.0099  -0.1069  -0.0068  -0.0050
   8 H   :1s    -0.0004   0.3287  -0.3514   0.1006   1.3411   0.9284  -0.5689
   9 H   :1s     0.0006  -0.1547   0.1356   0.7784  -1.2207  -0.3526   0.4939
  10 H   :2py    0.0006  -0.0372   0.0318  -0.0175   0.2953  -0.0837   0.3307
  11 H   :2pz   -0.0005   0.0205   0.0075   0.0163  -0.0594   0.2516   0.5445

    Orbital         8        9       10       11
   1 O   :1s    -0.7246   0.2760  -0.0840   0.1444
   2 O   :1s    -3.1334   1.4248  -0.3028   0.3523
   3 O   :1s     4.8256  -0.0206   0.7282  -2.4678
   4 O   :2pz   -0.1578  -0.9748  -0.0264   0.5877
   5 O   :2pz   -0.8951   0.2685  -0.5240   0.6516
   6 O   :3d0   -0.1141  -0.0529   1.0839  -0.1375
   7 O   :3d2+   0.1082   0.2169   0.1777   1.1590
   8 H   :1s    -1.4078  -0.8131  -0.5181   2.1027
   9 H   :1s     0.3179   0.2483   0.2222  -0.8622
  10 H   :2py    0.3725   0.7441   0.3515  -0.6203
  11 H   :2pz    0.0224  -0.5373   0.3151   0.4925

 Molecular orbitals for symmetry species 2  (B1 )
 ------------------------------------------------

    Orbital         1        2        3        4
   1 O   :2px    0.9197  -1.4102   0.0265   0.0174
   2 O   :2px    0.0721   1.6737   0.6221  -0.3191
   3 O   :3d1+  -0.0182   0.0034   0.1609   1.0426
   4 H   :2px    0.0310   0.0092  -0.7668   0.3977

 Molecular orbitals for symmetry species 3  (B2 )
 ------------------------------------------------

    Orbital         1        2        3        4        5        6        7
   1 O   :2py    0.7137  -0.4131  -0.3906  -1.0705  -0.0151  -1.2207   0.6801
   2 O   :2py   -0.1064  -0.4807  -0.2794   2.2559   0.9074   0.4102   0.8296
   3 O   :3d1-  -0.0268   0.0212  -0.1116  -0.0443   0.0293  -0.1380  -1.3252
   4 H   :1s     0.5577   0.0447   1.6068  -0.6442  -0.6586   0.4995  -1.8435
   5 H   :1s    -0.1895   1.4202  -1.4934  -0.5010   0.2387   0.0798   0.6358
   6 H   :2py   -0.0233  -0.0208   0.0737   0.3026  -0.4711  -0.7241   0.6051
   7 H   :2pz    0.0327   0.0171  -0.1525  -0.1865  -0.6933   0.5543  -0.4938

 Molecular orbitals for symmetry species 4  (A2 )
 ------------------------------------------------

    Orbital         1        2
   1 O   :3d2-  -0.1314   1.0658
   2 H   :2px   -0.6856  -0.3708

  Total CPU  time used in SIRIUS : 264 hours  0 minutes  0 seconds
  Total wall time used in SIRIUS :   0.00 seconds

 
     Date and time (Linux)  : Fri Aug 12 11:36:13 2016
     Host name              : spasnode101                             

 NOTE:    1 warnings have been issued.
 Check output, result, and error files for "WARNING".


                     .---------------------------------------.
                     | End of Wave Function Section (SIRIUS) |
                     `---------------------------------------'



                    .------------------------------------------.
                    | Starting in Coupled Cluster Section (CC) |
                    `------------------------------------------'

  

 *******************************************************************************
 *******************************************************************************
 *                                                                             *
 *                                                                             *
 *                    START OF COUPLED CLUSTER CALCULATION                     *
 *                                                                             *
 *                                                                             *
 *******************************************************************************
 *******************************************************************************



 CCR12 ANSATZ =   0

 CCR12 APPROX =   0

   

 *******************************************************************
 *                                                                 *
 *----------                                             >---------*
 *---------- OUTPUT FROM COUPLED CLUSTER ENERGY PROGRAM  >---------*
 *----------                                             >---------*
 *                                                                 *
 *******************************************************************


             The Direct Coupled Cluster Energy Program
             -----------------------------------------


          Number of t1 amplitudes                 :        33
          Number of t2 amplitudes                 :      1277
          Total number of amplitudes in ccsd      :      1310

 Iter.  1: Coupled cluster MP2   energy :     -76.2307908183841647





             +-------------------------------------------------------+
             ! Final results from the Coupled Cluster energy program !
             +-------------------------------------------------------+



            Total SCF   energy:                   -76.0267418987

            Total MP2   energy:                   -76.2307908184



 CCR12 ANSATZ =   0

 CCR12 APPROX =   0

   

 *******************************************************************
 *                                                                 *
 *----------                                             >---------*
 *---------- OUTPUT FROM COUPLED CLUSTER ENERGY PROGRAM  >---------*
 *----------                                             >---------*
 *                                                                 *
 *******************************************************************


             The Direct Coupled Cluster Energy Program
             -----------------------------------------


          Number of t1 amplitudes                 :        33
          Number of t2 amplitudes                 :      1277
          Total number of amplitudes in ccsd      :      1310

 Iter.  1: Coupled cluster RSTAR energy :     -76.2307908183841647
 Iter.  1: Coupled cluster CCSD  energy :     -76.2357343907810048
 Iter.  2: Coupled cluster CCSD  energy :     -76.2396381926246676
 Iter.  3: Coupled cluster CCSD  energy :     -76.2401004139183556
 Iter.  4: Coupled cluster CCSD  energy :     -76.2401069495035699
 Iter.  5: Coupled cluster CCSD  energy :     -76.2401173117319075
 Iter.  6: Coupled cluster CCSD  energy :     -76.2401155898388794
 Iter.  7: Coupled cluster CCSD  energy :     -76.2401149512275254
 Iter.  8: Coupled cluster CCSD  energy :     -76.2401148246299130
 Iter.  9: Coupled cluster CCSD  energy :     -76.2401147965042298
 Iter. 10: Coupled cluster CCSD  energy :     -76.2401147846883021
 Iter. 11: Coupled cluster CCSD  energy :     -76.2401147815711511

 CCSD  energy converged to within   0.10D-07 is          -76.240114781571
 Final 2-norm of the CC vector function:  1.01218120D-07





             +-------------------------------------------------------+
             ! Final results from the Coupled Cluster energy program !
             +-------------------------------------------------------+



            Total SCF   energy:                   -76.0267418987

            Total RSTAR energy:                   -76.2307908184

            Total CCSD  energy:                   -76.2401147816
  

 *******************************************************************************
 *******************************************************************************
 *                                                                             *
 *                                                                             *
 *                   SUMMARY OF COUPLED CLUSTER CALCULATION                    *
 *                                                                             *
 *                                                                             *
 *******************************************************************************
 *******************************************************************************

                                                                                
                                                                                
            Total SCF   energy:                   -76.0267418987                
            Total MP2   energy:                   -76.2307908184                
                                                                                
                                                                                
            Total SCF   energy:                   -76.0267418987                
            Total RSTAR energy:                   -76.2307908184                
            Total CCSD  energy:                   -76.2401147816                
  

 *******************************************************************************
 *******************************************************************************
 *                                                                             *
 *                                                                             *
 *                      END OF COUPLED CLUSTER CALCULATION                     *
 *                                                                             *
 *                                                                             *
 *******************************************************************************
 *******************************************************************************


 CPU and wall time for CC :       1.032       1.029

 
     Date and time (Linux)  : Fri Aug 12 11:36:14 2016
     Host name              : spasnode101                             


                      .-------------------------------------.
                      | End of Coupled Cluster Section (CC) |
                      `-------------------------------------'



        *****************************************************************
        ******** Output from **PROPE input processing for ABACUS ********
        *****************************************************************



      AO integral driven SOPPA  :
         (Ref.: K. L. Bak, H. Koch, J. Oddershede, O. Christiansen and S. P. A. Sauer
          J. Chem. Phys. 112, 4173-4185 (2000))


 The following molecular properties will be calculated in this run:
 ------------------------------------------------------------------

 Default print level:        2

      Electronic excitation energies 
      Direct calculation - no two-electron integrals written or read.
      No mass-velocity energy correction calculated
      No Darwin energy correction calculated
      Natural orbital connection is used
      for perturbation dependent basis sets.


 Changes of defaults in SOPPA:
 -----------------------------

 AO integral driven SOPPA :
    (Ref.: K. L. Bak, H. Koch, J. Oddershede, O. Christiansen and S. P. A. Sauer
     J. Chem. Phys. 112, 4173-4185 (2000))
 AO integral driven SOPPA(CCSD)
    (Ref.: H. H. Falden, K. R. Falster-Hansen, K. L. Bak, S. Rettrup and S. P. A. Sauer,
     J. Phys. Chem. A 113, 11995-12012 (2009))
 The maximum number of trial vectors for each excitation is changed to :   4
 The last :     0    1    0    0    0    0    0    0 excitation energies
    are only converged to :  1.00E-02


 Changes of defaults for .EXCITA:
 --------------------------------

 Number of excitation energies:    5    6    5    5
 Print level          :    2
 Integral print level :    2
 Convergence threshold: 1.00E-04
 Maximum iterations   :   60
 Conventional rotational strength
 Dipole strength


                                 Isotopic Masses
                                 ---------------

                           O          15.994915
                           H   _1      1.007825
                           H   _2      1.007825

                       Total mass:    18.010565 amu
                       Natural abundance:  99.730 %

 Center-of-mass coordinates (a.u.):    0.000000    0.000000   -0.000015

 Center of mass dipole origin  :    0.000000    0.000000   -0.000015

 Center of mass gauge origin   :    0.000000    0.000000   -0.000015


                 .------------------------------------------------.
                 | Starting in Static Property Section (ABACUS) - |
                 `------------------------------------------------'


 
     Date and time (Linux)  : Fri Aug 12 11:36:14 2016
     Host name              : spasnode101                             


                            **************************
                            *** Output from TROINV ***
                            **************************



  Translational and rotational coordinates
  ----------------------------------------


  Symmetry  1

        Translation along Z axis

  Symmetry  2

        Translation along X axis
        Rotation around Y axis

  Symmetry  3

        Translation along Y axis
        Rotation around X axis

  Symmetry  4

        Rotation around Z axis


                  **********************************************
                  *** ABACUS - Excitation energies (.EXCITA) ***
                  **********************************************


 Maximum number of trial vectors for each excitation is  4


 -----------------------------------
 SOPPA:
 Perturbation symmetry     :       1
 p-h variables             :      66
 2p-2h variables           :    2554
 Total number of variables :    2620
 -----------------------------------

  ******************************************************************
                 SOPPA  iterations, Excitation symmetry 1
  ******************************************************************

  ==================================================================
             1. SOPPA  iteration, Excitation symmetry 1
  ==================================================================

            --------------------------------------------------
            Excitation   Energy (au)     Residual    Converged
            --------------------------------------------------
                 1       0.50629503     6.6163D-01       no
                 2       0.76859606     6.1603D-01       no
                 3       1.10766370     7.4527D-01       no
                 4       1.35690455     3.4132D-02       no
                 5       1.49867195     1.3287D-02       no
            --------------------------------------------------

  ==================================================================
             2. SOPPA  iteration, Excitation symmetry 1
  ==================================================================

            --------------------------------------------------
            Excitation   Energy (au)     Residual    Converged
            --------------------------------------------------
                 1       0.38750495     6.1890D-02       no
                 2       0.65091298     1.0051D-01       no
                 3       0.96118592     1.1279D-01       no
                 4       1.23991409     7.1125D-01       no
                 5       1.36488643     1.8686D-01       no
            --------------------------------------------------

  ==================================================================
             3. SOPPA  iteration, Excitation symmetry 1
  ==================================================================

            --------------------------------------------------
            Excitation   Energy (au)     Residual    Converged
            --------------------------------------------------
                 1       0.38655183     7.8440D-03       no
                 2       0.64750126     2.8964D-02       no
                 3       0.95699562     3.4103D-02       no
                 4       1.09056394     7.6873D-02       no
                 5       1.25579678     4.3052D-01       no
            --------------------------------------------------

  ==================================================================
             4. SOPPA  iteration, Excitation symmetry 1
  ==================================================================

            --------------------------------------------------
            Excitation   Energy (au)     Residual    Converged
            --------------------------------------------------
                 1       0.38653401     1.4237D-03       no
                 2       0.64719876     6.5655D-03       no
                 3       0.95652623     1.1264D-02       no
                 4       1.08762104     3.8544D-02       no
                 5       1.15523738     3.8754D-01       no
            --------------------------------------------------

  ==================================================================
             5. SOPPA  iteration, Excitation symmetry 1
  ==================================================================

            --------------------------------------------------
            Excitation   Energy (au)     Residual    Converged
            --------------------------------------------------
                 1       0.38653357     1.6047D-04       no
                 2       0.64718663     1.2753D-03       no
                 3       0.95647280     3.4965D-03       no
                 4       1.08405456     8.3438D-02       no
                 5       1.09420287     1.0833D-01       no
            --------------------------------------------------

  ==================================================================
             6. SOPPA  iteration, Excitation symmetry 1
  ==================================================================

            --------------------------------------------------
            Excitation   Energy (au)     Residual    Converged
            --------------------------------------------------
                 1       0.38653357     2.6500D-05      yes
                 2       0.64718625     1.7691D-04       no
                 3       0.95646920     1.0661D-03       no
                 4       1.08069674     2.7759D-02       no
                 5       1.09114740     1.9195D-02       no
            --------------------------------------------------

  ==================================================================
             7. SOPPA  iteration, Excitation symmetry 1
  ==================================================================

            --------------------------------------------------
            Excitation   Energy (au)     Residual    Converged
            --------------------------------------------------
                 1       0.38653357     2.5360D-05      yes
                 2       0.64718624     3.5659D-05      yes
                 3       0.95646893     4.5783D-04       no
                 4       1.08041191     1.0884D-02       no
                 5       1.09101740     7.2906D-03       no
            --------------------------------------------------

  ==================================================================
             8. SOPPA  iteration, Excitation symmetry 1
  ==================================================================

            --------------------------------------------------
            Excitation   Energy (au)     Residual    Converged
            --------------------------------------------------
                 1       0.38653357     2.1664D-05      yes
                 2       0.64718624     2.2521D-05      yes
                 3       0.95646889     1.2591D-04       no
                 4       1.08037669     3.2495D-03       no
                 5       1.09100137     2.2182D-03       no
            --------------------------------------------------

  ==================================================================
             9. SOPPA  iteration, Excitation symmetry 1
  ==================================================================

            --------------------------------------------------
            Excitation   Energy (au)     Residual    Converged
            --------------------------------------------------
                 1       0.38653357     2.1064D-05      yes
                 2       0.64718624     2.1509D-05      yes
                 3       0.95646888     5.6484D-05      yes
                 4       1.08037182     1.6895D-03       no
                 5       1.09099893     1.2572D-03       no
            --------------------------------------------------

  ==================================================================
            10. SOPPA  iteration, Excitation symmetry 1
  ==================================================================

            --------------------------------------------------
            Excitation   Energy (au)     Residual    Converged
            --------------------------------------------------
                 1       0.38653357     2.0476D-05      yes
                 2       0.64718624     2.0393D-05      yes
                 3       0.95646888     5.0258D-05      yes
                 4       1.08037066     5.4967D-04       no
                 5       1.09099826     4.2789D-04       no
            --------------------------------------------------

  ==================================================================
            11. SOPPA  iteration, Excitation symmetry 1
  ==================================================================

            --------------------------------------------------
            Excitation   Energy (au)     Residual    Converged
            --------------------------------------------------
                 1       0.38653357     1.9923D-05      yes
                 2       0.64718624     1.9234D-05      yes
                 3       0.95646888     5.0242D-05      yes
                 4       1.08037057     1.3578D-04       no
                 5       1.09099821     1.0812D-04       no
            --------------------------------------------------

  ==================================================================
            12. SOPPA  iteration, Excitation symmetry 1
  ==================================================================

            --------------------------------------------------
            Excitation   Energy (au)     Residual    Converged
            --------------------------------------------------
                 1       0.38653357     1.9726D-05      yes
                 2       0.64718624     1.6943D-05      yes
                 3       0.95646888     4.9416D-05      yes
                 4       1.08037056     3.9669D-05      yes
                 5       1.09099820     3.2886D-05      yes
            --------------------------------------------------

 -------------------------------------------------------------
 Iterations stopped since: 
 -------------------------
 All of the excitations are converged.
 -------------------------------------------------------------


 --------------------------------------------------------------

                 Singlet Excitation Energies

 --------------------------------------------------------------
 Excitation symmetry  1, state no.  1

      SOPPA excitation energy :  0.38653357     au
                                   10.518113     eV
                                   84834.312     cm-1
                                   1014.8437     kj / mole

 1p-1h + 1h-1p excitation weight:  95.39 + -0.13  =  95.26 %
 2p-2h + 2h-2p excitation weight:   4.74 + -0.00  =   4.74 %

 |=====================================================|
 |          | Symmetry|  Orbital index  |   Amplitude  |
 |          | index   |   a   b   i   j |              |
 |=====================================================|
 |    exci. | 1   1   |   1       3     |    0.977962  |
 |-----------------------------------------------------|
 |    exci. | 3 1 3 1 |   1   1   1   3 |   -0.101995  |
 |=====================================================|

 Printed all single excitation amplitudes greater than 0.100000
 Printed all double excitation amplitudes greater than 0.100000

 --------------------------------------------------------------

                 Singlet Excitation Energies

 --------------------------------------------------------------
 Excitation symmetry  1, state no.  2

      SOPPA excitation energy :  0.64718624     au
                                   17.610833     eV
                                   142040.96     cm-1
                                   1699.1872     kj / mole

 1p-1h + 1h-1p excitation weight:  96.40 + -0.41  =  95.98 %
 2p-2h + 2h-2p excitation weight:   4.02 + -0.00  =   4.02 %

 |=====================================================|
 |          | Symmetry|  Orbital index  |   Amplitude  |
 |          | index   |   a   b   i   j |              |
 |=====================================================|
 |    exci. | 3   3   |   1       1     |   -0.977367  |
 |-----------------------------------------------------|
 |    exci. | 3 1 3 1 |   1   1   1   2 |    0.046053  |
 |    exci. | 3 1 3 1 |   1   5   1   2 |    0.023462  |
 |    exci. | 3 1 3 1 |   1   1   1   3 |   -0.060778  |
 |    exci. | 3 1 3 1 |   1   3   1   3 |    0.056777  |
 |    exci. | 3 2 3 2 |   1   1   1   1 |    0.068499  |
 |    exci. | 3 2 3 2 |   3   1   1   1 |   -0.023182  |
 |    exci. | 3 3 3 3 |   1   1   1   1 |    0.099155  |
 |    exci. | 3 3 3 3 |   3   1   1   1 |    0.032652  |
 |    exci. | 3 3 3 3 |   5   2   1   1 |   -0.020020  |
 |    exci. | 3 3 1 1 |   1   1   2   2 |    0.021820  |
 |    exci. | 3 3 1 1 |   1   1   3   2 |    0.025310  |
 |    exci. | 3 3 1 1 |   2   1   3   2 |    0.046972  |
 |    exci. | 3 3 1 1 |   1   2   3   2 |    0.022038  |
 |    exci. | 4 3 2 1 |   1   1   1   2 |    0.031407  |
 |    exci. | 4 3 2 1 |   2   1   1   2 |   -0.025739  |
 |    exci. | 1 3 3 1 |   2   1   1   2 |   -0.033340  |
 |    exci. | 1 3 3 1 |   1   1   1   3 |   -0.020149  |
 |    exci. | 1 3 3 1 |   1   2   1   3 |   -0.027425  |
 |    exci. | 1 1 3 3 |   1   1   1   1 |    0.029589  |
 |    exci. | 1 1 3 3 |   2   1   1   1 |    0.034436  |
 |=====================================================|

 Printed all single excitation amplitudes greater than 0.100000
 Printed all double excitation amplitudes greater than 0.020000

 --------------------------------------------------------------

                 Singlet Excitation Energies

 --------------------------------------------------------------
 Excitation symmetry  1, state no.  3

      SOPPA excitation energy :  0.95646888     au
                                   26.026842     eV
                                   209920.65     cm-1
                                   2511.2087     kj / mole

 1p-1h + 1h-1p excitation weight:  94.86 + -0.07  =  94.80 %
 2p-2h + 2h-2p excitation weight:   5.20 + -0.00  =   5.20 %

 |=====================================================|
 |          | Symmetry|  Orbital index  |   Amplitude  |
 |          | index   |   a   b   i   j |              |
 |=====================================================|
 |    exci. | 1   1   |   2       3     |    0.960731  |
 |    exci. | 2   2   |   1       1     |    0.105461  |
 |-----------------------------------------------------|
 |    exci. | 1 1 1 1 |   1   1   3   2 |    0.035204  |
 |    exci. | 1 1 1 1 |   2   1   3   2 |   -0.021187  |
 |    exci. | 1 1 1 1 |   2   2   3   2 |   -0.021145  |
 |    exci. | 1 1 1 1 |   3   2   3   2 |   -0.030890  |
 |    exci. | 1 1 1 1 |   4   2   3   2 |   -0.023141  |
 |    exci. | 1 1 1 1 |   2   5   3   2 |   -0.020359  |
 |    exci. | 1 1 1 1 |   1   1   3   3 |   -0.038788  |
 |    exci. | 1 1 1 1 |   2   1   3   3 |    0.041990  |
 |    exci. | 1 1 1 1 |   3   1   3   3 |    0.044757  |
 |    exci. | 1 1 1 1 |   2   2   3   3 |    0.058766  |
 |    exci. | 1 1 1 1 |   3   2   3   3 |   -0.052614  |
 |    exci. | 1 1 1 1 |   4   2   3   3 |   -0.022453  |
 |    exci. | 1 1 1 1 |   5   2   3   3 |   -0.039021  |
 |    exci. | 1 1 1 1 |   7   2   3   3 |    0.028009  |
 |    exci. | 1 1 1 1 |   6   3   3   3 |   -0.023209  |
 |    exci. | 2 1 2 1 |   2   2   1   2 |    0.023375  |
 |    exci. | 2 1 2 1 |   3   2   1   2 |    0.023275  |
 |    exci. | 2 1 2 1 |   1   1   1   3 |    0.045555  |
 |    exci. | 2 1 2 1 |   1   2   1   3 |   -0.062369  |
 |    exci. | 2 1 2 1 |   2   2   1   3 |    0.032516  |
 |    exci. | 2 1 2 1 |   3   2   1   3 |    0.024804  |
 |    exci. | 2 1 2 1 |   1   6   1   3 |   -0.021685  |
 |    exci. | 3 1 3 1 |   2   2   1   2 |   -0.040483  |
 |    exci. | 3 1 3 1 |   1   1   1   3 |    0.035741  |
 |    exci. | 3 1 3 1 |   3   1   1   3 |    0.024339  |
 |    exci. | 3 1 3 1 |   1   2   1   3 |   -0.081699  |
 |    exci. | 3 1 3 1 |   2   2   1   3 |   -0.086174  |
 |    exci. | 3 1 3 1 |   3   2   1   3 |   -0.037663  |
 |    exci. | 3 1 3 1 |   5   2   1   3 |   -0.023614  |
 |    exci. | 3 3 1 1 |   2   2   3   2 |   -0.027121  |
 |    exci. | 3 3 1 1 |   2   1   3   3 |    0.028474  |
 |    exci. | 3 3 1 1 |   2   2   3   3 |    0.049523  |
 |    exci. | 4 3 2 1 |   1   2   1   3 |    0.022356  |
 |    exci. | 1 3 3 1 |   1   2   1   3 |   -0.040071  |
 |    exci. | 1 3 3 1 |   2   2   1   3 |   -0.056248  |
 |    exci. | 1 3 3 1 |   2   3   1   3 |   -0.021118  |
 |    exci. | 1 3 3 1 |   2   4   1   3 |    0.028369  |
 |=====================================================|

 Printed all single excitation amplitudes greater than 0.100000
 Printed all double excitation amplitudes greater than 0.020000

 --------------------------------------------------------------

                 Singlet Excitation Energies

 --------------------------------------------------------------
 Excitation symmetry  1, state no.  4

      SOPPA excitation energy :   1.0803706     au
                                   29.398378     eV
                                   237113.93     cm-1
                                   2836.5125     kj / mole

 1p-1h + 1h-1p excitation weight:  94.93 + -0.15  =  94.78 %
 2p-2h + 2h-2p excitation weight:   5.22 + -0.00  =   5.22 %

 |=====================================================|
 |          | Symmetry|  Orbital index  |   Amplitude  |
 |          | index   |   a   b   i   j |              |
 |=====================================================|
 |    exci. | 1   1   |   1       2     |    0.509684  |
 |    exci. | 3   3   |   2       1     |   -0.823436  |
 |-----------------------------------------------------|
 |    exci. | 1 1 1 1 |   1   1   2   2 |   -0.032467  |
 |    exci. | 1 1 1 1 |   1   1   3   2 |    0.043797  |
 |    exci. | 1 1 1 1 |   2   1   3   2 |    0.020634  |
 |    exci. | 1 1 1 1 |   3   1   3   2 |   -0.041935  |
 |    exci. | 2 1 2 1 |   1   1   1   2 |   -0.052107  |
 |    exci. | 3 1 3 1 |   1   1   1   2 |   -0.074442  |
 |    exci. | 3 1 3 1 |   3   1   1   2 |   -0.037753  |
 |    exci. | 3 1 3 1 |   2   4   1   2 |   -0.021062  |
 |    exci. | 3 1 3 1 |   2   1   1   3 |   -0.072294  |
 |    exci. | 3 1 3 1 |   2   2   1   3 |   -0.030645  |
 |    exci. | 3 1 3 1 |   1   3   1   3 |   -0.030443  |
 |    exci. | 3 1 3 1 |   2   3   1   3 |    0.032302  |
 |    exci. | 3 2 3 2 |   1   1   1   1 |   -0.036086  |
 |    exci. | 3 2 3 2 |   2   1   1   1 |    0.042273  |
 |    exci. | 3 3 3 3 |   1   1   1   1 |   -0.047534  |
 |    exci. | 3 3 3 3 |   2   1   1   1 |    0.050025  |
 |    exci. | 3 3 3 3 |   3   1   1   1 |   -0.023806  |
 |    exci. | 3 3 3 3 |   5   1   1   1 |   -0.023727  |
 |    exci. | 3 3 3 3 |   2   2   1   1 |    0.037303  |
 |    exci. | 3 3 3 3 |   3   2   1   1 |    0.035544  |
 |    exci. | 3 3 3 3 |   5   3   1   1 |   -0.021488  |
 |    exci. | 1 1 2 2 |   1   1   1   1 |   -0.057557  |
 |    exci. | 1 1 2 2 |   2   1   1   1 |   -0.034914  |
 |    exci. | 4 1 3 2 |   1   1   1   1 |   -0.024697  |
 |    exci. | 3 3 1 1 |   2   2   3   2 |    0.057248  |
 |    exci. | 4 3 2 1 |   1   2   1   2 |    0.027658  |
 |    exci. | 4 3 2 1 |   2   2   1   2 |   -0.021137  |
 |    exci. | 1 3 3 1 |   1   1   1   2 |   -0.033647  |
 |    exci. | 1 3 3 1 |   4   2   1   2 |   -0.023685  |
 |    exci. | 1 3 3 1 |   1   1   1   3 |   -0.030091  |
 |    exci. | 1 3 3 1 |   1   2   1   3 |   -0.049268  |
 |    exci. | 1 3 3 1 |   2   2   1   3 |   -0.026144  |
 |    exci. | 1 4 3 2 |   1   1   1   1 |   -0.027250  |
 |    exci. | 1 1 3 3 |   2   1   1   1 |    0.066373  |
 |    exci. | 1 1 3 3 |   2   2   1   1 |    0.051375  |
 |=====================================================|

 Printed all single excitation amplitudes greater than 0.100000
 Printed all double excitation amplitudes greater than 0.020000

 --------------------------------------------------------------

                 Singlet Excitation Energies

 --------------------------------------------------------------
 Excitation symmetry  1, state no.  5

      SOPPA excitation energy :   1.0909982     au
                                   29.687571     eV
                                   239446.43     cm-1
                                   2864.4153     kj / mole

 1p-1h + 1h-1p excitation weight:  93.84 + -0.16  =  93.68 %
 2p-2h + 2h-2p excitation weight:   6.32 + -0.00  =   6.32 %

 |=====================================================|
 |          | Symmetry|  Orbital index  |   Amplitude  |
 |          | index   |   a   b   i   j |              |
 |=====================================================|
 |    exci. | 1   1   |   1       2     |    0.780506  |
 |    exci. | 1   1   |   2       3     |   -0.107643  |
 |    exci. | 2   2   |   1       1     |   -0.281052  |
 |    exci. | 3   3   |   2       1     |    0.481774  |
 |-----------------------------------------------------|
 |    exci. | 1 1 1 1 |   1   1   2   2 |   -0.049395  |
 |    exci. | 1 1 1 1 |   1   1   3   2 |    0.069264  |
 |    exci. | 1 1 1 1 |   2   1   3   2 |    0.038763  |
 |    exci. | 1 1 1 1 |   3   1   3   2 |   -0.058261  |
 |    exci. | 1 1 1 1 |   3   1   3   3 |   -0.033804  |
 |    exci. | 1 1 1 1 |   4   1   3   3 |   -0.035110  |
 |    exci. | 1 1 1 1 |   5   1   3   3 |   -0.021981  |
 |    exci. | 1 1 1 1 |   7   1   3   3 |    0.020507  |
 |    exci. | 2 1 2 1 |   1   1   1   2 |   -0.073123  |
 |    exci. | 2 1 2 1 |   2   1   1   3 |    0.033736  |
 |    exci. | 2 1 2 1 |   3   1   1   3 |    0.025666  |
 |    exci. | 3 1 3 1 |   1   1   1   2 |   -0.077046  |
 |    exci. | 3 1 3 1 |   2   1   1   2 |   -0.044882  |
 |    exci. | 3 1 3 1 |   3   1   1   2 |   -0.049030  |
 |    exci. | 3 1 3 1 |   1   1   1   3 |   -0.043425  |
 |    exci. | 3 1 3 1 |   2   1   1   3 |   -0.047655  |
 |    exci. | 3 1 3 1 |   5   1   1   3 |   -0.026102  |
 |    exci. | 3 1 3 1 |   2   2   1   3 |    0.023234  |
 |    exci. | 3 2 3 2 |   1   1   1   1 |    0.024476  |
 |    exci. | 3 2 3 2 |   2   1   1   1 |   -0.024067  |
 |    exci. | 3 3 3 3 |   1   1   1   1 |    0.025366  |
 |    exci. | 3 3 3 3 |   2   1   1   1 |   -0.030281  |
 |    exci. | 3 3 3 3 |   2   2   1   1 |   -0.021550  |
 |    exci. | 3 3 3 3 |   3   2   1   1 |   -0.022590  |
 |    exci. | 1 2 2 1 |   1   2   1   3 |    0.035469  |
 |    exci. | 1 2 2 1 |   1   3   1   3 |    0.026272  |
 |    exci. | 1 1 2 2 |   1   1   1   1 |   -0.091764  |
 |    exci. | 1 1 2 2 |   2   1   1   1 |   -0.067245  |
 |    exci. | 1 1 2 2 |   3   1   1   1 |   -0.022899  |
 |    exci. | 1 1 2 2 |   4   1   1   1 |    0.020708  |
 |    exci. | 1 1 2 2 |   5   1   1   1 |    0.024394  |
 |    exci. | 1 1 2 2 |   6   1   1   1 |    0.031716  |
 |    exci. | 1 1 2 2 |   8   1   1   1 |    0.023223  |
 |    exci. | 4 1 3 2 |   1   1   1   1 |   -0.042093  |
 |    exci. | 4 1 3 2 |   2   1   1   1 |    0.022934  |
 |    exci. | 3 3 1 1 |   2   2   3   2 |   -0.021645  |
 |    exci. | 1 3 3 1 |   1   1   1   2 |   -0.050801  |
 |    exci. | 1 3 3 1 |   2   1   1   2 |   -0.025193  |
 |    exci. | 1 3 3 1 |   1   1   1   3 |   -0.038863  |
 |    exci. | 1 3 3 1 |   1   2   1   3 |   -0.071465  |
 |    exci. | 1 3 3 1 |   1   5   1   3 |   -0.022674  |
 |    exci. | 1 4 3 2 |   1   1   1   1 |   -0.044631  |
 |    exci. | 1 4 3 2 |   1   2   1   1 |    0.026461  |
 |    exci. | 1 1 3 3 |   2   1   1   1 |    0.031664  |
 |    exci. | 1 1 3 3 |   3   1   1   1 |    0.028586  |
 |    exci. | 1 1 3 3 |   4   1   1   1 |    0.029568  |
 |    exci. | 1 1 3 3 |   6   1   1   1 |   -0.021557  |
 |    exci. | 1 1 3 3 |   2   2   1   1 |   -0.023498  |
 |=====================================================|

 Printed all single excitation amplitudes greater than 0.100000
 Printed all double excitation amplitudes greater than 0.020000

 --------------------------------------------------------------

 ZDIPLEN  SOPPA transition moments for excitation symmetry  1
 ===================================================================
 Exci.    1p-1h        1h-1p        Total
 -------------------------------------------------------------------
   1     0.64085 +   -0.03609 =    0.60476
   2     0.58201 +   -0.05839 =    0.52362
   3    -0.02060 +   -0.01279 =   -0.03339
   4     0.47133 +   -0.05751 =    0.41381
   5    -0.45217 +    0.04059 =   -0.41158
 ===================================================================

 ZDIPVEL  SOPPA transition moments for excitation symmetry  1
 ===================================================================
 Exci.    1p-1h        1h-1p        Total
 -------------------------------------------------------------------
   1    -0.32165 +   -0.02005 =   -0.34171
   2    -0.31534 +   -0.04081 =   -0.35614
   3     0.08165 +   -0.00477 =    0.07688
   4    -0.35685 +   -0.07241 =   -0.42925
   5     0.40452 +    0.02293 =    0.42745
 ===================================================================

 XXSECMOM SOPPA transition moments for excitation symmetry  1
 ===================================================================
 Exci.    1p-1h        1h-1p        Total
 -------------------------------------------------------------------
   1    -0.13372 +    0.03621 =   -0.09751
   2    -0.33262 +    0.08436 =   -0.24826
   3     0.21790 +    0.02663 =    0.24453
   4     0.59336 +   -0.02338 =    0.56999
   5    -0.33945 +   -0.03461 =   -0.37406
 ===================================================================

 YYSECMOM SOPPA transition moments for excitation symmetry  1
 ===================================================================
 Exci.    1p-1h        1h-1p        Total
 -------------------------------------------------------------------
   1    -0.63063 +    0.09572 =   -0.53491
   2    -2.13395 +    0.15553 =   -1.97841
   3    -0.56069 +    0.06712 =   -0.49357
   4     0.63647 +   -0.00681 =    0.62966
   5     0.65640 +   -0.09865 =    0.55775
 ===================================================================

 ZZSECMOM SOPPA transition moments for excitation symmetry  1
 ===================================================================
 Exci.    1p-1h        1h-1p        Total
 -------------------------------------------------------------------
   1    -0.54554 +    0.05999 =   -0.48554
   2    -0.84247 +    0.13232 =   -0.71016
   3     0.16156 +    0.02799 =    0.18954
   4     0.25798 +    0.00501 =    0.26299
   5     0.51215 +   -0.07108 =    0.44107
 ===================================================================

 -----------------------------------
 SOPPA(CCSD):
 Perturbation symmetry     :       1
 p-h variables             :      66
 2p-2h variables           :    2554
 Total number of variables :    2620
 -----------------------------------

  ******************************************************************
           SOPPA(CCSD)  iterations, Excitation symmetry 1
  ******************************************************************

  ==================================================================
             1. SOPPA(CCSD)  iteration, Excitation symmetry 1
  ==================================================================

            --------------------------------------------------
            Excitation   Energy (au)     Residual    Converged
            --------------------------------------------------
                 1       0.38886625     2.1562D-03       no
                 2       0.64944262     1.5774D-03       no
                 3       0.95897289     2.0570D-03       no
                 4       1.08333252     2.1376D-03       no
                 5       1.09368383     3.0078D-03       no
            --------------------------------------------------

  ==================================================================
             2. SOPPA(CCSD)  iteration, Excitation symmetry 1
  ==================================================================

            --------------------------------------------------
            Excitation   Energy (au)     Residual    Converged
            --------------------------------------------------
                 1       0.38886466     5.9116D-04       no
                 2       0.64944185     4.5133D-04       no
                 3       0.95897178     8.1383D-04       no
                 4       1.08333098     5.9816D-04       no
                 5       1.09368110     9.4283D-04       no
            --------------------------------------------------

  ==================================================================
             3. SOPPA(CCSD)  iteration, Excitation symmetry 1
  ==================================================================

            --------------------------------------------------
            Excitation   Energy (au)     Residual    Converged
            --------------------------------------------------
                 1       0.38886459     7.8023D-05      yes
                 2       0.64944178     1.3195D-04       no
                 3       0.95897157     2.5316D-04       no
                 4       1.08333087     1.7605D-04       no
                 5       1.09368066     4.9443D-04       no
            --------------------------------------------------

  ==================================================================
             4. SOPPA(CCSD)  iteration, Excitation symmetry 1
  ==================================================================

            --------------------------------------------------
            Excitation   Energy (au)     Residual    Converged
            --------------------------------------------------
                 1       0.38886459     4.8581D-05      yes
                 2       0.64944178     2.4268D-05      yes
                 3       0.95897155     9.0393D-05      yes
                 4       1.08333085     7.0399D-05      yes
                 5       1.09368042     4.1163D-04       no
            --------------------------------------------------

  ==================================================================
             5. SOPPA(CCSD)  iteration, Excitation symmetry 1
  ==================================================================

            --------------------------------------------------
            Excitation   Energy (au)     Residual    Converged
            --------------------------------------------------
                 1       0.38886459     4.7462D-05      yes
                 2       0.64944178     2.4166D-05      yes
                 3       0.95897154     4.4035D-05      yes
                 4       1.08333085     6.4870D-05      yes
                 5       1.09368036     1.0959D-04       no
            --------------------------------------------------

  ==================================================================
             6. SOPPA(CCSD)  iteration, Excitation symmetry 1
  ==================================================================

            --------------------------------------------------
            Excitation   Energy (au)     Residual    Converged
            --------------------------------------------------
                 1       0.38886459     4.7416D-05      yes
                 2       0.64944178     2.4172D-05      yes
                 3       0.95897154     3.8318D-05      yes
                 4       1.08333085     6.3657D-05      yes
                 5       1.09368036     3.4762D-05      yes
            --------------------------------------------------

 -------------------------------------------------------------
 Iterations stopped since: 
 -------------------------
 All of the excitations are converged.
 -------------------------------------------------------------


 --------------------------------------------------------------

                 Singlet Excitation Energies

 --------------------------------------------------------------
 Excitation symmetry  1, state no.  1

SOPPA(CCSD) excitation energy :  0.38886459     au
                                   10.581544     eV
                                   85345.912     cm-1
                                   1020.9638     kj / mole

 1p-1h + 1h-1p excitation weight:  95.37 + -0.13  =  95.23 %
 2p-2h + 2h-2p excitation weight:   4.77 + -0.00  =   4.77 %

 |=====================================================|
 |          | Symmetry|  Orbital index  |   Amplitude  |
 |          | index   |   a   b   i   j |              |
 |=====================================================|
 |    exci. | 1   1   |   1       3     |   -0.979397  |
 |-----------------------------------------------------|
 |    exci. | 3 1 3 1 |   1   1   1   3 |    0.102346  |
 |=====================================================|

 Printed all single excitation amplitudes greater than 0.100000
 Printed all double excitation amplitudes greater than 0.100000

 --------------------------------------------------------------

                 Singlet Excitation Energies

 --------------------------------------------------------------
 Excitation symmetry  1, state no.  2

SOPPA(CCSD) excitation energy :  0.64944178     au
                                   17.672210     eV
                                   142535.99     cm-1
                                   1705.1091     kj / mole

 1p-1h + 1h-1p excitation weight:  96.38 + -0.42  =  95.96 %
 2p-2h + 2h-2p excitation weight:   4.04 + -0.00  =   4.04 %

 |=====================================================|
 |          | Symmetry|  Orbital index  |   Amplitude  |
 |          | index   |   a   b   i   j |              |
 |=====================================================|
 |    exci. | 3   3   |   1       1     |    0.978797  |
 |-----------------------------------------------------|
 |    exci. | 3 1 3 1 |   1   1   1   2 |   -0.046203  |
 |    exci. | 3 1 3 1 |   1   5   1   2 |   -0.023512  |
 |    exci. | 3 1 3 1 |   1   1   1   3 |    0.060945  |
 |    exci. | 3 1 3 1 |   1   3   1   3 |   -0.056928  |
 |    exci. | 3 2 3 2 |   1   1   1   1 |   -0.068683  |
 |    exci. | 3 2 3 2 |   3   1   1   1 |    0.023223  |
 |    exci. | 3 3 3 3 |   1   1   1   1 |   -0.099486  |
[...]
                   2      1     0.290059     7.892910
                   2      2     0.858570    23.362877
                   2      3     1.140290    31.028871
                   2      4     1.253509    34.109718
                   2      5     1.426915    38.828331
                   2      6     1.439592    39.173297
               ----------------------------------------
                   3      1     0.463397    12.609676
                   3      2     0.536367    14.595300
                   3      3     0.918303    24.988288
                   3      4     1.134109    30.860671
                   3      5     1.159706    31.557206
               ----------------------------------------
                   4      1     0.365040     9.933230
                   4      2     0.791054    21.525665
                   4      3     1.227658    33.406275
                   4      4     1.411008    38.395470
                   4      5     1.500655    40.834892
               ========================================


@               Electric transition dipole moments (au)
                ---------------------------------------

@        Mode    Frequency       Velocity/Frequency              Length
@         No.      (au)          x       y       z         x       y       z
@==============================================================================
@  Symmetry of excited state: 1  ( A1 )
@           1     0.386534     0.0000  0.0000  0.8840    0.0000  0.0000  0.6048
@           2     0.647186     0.0000  0.0000  0.5503    0.0000  0.0000  0.5236
@           3     0.956469     0.0000  0.0000 -0.0804    0.0000  0.0000 -0.0334
@           4     1.080371     0.0000  0.0000  0.3973    0.0000  0.0000  0.4138
@           5     1.090998     0.0000  0.0000 -0.3918    0.0000  0.0000 -0.4116
@------------------------------------------------------------------------------
@  Symmetry of excited state: 2  ( B1 )
@           1     0.290059     0.8090  0.0000  0.0000    0.3703  0.0000  0.0000
@           2     0.858570     0.3193  0.0000  0.0000    0.3417  0.0000  0.0000
@           3     1.140290    -0.1134  0.0000  0.0000   -0.0799  0.0000  0.0000
@           4     1.253509     0.1307  0.0000  0.0000    0.0273  0.0000  0.0000
@           5     1.426915    -0.0374  0.0000  0.0000   -0.0656  0.0000  0.0000
@           6     1.439592     0.0145  0.0000  0.0000    0.0299  0.0000  0.0000
@------------------------------------------------------------------------------
@  Symmetry of excited state: 3  ( B2 )
@           1     0.463397     0.0000  0.5276  0.0000    0.0000  0.4858  0.0000
@           2     0.536367     0.0000 -0.9240  0.0000    0.0000 -0.8949  0.0000
@           3     0.918303     0.0000  0.4576  0.0000    0.0000  0.4880  0.0000
@           4     1.134109     0.0000 -0.6173  0.0000    0.0000 -0.6827  0.0000
@           5     1.159706     0.0000  0.0401  0.0000    0.0000  0.0591  0.0000
@------------------------------------------------------------------------------
@  Symmetry of excited state: 4  ( A2 )
@           1     0.365040     0.0000  0.0000  0.0000    0.0000  0.0000  0.0000
@           2     0.791054     0.0000  0.0000  0.0000    0.0000  0.0000  0.0000
@           3     1.227658     0.0000  0.0000  0.0000    0.0000  0.0000  0.0000
@           4     1.411008     0.0000  0.0000  0.0000    0.0000  0.0000  0.0000
@           5     1.500655     0.0000  0.0000  0.0000    0.0000  0.0000  0.0000
@------------------------------------------------------------------------------


@               Magnetic transition dipole moments (au)
                ---------------------------------------

  ( mu_B*<0|l_i|n>, where mu_B = 0.5 is the Bohr magneton)

 Symm.  Mode   Frequency         Conventional                  London
 ex.st.  No.     (eV)        x        y       z         x        y        z
 ==============================================================================
   1      1    10.5181   -0.00000 -0.00000 -0.00000  -0.00000 -0.00000 -0.00000
   1      2    17.6108   -0.00000 -0.00000 -0.00000  -0.00000 -0.00000 -0.00000
   1      3    26.0268   -0.00000 -0.00000 -0.00000  -0.00000 -0.00000 -0.00000
   1      4    29.3984   -0.00000 -0.00000 -0.00000  -0.00000 -0.00000 -0.00000
   1      5    29.6876   -0.00000 -0.00000 -0.00000  -0.00000 -0.00000 -0.00000
 ------------------------------------------------------------------------------
   2      1     7.8929   -0.00000 -0.09114 -0.00000  -0.00000 -0.00000 -0.00000
   2      2    23.3629   -0.00000  0.09437 -0.00000  -0.00000 -0.00000 -0.00000
   2      3    31.0289   -0.00000 -0.03345 -0.00000  -0.00000 -0.00000 -0.00000
   2      4    34.1097   -0.00000  0.05481 -0.00000  -0.00000 -0.00000 -0.00000
   2      5    38.8283   -0.00000  0.00710 -0.00000  -0.00000 -0.00000 -0.00000
   2      6    39.1733   -0.00000 -0.01460 -0.00000  -0.00000 -0.00000 -0.00000
 ------------------------------------------------------------------------------
   3      1    12.6097   -0.13620 -0.00000 -0.00000  -0.00000 -0.00000 -0.00000
   3      2    14.5953   -0.06884 -0.00000 -0.00000  -0.00000 -0.00000 -0.00000
   3      3    24.9883   -0.24650 -0.00000 -0.00000  -0.00000 -0.00000 -0.00000
   3      4    30.8607   -0.09995 -0.00000 -0.00000  -0.00000 -0.00000 -0.00000
   3      5    31.5572   -0.04285 -0.00000 -0.00000  -0.00000 -0.00000 -0.00000
 ------------------------------------------------------------------------------
   4      1     9.9332   -0.00000 -0.00000  0.13328  -0.00000 -0.00000 -0.00000
   4      2    21.5257   -0.00000 -0.00000 -0.13164  -0.00000 -0.00000 -0.00000
   4      3    33.4063   -0.00000 -0.00000  0.02281  -0.00000 -0.00000 -0.00000
   4      4    38.3955   -0.00000 -0.00000  0.09932  -0.00000 -0.00000 -0.00000
   4      5    40.8349   -0.00000 -0.00000 -0.02410  -0.00000 -0.00000 -0.00000
 ------------------------------------------------------------------------------


@                  Oscillator and Scalar Rotational Strengths
                   ------------------------------------------

@   Units: 10**(-40) (esu**2)*(cm**2) (rotational strength)
@          dimensionless              (oscillator strength)

@ Symm.  Mode   Frequency    Oscillator-strength      Rotational-strength   
@ ex.st.  No.     (eV)        velocity  length     velocity  length   London
@ ==========================================================================
@  1      1    10.5181        0.2014   0.0942      -0.000   -0.000   -0.000
@  1      2    17.6108        0.1307   0.1183      -0.000   -0.000   -0.000
@  1      3    26.0268        0.0041   0.0007      -0.000   -0.000   -0.000
@  1      4    29.3984        0.1137   0.1233      -0.000   -0.000   -0.000
@  1      5    29.6876        0.1117   0.1232      -0.000   -0.000   -0.000
@ --------------------------------------------------------------------------
@  2      1     7.8929        0.1266   0.0265      -0.000   -0.000   -0.000
@  2      2    23.3629        0.0583   0.0668      -0.000   -0.000   -0.000
@  2      3    31.0289        0.0098   0.0049      -0.000   -0.000   -0.000
@  2      4    34.1097        0.0143   0.0006      -0.000   -0.000   -0.000
@  2      5    38.8283        0.0013   0.0041      -0.000   -0.000   -0.000
@  2      6    39.1733        0.0002   0.0009      -0.000   -0.000   -0.000
@ --------------------------------------------------------------------------
@  3      1    12.6097        0.0860   0.0729      -0.000   -0.000   -0.000
@  3      2    14.5953        0.3053   0.2864      -0.000   -0.000   -0.000
@  3      3    24.9883        0.1282   0.1458      -0.000   -0.000   -0.000
@  3      4    30.8607        0.2881   0.3524      -0.000   -0.000   -0.000
@  3      5    31.5572        0.0012   0.0027      -0.000   -0.000   -0.000
@ --------------------------------------------------------------------------
@  4      1     9.9332        0.0000   0.0000      -0.000   -0.000   -0.000
@  4      2    21.5257        0.0000   0.0000      -0.000   -0.000   -0.000
@  4      3    33.4063        0.0000   0.0000      -0.000   -0.000   -0.000
@  4      4    38.3955        0.0000   0.0000      -0.000   -0.000   -0.000
@  4      5    40.8349        0.0000   0.0000      -0.000   -0.000   -0.000
@ --------------------------------------------------------------------------


          Bethe sum rule                   
          --------------

  Q value      X Component    Y Component    Z Component
  ------------------------------------------------------
 LQ=   0 QMAX= 0.000     QMIN= 0.000     QSTEP= 0.000    


          Stopping Power                 
          --------------

  Velocity     X Component    Y Component    Z Component
  ------------------------------------------------


 ======================================================================
                               SOPPA(CCSD) results:
 ----------------------------------------------------------------------


@               Singlet electronic excitation energies
                --------------------------------------

               ========================================
                 Sym.   Mode   Frequency    Frequency
                ex. st.  No.      (au)         (eV)
               ----------------------------------------
                   1      1     0.388865    10.581544
                   1      2     0.649442    17.672210
                   1      3     0.958972    26.094943
                   1      4     1.083331    29.478932
                   1      5     1.093680    29.760556
               ----------------------------------------
                   2      1     0.291842     7.941433
                   2      2     0.860561    23.417062
                   2      3     1.140975    31.047500
                   2      4     1.254597    34.139324
                   2      5     1.427406    38.841698
                   2      6     1.440349    39.193882
               ----------------------------------------
                   3      1     0.465229    12.659530
                   3      2     0.539120    14.670212
                   3      3     0.920821    25.056807
                   3      4     1.136886    30.936245
                   3      5     1.162266    31.626855
               ----------------------------------------
                   4      1     0.366406     9.970410
                   4      2     0.793081    21.580845
                   4      3     1.228484    33.428746
                   4      4     1.412431    38.434206
                   4      5     1.500680    40.835574
               ========================================


@               Electric transition dipole moments (au)
                ---------------------------------------

@        Mode    Frequency       Velocity/Frequency              Length
@         No.      (au)          x       y       z         x       y       z
@==============================================================================
@  Symmetry of excited state: 1  ( A1 )
@           1     0.388865     0.0000  0.0000 -0.8806    0.0000  0.0000 -0.6011
@           2     0.649442     0.0000  0.0000 -0.5488    0.0000  0.0000 -0.5183
@           3     0.958972     0.0000  0.0000  0.0759    0.0000  0.0000  0.0333
@           4     1.083331     0.0000  0.0000 -0.3979    0.0000  0.0000 -0.4138
@           5     1.093680     0.0000  0.0000 -0.3916    0.0000  0.0000 -0.4118
@------------------------------------------------------------------------------
@  Symmetry of excited state: 2  ( B1 )
@           1     0.291842     0.8017  0.0000  0.0000    0.3692  0.0000  0.0000
@           2     0.860561     0.3160  0.0000  0.0000    0.3414  0.0000  0.0000
@           3     1.140975     0.1137  0.0000  0.0000    0.0784  0.0000  0.0000
@           4     1.254597    -0.1304  0.0000  0.0000   -0.0285  0.0000  0.0000
@           5     1.427406    -0.0361  0.0000  0.0000   -0.0656  0.0000  0.0000
@           6     1.440349     0.0173  0.0000  0.0000    0.0323  0.0000  0.0000
@------------------------------------------------------------------------------
@  Symmetry of excited state: 3  ( B2 )
@           1     0.465229     0.0000  0.5306  0.0000    0.0000  0.4820  0.0000
@           2     0.539120     0.0000 -0.9229  0.0000    0.0000 -0.8858  0.0000
@           3     0.920821     0.0000  0.4595  0.0000    0.0000  0.4867  0.0000
@           4     1.136886     0.0000 -0.6201  0.0000    0.0000 -0.6820  0.0000
@           5     1.162266     0.0000 -0.0385  0.0000    0.0000 -0.0583  0.0000
@------------------------------------------------------------------------------
@  Symmetry of excited state: 4  ( A2 )
@           1     0.366406     0.0000  0.0000  0.0000    0.0000  0.0000  0.0000
@           2     0.793081     0.0000  0.0000  0.0000    0.0000  0.0000  0.0000
@           3     1.228484     0.0000  0.0000  0.0000    0.0000  0.0000  0.0000
@           4     1.412431     0.0000  0.0000  0.0000    0.0000  0.0000  0.0000
@           5     1.500680     0.0000  0.0000  0.0000    0.0000  0.0000  0.0000
@------------------------------------------------------------------------------


@               Magnetic transition dipole moments (au)
                ---------------------------------------

  ( mu_B*<0|l_i|n>, where mu_B = 0.5 is the Bohr magneton)

 Symm.  Mode   Frequency         Conventional                  London
 ex.st.  No.     (eV)        x        y       z         x        y        z
 ==============================================================================
   1      1    10.5815   -0.00000 -0.00000 -0.00000  -0.00000 -0.00000 -0.00000
   1      2    17.6722   -0.00000 -0.00000 -0.00000  -0.00000 -0.00000 -0.00000
   1      3    26.0949   -0.00000 -0.00000 -0.00000  -0.00000 -0.00000 -0.00000
   1      4    29.4789   -0.00000 -0.00000 -0.00000  -0.00000 -0.00000 -0.00000
   1      5    29.7606   -0.00000 -0.00000 -0.00000  -0.00000 -0.00000 -0.00000
 ------------------------------------------------------------------------------
   2      1     7.9414   -0.00000 -0.09086 -0.00000  -0.00000 -0.00000 -0.00000
   2      2    23.4171   -0.00000  0.09639 -0.00000  -0.00000 -0.00000 -0.00000
   2      3    31.0475   -0.00000  0.03348 -0.00000  -0.00000 -0.00000 -0.00000
   2      4    34.1393   -0.00000 -0.05555 -0.00000  -0.00000 -0.00000 -0.00000
   2      5    38.8417   -0.00000  0.00655 -0.00000  -0.00000 -0.00000 -0.00000
   2      6    39.1939   -0.00000 -0.01526 -0.00000  -0.00000 -0.00000 -0.00000
 ------------------------------------------------------------------------------
   3      1    12.6595   -0.13579 -0.00000 -0.00000  -0.00000 -0.00000 -0.00000
   3      2    14.6702   -0.06837 -0.00000 -0.00000  -0.00000 -0.00000 -0.00000
   3      3    25.0568   -0.24940 -0.00000 -0.00000  -0.00000 -0.00000 -0.00000
   3      4    30.9362   -0.09971 -0.00000 -0.00000  -0.00000 -0.00000 -0.00000
   3      5    31.6269    0.04221 -0.00000 -0.00000  -0.00000 -0.00000 -0.00000
 ------------------------------------------------------------------------------
   4      1     9.9704   -0.00000 -0.00000  0.13280  -0.00000 -0.00000 -0.00000
   4      2    21.5808   -0.00000 -0.00000  0.13420  -0.00000 -0.00000 -0.00000
   4      3    33.4287   -0.00000 -0.00000 -0.02129  -0.00000 -0.00000 -0.00000
   4      4    38.4342   -0.00000 -0.00000  0.10096  -0.00000 -0.00000 -0.00000
   4      5    40.8356   -0.00000 -0.00000 -0.02543  -0.00000 -0.00000 -0.00000
 ------------------------------------------------------------------------------


@                  Oscillator and Scalar Rotational Strengths
                   ------------------------------------------

@   Units: 10**(-40) (esu**2)*(cm**2) (rotational strength)
@          dimensionless              (oscillator strength)

@ Symm.  Mode   Frequency    Oscillator-strength      Rotational-strength   
@ ex.st.  No.     (eV)        velocity  length     velocity  length   London
@ ==========================================================================
@  1      1    10.5815        0.2010   0.0937      -0.000   -0.000   -0.000
@  1      2    17.6722        0.1304   0.1163      -0.000   -0.000   -0.000
@  1      3    26.0949        0.0037   0.0007      -0.000   -0.000   -0.000
@  1      4    29.4789        0.1144   0.1237      -0.000   -0.000   -0.000
@  1      5    29.7606        0.1118   0.1236      -0.000   -0.000   -0.000
@ --------------------------------------------------------------------------
@  2      1     7.9414        0.1251   0.0265      -0.000   -0.000   -0.000
@  2      2    23.4171        0.0573   0.0669      -0.000   -0.000   -0.000
@  2      3    31.0475        0.0098   0.0047      -0.000   -0.000   -0.000
@  2      4    34.1393        0.0142   0.0007      -0.000   -0.000   -0.000
@  2      5    38.8417        0.0012   0.0041      -0.000   -0.000   -0.000
@  2      6    39.1939        0.0003   0.0010      -0.000   -0.000   -0.000
@ --------------------------------------------------------------------------
@  3      1    12.6595        0.0873   0.0720      -0.000   -0.000   -0.000
@  3      2    14.6702        0.3061   0.2820      -0.000   -0.000   -0.000
@  3      3    25.0568        0.1296   0.1454      -0.000   -0.000   -0.000
@  3      4    30.9362        0.2915   0.3525      -0.000   -0.000   -0.000
@  3      5    31.6269        0.0012   0.0026      -0.000   -0.000   -0.000
@ --------------------------------------------------------------------------
@  4      1     9.9704        0.0000   0.0000      -0.000   -0.000   -0.000
@  4      2    21.5808        0.0000   0.0000      -0.000   -0.000   -0.000
@  4      3    33.4287        0.0000   0.0000      -0.000   -0.000   -0.000
@  4      4    38.4342        0.0000   0.0000      -0.000   -0.000   -0.000
@  4      5    40.8356        0.0000   0.0000      -0.000   -0.000   -0.000
@ --------------------------------------------------------------------------


          Bethe sum rule                   
          --------------

  Q value      X Component    Y Component    Z Component
  ------------------------------------------------------
 LQ=   0 QMAX= 0.000     QMIN= 0.000     QSTEP= 0.000    


          Stopping Power                 
          --------------

  Velocity     X Component    Y Component    Z Component
  ------------------------------------------------


   Interatomic separations (in Angstrom):
   --------------------------------------

            O           H   _1      H   _2
            ------      ------      ------
 O     :    0.000000
 H   _1:    0.958391    0.000000
 H   _2:    0.958391    1.515066    0.000000


  Max    interatomic separation is    1.5151 Angstrom (    2.8631 Bohr)
  between atoms    3 and    2, "H   _2" and "H   _1".

  Min HX interatomic separation is    0.9584 Angstrom (    1.8111 Bohr)


  Bond distances (Angstrom):
  --------------------------

                  atom 1     atom 2       distance
                  ------     ------       --------
  bond distance:  H   _1     O            0.958391
  bond distance:  H   _2     O            0.958391


  Bond angles (degrees):
  ----------------------

                  atom 1     atom 2     atom 3         angle
                  ------     ------     ------         -----
  bond angle:     H   _1     O          H   _2       104.450




 CPU time statistics for ABACUS
 ------------------------------

 EXCITA     00:00:22     100 %

 TOTAL      00:00:22     100 %


  Total CPU  time used in ABACUS:  22.24 seconds
  Total wall time used in ABACUS:  22.22 seconds


                   .-------------------------------------------.
                   | End of Static Property Section (ABACUS) - |
                   `-------------------------------------------'

  Total CPU  time used in DALTON:  23.50 seconds
  Total wall time used in DALTON:  23.49 seconds

 
     Date and time (Linux)  : Fri Aug 12 11:36:37 2016
     Host name              : spasnode101                             
