

     ************************************************************************
     *************** Dalton - An Electronic Structure Program ***************
     ************************************************************************

    This is output from DALTON (Release Dalton2013 patch 0)
   ----------------------------------------------------------------------------
    NOTE:
     
    Dalton is an experimental code for the evaluation of molecular
    properties using (MC)SCF, DFT, CI, and CC wave functions.
    The authors accept no responsibility for the performance of
    the code or for the correctness of the results.
     
    The code (in whole or part) is provided under a licence and
    is not to be reproduced for further distribution without
    the written permission of the authors or their representatives.
     
    See the home page "http://daltonprogram.org" for further information.
     
    If results obtained with this code are published,
    the appropriate citations would be both of:
     
       K. Aidas, C. Angeli, K. L. Bak, V. Bakken, R. Bast,
       L. Boman, O. Christiansen, R. Cimiraglia, S. Coriani,
       P. Dahle, E. K. Dalskov, U. Ekstroem, T. Enevoldsen,
       J. J. Eriksen, P. Ettenhuber, B. Fernandez, L. Ferrighi,
       H. Fliegl, L. Frediani, K. Hald, A. Halkier, C. Haettig,
       H. Heiberg, T. Helgaker, A. C. Hennum, H. Hettema,
       E. Hjertenaes, S. Hoest, I.-M. Hoeyvik, M. F. Iozzi,
       B. Jansik, H. J. Aa. Jensen, D. Jonsson, P. Joergensen,
       J. Kauczor, S. Kirpekar, T. Kjaergaard, W. Klopper,
       S. Knecht, R. Kobayashi, H. Koch, J. Kongsted, A. Krapp,
       K. Kristensen, A. Ligabue, O. B. Lutnaes, J. I. Melo,
       K. V. Mikkelsen, R. H. Myhre, C. Neiss, C. B. Nielsen,
       P. Norman, J. Olsen, J. M. H. Olsen, A. Osted,
       M. J. Packer, F. Pawlowski, T. B. Pedersen, P. F. Provasi,
       S. Reine, Z. Rinkevicius, T. A. Ruden, K. Ruud, V. Rybkin,
       P. Salek, C. C. M. Samson, A. Sanchez de Meras, T. Saue,
       S. P. A. Sauer, B. Schimmelpfennig, K. Sneskov,
       A. H. Steindal, K. O. Sylvester-Hvid, P. R. Taylor,
       A. M. Teale, E. I. Tellgren, D. P. Tew, A. J. Thorvaldsen,
       L. Thoegersen, O. Vahtras, M. A. Watson, D. J. D. Wilson,
       M. Ziolkowski and H. Agren.
       The Dalton quantum chemistry program system.
       WIREs Comput. Mol. Sci. 2013. doi: 10.1002/wcms.1172
    
    and
    
       Dalton, a Molecular Electronic Structure Program,
       Release DALTON2013.0 (2013), see http://daltonprogram.org
   ----------------------------------------------------------------------------

    Authors in alphabetical order (major contribution(s) in parenthesis):

  Kestutis Aidas,           Vilnius University,           Lithuania   (QM/MM)
  Celestino Angeli,         University of Ferrara,        Italy       (NEVPT2)
  Keld L. Bak,              UNI-C,                        Denmark     (AOSOPPA, non-adiabatic coupling, magnetic properties)
  Vebjoern Bakken,          University of Oslo,           Norway      (DALTON; geometry optimizer, symmetry detection)
  Radovan Bast,             KTH Stockholm                 Sweden      (DALTON installation and execution frameworks)
  Linus Boman,              NTNU,                         Norway      (Cholesky decomposition and subsystems)
  Ove Christiansen,         Aarhus University,            Denmark     (CC module)
  Renzo Cimiraglia,         University of Ferrara,        Italy       (NEVPT2)
  Sonia Coriani,            University of Trieste,        Italy       (CC module, MCD in RESPONS)
  Paal Dahle,               University of Oslo,           Norway      (Parallelization)
  Erik K. Dalskov,          UNI-C,                        Denmark     (SOPPA)
  Thomas Enevoldsen,        Univ. of Southern Denmark,    Denmark     (SOPPA)
  Janus J. Eriksen,         Aarhus University,            Denmark     (PE-MP2/SOPPA, TDA)
  Berta Fernandez,          U. of Santiago de Compostela, Spain       (doublet spin, ESR in RESPONS)
  Lara Ferrighi,            Aarhus University,            Denmark     (PCM Cubic response)
  Heike Fliegl,             University of Oslo,           Norway      (CCSD(R12))
  Luca Frediani,            UiT The Arctic U. of Norway,  Norway      (PCM)
  Bin Gao,                  UiT The Arctic U. of Norway,  Norway      (Gen1Int library)
  Christof Haettig,         Ruhr-University Bochum,       Germany     (CC module)
  Kasper Hald,              Aarhus University,            Denmark     (CC module)
  Asger Halkier,            Aarhus University,            Denmark     (CC module)
  Hanne Heiberg,            University of Oslo,           Norway      (geometry analysis, selected one-electron integrals)
  Trygve Helgaker,          University of Oslo,           Norway      (DALTON; ABACUS, ERI, DFT modules, London, and much more)
  Alf Christian Hennum,     University of Oslo,           Norway      (Parity violation)
  Hinne Hettema,            University of Auckland,       New Zealand (quadratic response in RESPONS; SIRIUS supersymmetry)
  Eirik Hjertenaes,         NTNU,                         Norway      (Cholesky decomposition)
  Maria Francesca Iozzi,    University of Oslo,           Norway      (RPA)
  Brano Jansik              Technical Univ. of Ostrava    Czech Rep.  (DFT cubic response)
  Hans Joergen Aa. Jensen,  Univ. of Southern Denmark,    Denmark     (DALTON; SIRIUS, RESPONS, ABACUS modules, London, and much more)
  Dan Jonsson,              UiT The Arctic U. of Norway,  Norway      (cubic response in RESPONS module)
  Poul Joergensen,          Aarhus University,            Denmark     (RESPONS, ABACUS, and CC modules)
  Joanna Kauczor,           Linkoeping University,        Sweden      (Complex polarization propagator (CPP) module)
  Sheela Kirpekar,          Univ. of Southern Denmark,    Denmark     (Mass-velocity & Darwin integrals)
  Wim Klopper,              KIT Karlsruhe,                Germany     (R12 code in CC, SIRIUS, and ABACUS modules)
  Stefan Knecht,            ETH Zurich,                   Switzerland (Parallel CI and MCSCF)
  Rika Kobayashi,           Australian National Univ.,    Australia   (DIIS in CC, London in MCSCF)
  Henrik Koch,              NTNU,                         Norway      (CC module, Cholesky decomposition)
  Jacob Kongsted,           Univ. of Southern Denmark,    Denmark     (Polarizable embedding, QM/MM)
  Andrea Ligabue,           University of Modena,         Italy       (CTOCD, AOSOPPA)
  Ola B. Lutnaes,           University of Oslo,           Norway      (DFT Hessian)
  Juan I. Melo,             University of Buenos Aires,   Argentina   (LRESC, Relativistic Effects on NMR Shieldings)
  Kurt V. Mikkelsen,        University of Copenhagen,     Denmark     (MC-SCRF and QM/MM)
  Rolf H. Myhre,            NTNU,                         Norway      (Cholesky, subsystems and ECC2)
  Christian Neiss,          Univ. Erlangen-Nuernberg,     Germany     (CCSD(R12))
  Christian B. Nielsen,     University of Copenhagen,     Denmark     (QM/MM)
  Patrick Norman,           Linkoeping University,        Sweden      (Cubic response and complex response in RESPONS)
  Jeppe Olsen,              Aarhus University,            Denmark     (SIRIUS CI/density modules)
  Jogvan Magnus H. Olsen,   Univ. of Southern Denmark,    Denmark     (Polarizable embedding, PE library, QM/MM)
  Anders Osted,             Copenhagen University,        Denmark     (QM/MM)
  Martin J. Packer,         University of Sheffield,      UK          (SOPPA)
  Filip Pawlowski,          Kazimierz Wielki University   Poland      (CC3)
  Thomas B. Pedersen,       University of Oslo,           Norway      (Cholesky decomposition)
  Patricio F. Provasi,      University of Northeastern,   Argentina   (Analysis of coupling constants in localized orbitals)
  Zilvinas Rinkevicius,     KTH Stockholm,                Sweden      (open-shell DFT, ESR)
  Elias Rudberg,            KTH Stockholm,                Sweden      (DFT grid and basis info)
  Torgeir A. Ruden,         University of Oslo,           Norway      (Numerical derivatives in ABACUS)
  Kenneth Ruud,             UiT The Arctic U. of Norway,  Norway      (DALTON; ABACUS magnetic properties and  much more)
  Pawel Salek,              KTH Stockholm,                Sweden      (DALTON; DFT code)
  Claire C. M. Samson       University of Karlsruhe       Germany     (Boys localization, r12 integrals in ERI)
  Alfredo Sanchez de Meras, University of Valencia,       Spain       (CC module, Cholesky decomposition)
  Trond Saue,               Paul Sabatier University,     France      (direct Fock matrix construction)
  Stephan P. A. Sauer,      University of Copenhagen,     Denmark     (SOPPA(CCSD), SOPPA prop., AOSOPPA, vibrational g-factors)
  Bernd Schimmelpfennig,    Forschungszentrum Karlsruhe,  Germany     (AMFI module)
  Kristian Sneskov,         Aarhus University,            Denmark     (QM/MM, PE-CC)
  Arnfinn H. Steindal,      UiT The Arctic U. of Norway,  Norway      (parallel QM/MM)
  K. O. Sylvester-Hvid,     University of Copenhagen,     Denmark     (MC-SCRF)
  Peter R. Taylor,          VLSCI/Univ. of Melbourne,     Australia   (Symmetry handling ABACUS, integral transformation)
  Andrew M. Teale,          University of Nottingham,     England     (DFT-AC, DFT-D)
  David P. Tew,             University of Bristol,        England     (CCSD(R12))
  Olav Vahtras,             KTH Stockholm,                Sweden      (triplet response, spin-orbit, ESR, TDDFT, open-shell DFT)
  David J. Wilson,          La Trobe University,          Australia   (DFT Hessian and DFT magnetizabilities)
  Hans Agren,               KTH Stockholm,                Sweden      (SIRIUS module, RESPONS, MC-SCRF solvation model)
 --------------------------------------------------------------------------------

     Date and time (Linux)  : Sun Sep  8 20:42:32 2013
     Host name              : lpqlx131.ups-tlse.fr                    

 * Work memory size             :    64000000 =  488.28 megabytes.

 * Directories for basis set searches:
   1) /home/bast/DALTON-2013.0-Source/build/test_cc_rsp_ctocd
   2) /home/bast/DALTON-2013.0-Source/build/basis


Compilation information
-----------------------

 Who compiled             | bast
 Host                     | lpqlx131.ups-tlse.fr
 System                   | Linux-3.8.5-201.fc18.x86_64
 CMake generator          | Unix Makefiles
 Processor                | x86_64
 64-bit integers          | OFF
 MPI                      | OFF
 Fortran compiler         | /usr/bin/gfortran
 Fortran compiler version | GNU Fortran (GCC) 4.7.2 20121109 (Red Hat 4.7.2-8)
 C compiler               | /usr/bin/gcc
 C compiler version       | gcc (GCC) 4.7.2 20121109 (Red Hat 4.7.2-8)
 C++ compiler             | /usr/bin/g++
 C++ compiler version     | g++ (GCC) 4.7.2 20121109 (Red Hat 4.7.2-8)
 Static linking           | OFF
 Last Git revision        | f34203295a86316e27f9e7b44f9b6769c4a046c0
 Configuration time       | 2013-09-08 20:31:27.952056


   Content of the .dal input file
 ----------------------------------

**DALTON INPUT                                    
.RUN WAVE FUNCTIONS                               
**INTEGRAL                                        
.RPSO                                             
.DIPVEL                                           
.DIPLEN                                           
**WAVE FUNCTIONS                                  
.CC                                               
*SCF INPUT                                        
.THRESH                                           
 1.0d-12                                          
*CC INPUT                                         
.CCS                                              
.CCSD                                             
.THRENR                                           
 1.0d-8                                           
.THRLEQ                                           
 1.0d-8                                           
*CCLR                                             
.OPERAT                                           
YDIPVEL 001RPSOZ                                  
ZDIPVEL 001RPSOY                                  
ZDIPVEL 002RPSOX                                  
XDIPVEL 002RPSOZ                                  
XDIPVEL 003RPSOY                                  
YDIPVEL 003RPSOX                                  
YDIPVEL 004RPSOZ                                  
ZDIPVEL 004RPSOY                                  
ZDIPVEL 005RPSOX                                  
XDIPVEL 005RPSOZ                                  
XDIPVEL 006RPSOY                                  
YDIPVEL 006RPSOX                                  
*CCQR                                             
.OPERAT                                           
ZDIPLEN YDIPVEL 001RPSOZ                          
ZDIPLEN ZDIPVEL 001RPSOY                          
ZDIPLEN YDIPVEL 004RPSOZ                          
ZDIPLEN ZDIPVEL 004RPSOY                          
ZDIPLEN XDIPVEL 003RPSOY                          
ZDIPLEN YDIPVEL 003RPSOX                          
ZDIPLEN XDIPVEL 006RPSOY                          
ZDIPLEN YDIPVEL 006RPSOX                          
**END OF DALTON INPUT                             


   Content of the .mol file
 ----------------------------

BASIS                                                                          
6-31G**                                                                        
Hydrogen flourid                                                               
small test basis                                                               
    2    0  Y         1.00D-15                                                 
        9.0   1                                                                
F     0.0000000000000000  0.0000000000000000 1.76320000000000000               
        1.0   1                                                                
H     0.0000000000000000  0.0000000000000000 0.00000000000000000               


       *******************************************************************
       *********** Output from DALTON general input processing ***********
       *******************************************************************

 --------------------------------------------------------------------------------
   Overall default print level:    0
   Print level for DALTON.STAT:    1

    HERMIT 1- and 2-electron integral sections will be executed
    "Old" integral transformation used (limited to max 255 basis functions)
    Wave function sections will be executed (SIRIUS module)
 --------------------------------------------------------------------------------


   ****************************************************************************
   *************** Output of molecule and basis set information ***************
   ****************************************************************************


    The two title cards from your ".mol" input:
    ------------------------------------------------------------------------
 1: Hydrogen flourid                                                        
 2: small test basis                                                        
    ------------------------------------------------------------------------

  Atomic type no.    1
  --------------------
  Nuclear charge:   9.00000
  Number of symmetry independent centers:    1
  Number of basis sets to read;    2
  Basis set file used for this atomic type with Z =   9 :
     "/home/bast/DALTON-2013.0-Source/build/basis/6-31G**"

  Info about the basis set file: your basis has no documentation.
  Basis set: 6-31G**                                                                         

  Atomic type no.    2
  --------------------
  Nuclear charge:   1.00000
  Number of symmetry independent centers:    1
  Number of basis sets to read;    2
  Basis set file used for this atomic type with Z =   1 :
     "/home/bast/DALTON-2013.0-Source/build/basis/6-31G**"

  Info about the basis set file: your basis has no documentation.
  Basis set: 6-31G**                                                                         


                         SYMGRP: Point group information
                         -------------------------------

Point group: C1 


                                 Isotopic Masses
                                 ---------------

                           F          18.998403
                           H           1.007825

                       Total mass:    20.006228 amu
                       Natural abundance:  99.985 %

 Center-of-mass coordinates (a.u.):    0.000000    0.000000    1.674378


  Atoms and basis sets
  --------------------

  Number of atom types :    2
  Total number of atoms:    2

  Basis set used is "6-31G**" from the basis set library.

  label    atoms   charge   prim   cont     basis
  ----------------------------------------------------------------------
  F           1    9.0000    27    14      [10s4p1d|3s2p1d]                                   
  H           1    1.0000     7     5      [4s1p|2s1p]                                        
  ----------------------------------------------------------------------
  total:      2   10.0000    34    19
  ----------------------------------------------------------------------
  Spherical harmonic basis used.

  Threshold for neglecting AO integrals:  1.00D-15


  Cartesian Coordinates (a.u.)
  ----------------------------

  Total number of coordinates:    6
  F       :     1  x   0.0000000000    2  y   0.0000000000    3  z   1.7632000000
  H       :     4  x   0.0000000000    5  y   0.0000000000    6  z   0.0000000000


   Interatomic separations (in Angstrom):
   --------------------------------------

            F           H     
            ------      ------
 F     :    0.000000
 H     :    0.933045    0.000000


  Max    interatomic separation is    0.9330 Angstrom (    1.7632 Bohr)
  between atoms    2 and    1, "H     " and "F     ".

  Min HX interatomic separation is    0.9330 Angstrom (    1.7632 Bohr)


  Bond distances (Angstrom):
  --------------------------

                  atom 1     atom 2       distance
                  ------     ------       --------
  bond distance:  H          F            0.933045




 Principal moments of inertia (u*A**2) and principal axes
 --------------------------------------------------------

   IA       0.000000          0.000000    0.000000    1.000000
   IB       0.833187          0.000000    1.000000    0.000000
   IC       0.833187          1.000000    0.000000    0.000000


 Rotational constants
 --------------------

 The molecule is linear.

               B =       606561.40 MHz     (   20.232710 cm-1)


@  Nuclear repulsion energy :    5.104355716878 Hartree


                     .---------------------------------------.
                     | Starting in Integral Section (HERMIT) |
                     `---------------------------------------'



    *************************************************************************
    ****************** Output from HERMIT input processing ******************
    *************************************************************************


 Default print level:        1

 * Nuclear model: Point charge

 Calculation of one- and two-electron Hamiltonian integrals.

 The following one-electron property integrals are calculated as requested:
          - overlap integrals
          - dipole length integrals
          - dipole velocity integrals
          - CTOCD-DZ diamagnetic shielding integrals

 Center of mass  (bohr):      0.000000000000      0.000000000000      1.674377807231
 Operator center (bohr):      0.000000000000      0.000000000000      0.000000000000
 Gauge origin    (bohr):      0.000000000000      0.000000000000      0.000000000000
 Dipole origin   (bohr):      0.000000000000      0.000000000000      0.000000000000

 Integrals for all indirect spin-spin coupling and/or shielding tensors are calculated.


     ************************************************************************
     ************************** Output from HERINT **************************
     ************************************************************************


 Threshold for neglecting two-electron integrals:  1.00D-15
 Number of two-electron integrals written:        4125 ( 22.7% )
 Megabytes written:                              0.048

 >>>> Total CPU  time used in HERMIT:   0.02 seconds
 >>>> Total wall time used in HERMIT:   0.02 seconds


                        .----------------------------------.
                        | End of Integral Section (HERMIT) |
                        `----------------------------------'



                   .--------------------------------------------.
                   | Starting in Wave Function Section (SIRIUS) |
                   `--------------------------------------------'


 *** Output from Huckel module :

     Using EWMO model:          T
     Using EHT  model:          F
     Number of Huckel orbitals each symmetry:    6

 EWMO - Energy Weighted Maximum Overlap - is a Huckel type method,
        which normally is better than Extended Huckel Theory.
 Reference: Linderberg and Ohrn, Propagators in Quantum Chemistry (Wiley, 1973)

 Huckel EWMO eigenvalues for symmetry :  1
          -26.384238      -1.721955      -0.830116      -0.730000      -0.730000
           -0.248892

 **********************************************************************
 *SIRIUS* a direct, restricted step, second order MCSCF program       *
 **********************************************************************

 
     Date and time (Linux)  : Sun Sep  8 20:42:32 2013
     Host name              : lpqlx131.ups-tlse.fr                    

 Title lines from ".mol" input file:
     Hydrogen flourid                                                        
     small test basis                                                        

 Print level on unit LUPRI =   2 is   0
 Print level on unit LUW4  =   2 is   5

@    (Integral direct) CC calculation.

@    This is a combination run starting with
@              a restricted, closed shell Hartree-Fock calculation


 Initial molecular orbitals are obtained according to
 ".MOSTART EWMO  " input option

     Wave function specification
     ============================

     For the specification of the Coupled Cluster: see later.

@    For the wave function of type :      >>> CC <<<
@    Number of closed shell electrons          10
@    Number of electrons in active shells       0
@    Total charge of the molecule               0

@    Spin multiplicity and 2 M_S                1         0
     Total number of symmetries                 1
@    Reference state symmetry                   1

     Orbital specifications
     ======================
     Abelian symmetry species          All |    1
                                       --- |  ---
@    Occupied SCF orbitals               5 |    5
     Secondary orbitals                 14 |   14
     Total number of orbitals           19 |   19
     Number of basis functions          19 |   19

     Optimization information
     ========================
@    Number of configurations                 1
@    Number of orbital rotations             70
     ------------------------------------------
@    Total number of variables               71

     Maximum number of Fock   iterations      0
     Maximum number of DIIS   iterations     60
     Maximum number of QC-SCF iterations     60
     Threshold for SCF convergence     1.00D-12


 Changes of defaults for CC:
 ---------------------------

 -Linear response properties calculated
 -Quadratic response properties calculated
  


 >>>>> DIIS optimization of Hartree-Fock <<<<<

 C1-DIIS algorithm; max error vectors =   10

 Iter      Total energy        Error norm    Delta(E)  DIIS dim.
 -----------------------------------------------------------------------------
     (Precalculated two-electron integrals are transformed to P-supermatrix elements.
      Threshold for discarding integrals :  1.00D-15 )
@  1    -99.9159496472        1.29322D+00   -9.99D+01    1
      Virial theorem: -V/T =      1.997399
@      MULPOP F      -0.44; H       0.44; 
 -----------------------------------------------------------------------------
@  2    -100.006061881        2.26214D-01   -9.01D-02    2
      Virial theorem: -V/T =      2.002657
@      MULPOP F      -0.38; H       0.38; 
 -----------------------------------------------------------------------------
@  3    -100.008563846        8.51422D-02   -2.50D-03    3
      Virial theorem: -V/T =      1.999075
@      MULPOP F      -0.41; H       0.41; 
 -----------------------------------------------------------------------------
@  4    -100.008886254        2.15186D-02   -3.22D-04    4
      Virial theorem: -V/T =      2.000623
@      MULPOP F      -0.41; H       0.41; 
 -----------------------------------------------------------------------------
@  5    -100.008918307        3.55901D-03   -3.21D-05    5
      Virial theorem: -V/T =      2.000296
@      MULPOP F      -0.42; H       0.42; 
 -----------------------------------------------------------------------------
@  6    -100.008919840        7.37359D-04   -1.53D-06    6
      Virial theorem: -V/T =      2.000320
@      MULPOP F      -0.42; H       0.42; 
 -----------------------------------------------------------------------------
@  7    -100.008919896        5.24732D-05   -5.51D-08    7
      Virial theorem: -V/T =      2.000327
@      MULPOP F      -0.42; H       0.42; 
 -----------------------------------------------------------------------------
@  8    -100.008919896        4.65583D-06   -2.57D-10    8
      Virial theorem: -V/T =      2.000326
@      MULPOP F      -0.42; H       0.42; 
 -----------------------------------------------------------------------------
@  9    -100.008919896        4.38983D-07   -1.15D-12    9
      Virial theorem: -V/T =      2.000327
@      MULPOP F      -0.42; H       0.42; 
 -----------------------------------------------------------------------------
@ 10    -100.008919896        2.49077D-08   -9.95D-14   10
      Virial theorem: -V/T =      2.000327
@      MULPOP F      -0.42; H       0.42; 
 -----------------------------------------------------------------------------
@ 11    -100.008919896        2.55845D-09    0.00D+00   10
      Virial theorem: -V/T =      2.000327
@      MULPOP F      -0.42; H       0.42; 
 -----------------------------------------------------------------------------
@ 12    -100.008919896        6.65720D-11    1.14D-13   10
      Virial theorem: -V/T =      2.000327
@      MULPOP F      -0.42; H       0.42; 
 -----------------------------------------------------------------------------
@ 13    -100.008919896        8.92933D-12   -1.14D-13   10
      Virial theorem: -V/T =      2.000327
@      MULPOP F      -0.42; H       0.42; 
 -----------------------------------------------------------------------------
@ 14    -100.008919896        3.43268D-13    2.84D-14   10

@ *** DIIS converged in  14 iterations !
@     Converged SCF energy, gradient:   -100.008919895850    3.43D-13
    - total time used in SIRFCK :              0.00 seconds


 *** SCF orbital energy analysis ***

 Only the five lowest virtual orbital energies printed in each symmetry.

 Number of electrons :   10
 Orbital occupations :    5

 Sym       Hartree-Fock orbital energies

  1    -26.27306629    -1.57292658    -0.73710501    -0.62549523    -0.62549523
         0.21639320     1.01969778     1.48848713     1.48848713     1.53899963

    E(LUMO) :     0.21639320 au (symmetry 1)
  - E(HOMO) :    -0.62549523 au (symmetry 1)
  ------------------------------------------
    gap     :     0.84188843 au

 >>> Writing SIRIFC interface file <<<

 >>>> CPU and wall time for SCF :       0.009       0.008


                       .-----------------------------------.
                       | >>> Final results from SIRIUS <<< |
                       `-----------------------------------'


@    Spin multiplicity:           1
@    Spatial symmetry:            1
@    Total charge of molecule:    0

@    Final HF energy:            -100.008919895850                 
@    Nuclear repulsion:             5.104355716878
@    Electronic energy:          -105.113275612729

@    Final gradient norm:           0.000000000000

 
     Date and time (Linux)  : Sun Sep  8 20:42:32 2013
     Host name              : lpqlx131.ups-tlse.fr                    

 (Only coefficients >0.0100 are printed.)

 Molecular orbitals for symmetry species  1
 ------------------------------------------

    Orbital         1        2        3        4        5        6        7
   1 F   :1s    -0.9955  -0.2308  -0.0555   0.0000  -0.0000   0.0644   0.0183
   2 F   :1s    -0.0212   0.5025   0.1234  -0.0000   0.0000  -0.0741  -0.1606
   3 F   :1s     0.0052   0.5082   0.2358  -0.0000   0.0000  -0.7503   0.3606
   4 F   :2px   -0.0000   0.0000   0.0000   0.6586   0.0157  -0.0000   0.0000
   5 F   :2py    0.0000  -0.0000  -0.0000  -0.0157   0.6586   0.0000  -0.0000
   6 F   :2pz    0.0013  -0.0602   0.5496  -0.0000   0.0000   0.2591   0.3919
   7 F   :2px   -0.0000   0.0000   0.0000   0.4858   0.0116  -0.0000   0.0000
   8 F   :2py    0.0000  -0.0000  -0.0000  -0.0116   0.4858   0.0000  -0.0000
   9 F   :2pz   -0.0009  -0.0224   0.3522  -0.0000   0.0000   0.4759  -0.1052
  11 F   :3d1-  -0.0000   0.0000   0.0000   0.0005  -0.0223  -0.0000   0.0000
  12 F   :3d0    0.0000   0.0013  -0.0237   0.0000  -0.0000  -0.0259   0.2926
  13 F   :3d1+  -0.0000  -0.0000  -0.0000  -0.0223  -0.0005   0.0000  -0.0000
  15 H   :1s    -0.0001   0.1311  -0.2709   0.0000  -0.0000   0.1124   0.9672
  16 H   :1s    -0.0013   0.0073  -0.1255   0.0000  -0.0000   1.3668  -0.9276
  17 H   :2px    0.0000  -0.0000  -0.0000   0.0198   0.0005   0.0000  -0.0000
  18 H   :2py    0.0000   0.0000   0.0000  -0.0005   0.0198  -0.0000   0.0000
  19 H   :2pz    0.0006   0.0312  -0.0288   0.0000  -0.0000   0.0206  -0.2828



 >>>> Total CPU  time used in SIRIUS :      0.01 seconds
 >>>> Total wall time used in SIRIUS :      0.01 seconds

 
     Date and time (Linux)  : Sun Sep  8 20:42:32 2013
     Host name              : lpqlx131.ups-tlse.fr                    


                     .---------------------------------------.
                     | End of Wave Function Section (SIRIUS) |
                     `---------------------------------------'



                    .------------------------------------------.
                    | Starting in Coupled Cluster Section (CC) |
                    `------------------------------------------'

  

 *******************************************************************************
 *******************************************************************************
 *                                                                             *
 *                                                                             *
 *                    START OF COUPLED CLUSTER CALCULATION                     *
 *                                                                             *
 *                                                                             *
 *******************************************************************************
 *******************************************************************************



 CCR12 ANSATZ =   0

 CCR12 APPROX =   0

   

 *******************************************************************
 *                                                                 *
 *<<<<<<<<<<                                             >>>>>>>>>>*
 *<<<<<<<<<< OUTPUT FROM COUPLED CLUSTER ENERGY PROGRAM  >>>>>>>>>>*
 *<<<<<<<<<<                                             >>>>>>>>>>*
 *                                                                 *
 *******************************************************************


             The Direct Coupled Cluster Energy Program
             -----------------------------------------


          Number of t1 amplitudes                 :        70
          Number of t2 amplitudes                 :      2485
          Total number of amplitudes in ccsd      :      2555



          CCS CALC. - NO WAVEFUNCTION OPTIMIZATION
   

 *******************************************************************
 *                                                                 *
 *<<<<<<<<<<<<< OUTPUT FROM COUPLED CLUSTER RESPONSE  >>>>>>>>>>>>>*
 *                                                                 *
 *******************************************************************



                         +-------------------------------+
                         ! Coupled Cluster model is: CCS !
                         +-------------------------------+

  
     

   *******************************************************************
   *                                                                 *
   *<<<<<<<<   OUTPUT FROM PROPERTY AND SYMMETRY ANALYSIS   >>>>>>>>>*
   *                                                                 *
   *******************************************************************


  PUT TRIPLE: ZDIPLEN  YDIPVEL  001RPSOZ ON THE LIST.

  PUT TRIPLE: ZDIPLEN  ZDIPVEL  001RPSOY ON THE LIST.

  PUT TRIPLE: ZDIPLEN  YDIPVEL  004RPSOZ ON THE LIST.

  PUT TRIPLE: ZDIPLEN  ZDIPVEL  004RPSOY ON THE LIST.

  PUT TRIPLE: ZDIPLEN  XDIPVEL  003RPSOY ON THE LIST.

  PUT TRIPLE: ZDIPLEN  YDIPVEL  003RPSOX ON THE LIST.

  PUT TRIPLE: ZDIPLEN  XDIPVEL  006RPSOY ON THE LIST.

  PUT TRIPLE: ZDIPLEN  YDIPVEL  006RPSOX ON THE LIST.


                         +-------------------------------+
                         ! REQUESTED PROPERTY OPERATORS: !
                         +-------------------------------+

             Index   Oper. Label  Symmetry  Transp.  PDBS  Atom
             --------------------------------------------------
                1     001RPSOY        1        0      F      0
                2     001RPSOZ        1        0      F      0
                3     002RPSOX        1        0      F      0
                4     002RPSOZ        1        0      F      0
                5     003RPSOX        1        0      F      0
                6     003RPSOY        1        0      F      0
                7     004RPSOY        1        0      F      0
                8     004RPSOZ        1        0      F      0
                9     005RPSOX        1        0      F      0
               10     005RPSOZ        1        0      F      0
               11     006RPSOX        1        0      F      0
               12     006RPSOY        1        0      F      0
               13     HAM0            1        1      T      0
               14     XDIPVEL         1       -1      F      0
               15     YDIPVEL         1       -1      F      0
               16     ZDIPLEN         1        1      F      0
               17     ZDIPVEL         1       -1      F      0
             --------------------------------------------------




                         +-------------------------------+
                         ! REQUESTED EXPECTATION VALUES: !
                         +-------------------------------+

                       Index   Oper. Label  Symmetry
                       -----------------------------
                       -----------------------------




                       +------------------------------------+
                       ! REQUESTED EFFECTIVE FOCK MATRICES: !
                       +------------------------------------+

                       Index   Oper. Label  Symmetry
                       -----------------------------
                       -----------------------------




                       +-----------------------------------+
                       ! REQUESTED FIRST ORDER XI VECTORS: !
                       +-----------------------------------+

             Index   Oper. Label  relaxed  Sym.     Frequency
             --------------------------------------------------
                1      001RPSOY       F     1      0.000000D+00
                2      001RPSOZ       F     1      0.000000D+00
                3      002RPSOX       F     1      0.000000D+00
                4      002RPSOZ       F     1      0.000000D+00
                5      003RPSOX       F     1      0.000000D+00
                6      003RPSOY       F     1      0.000000D+00
                7      004RPSOY       F     1      0.000000D+00
                8      004RPSOZ       F     1      0.000000D+00
                9      005RPSOX       F     1      0.000000D+00
               10      005RPSOZ       F     1      0.000000D+00
               11      006RPSOX       F     1      0.000000D+00
               12      006RPSOY       F     1      0.000000D+00
               13      XDIPVEL        F     1      0.000000D+00
               14      YDIPVEL        F     1      0.000000D+00
               15      ZDIPLEN        F     1      0.000000D+00
               16      ZDIPVEL        F     1      0.000000D+00
             --------------------------------------------------




                        +----------------------------------+
                        ! REQUESTED FIRST ORDER T VECTORS: !
                        +----------------------------------+

             Index   Oper. Label  relaxed  Sym.     Frequency
             --------------------------------------------------
                1      001RPSOY       F     1      0.000000D+00
                2      001RPSOZ       F     1      0.000000D+00
                3      002RPSOX       F     1      0.000000D+00
                4      002RPSOZ       F     1      0.000000D+00
                5      003RPSOX       F     1      0.000000D+00
                6      003RPSOY       F     1      0.000000D+00
                7      004RPSOY       F     1      0.000000D+00
                8      004RPSOZ       F     1      0.000000D+00
                9      005RPSOX       F     1      0.000000D+00
               10      005RPSOZ       F     1      0.000000D+00
               11      006RPSOX       F     1      0.000000D+00
               12      006RPSOY       F     1      0.000000D+00
               13      XDIPVEL        F     1     -0.000000D+00
               14      YDIPVEL        F     1     -0.000000D+00
               15      ZDIPLEN        F     1     -0.000000D+00
               16      ZDIPVEL        F     1     -0.000000D+00
             --------------------------------------------------




                       +------------------------------------+
                       ! REQUESTED FIRST ORDER ETA VECTORS: !
                       +------------------------------------+

             Index   Oper. Label  relaxed  Sym.     Frequency
             --------------------------------------------------
                1      001RPSOY       F     1      0.000000D+00
                2      001RPSOZ       F     1      0.000000D+00
                3      003RPSOX       F     1      0.000000D+00
                4      003RPSOY       F     1      0.000000D+00
                5      004RPSOY       F     1      0.000000D+00
                6      004RPSOZ       F     1      0.000000D+00
                7      006RPSOX       F     1      0.000000D+00
                8      006RPSOY       F     1      0.000000D+00
                9      XDIPVEL        F     1      0.000000D+00
               10      YDIPVEL        F     1      0.000000D+00
               11      ZDIPLEN        F     1      0.000000D+00
               12      ZDIPVEL        F     1      0.000000D+00
             --------------------------------------------------




                      +-------------------------------------+
                      ! REQUESTED FIRST ORDER ZETA VECTORS: !
                      +-------------------------------------+

             Index   Oper. Label  relaxed  Sym.     Frequency
             --------------------------------------------------
                1      001RPSOY       F     1      0.000000D+00
                2      001RPSOZ       F     1      0.000000D+00
                3      003RPSOX       F     1      0.000000D+00
                4      003RPSOY       F     1      0.000000D+00
                5      004RPSOY       F     1      0.000000D+00
                6      004RPSOZ       F     1      0.000000D+00
                7      006RPSOX       F     1      0.000000D+00
                8      006RPSOY       F     1      0.000000D+00
                9      XDIPVEL        F     1      0.000000D+00
               10      YDIPVEL        F     1      0.000000D+00
               11      ZDIPLEN        F     1     -0.000000D+00
               12      ZDIPVEL        F     1      0.000000D+00
             --------------------------------------------------


      

    *******************************************************************
    *          SOLVING COUPLED CLUSTER RESPONSE EQUATIONS             *
    *******************************************************************



 
 +======================================================================+
 !                     RHS & ETA VECTORS TO COMPUTE:                    !
 +======================================================================+
 | TYPE | # VEC. |  NEEDED FOR:                                         |
 +----------------------------------------------------------------------+
 |  O1  |   16   |  first-order amplitude equations                     |
 |  X1  |   12   |  first-order multipliers equations                   |
 +======================================================================+



 +======================================================================+
 !                       LINEAR EQUATIONS TO SOLVE:                     !
 +======================================================================+
 | TYPE | # VEC. |  EQUATION:                                           |
 +----------------------------------------------------------------------+
 |  R1  |   16   |  first-order amplitude response                      |
 |  L1  |   12   |  first-order multiplier response                     |
 +======================================================================+



 +======================================================================+
 !                F MATRIX TRANSFORMATIONS TO COMPUTE:                  !
 +======================================================================+
 | TYPE | # VEC. |  TRANSFORMED:                                        |
 +----------------------------------------------------------------------+
 |  F1  |   16   |  first-order amplitude response (R1) vector          |
 +======================================================================+




 -------------------------------------------------------------------
 |          OUTPUT FROM AMPLITUDE RHS VECTOR SECTION               |
 -------------------------------------------------------------------

@ WARNING: ETA1 VECTOR FOR 002RPSOX( F, 0.00000D+00) IS NOT AVAILABLE.
@ WARNING: ETA1 VECTOR FOR 002RPSOZ( F, 0.00000D+00) IS NOT AVAILABLE.
@ WARNING: ETA1 VECTOR FOR 005RPSOX( F, 0.00000D+00) IS NOT AVAILABLE.
@ WARNING: ETA1 VECTOR FOR 005RPSOZ( F, 0.00000D+00) IS NOT AVAILABLE.


   For the requested 16 1th.-order amplitude rhs vectors "O1 ".
         -   0 D matrix transformations 
         -   0 C matrix transformations 
         -   0 B matrix transformations 
         -   0 C{O} matrix transformations 
         -   0 B{O} matrix transformations 
         -   0 A{O} matrix transformations 
         -  16Xi{O} vector calculations    
   will be performed.


 RPA: call cceq_str
 RPA: exit cceq_str
 RPA: call cceq_str
 RPA: exit cceq_str

 Solution of CC response equations completed.


 *******************************************************************
 *                                                                 *
 *<<<<<<<<  OUTPUT FROM COUPLED CLUSTER LINEAR RESPONSE   >>>>>>>>>*
 *                                                                 *
 *<<<<<<<<     CALCULATION OF SECOND ORDER PROPERTIES     >>>>>>>>>*
 *                                                                 *
 *******************************************************************

 


   For the requested 12 second-order properties
         -   3 F matrix transformations with R1 vectors
         -   0 J matrix transformations with L1 vectors
         -  15 ETA and XKSI vector calculations 
         -   0 X intermediate calculations 
         -   0 2. order reortho./relax. contributions
   will be performed.



>>> Time used for    3 F matrix transformations:        0.00 seconds.

>>> Time used for   15 O1/X1 vector calculation:        0.00 seconds.

>>> Total time for  12 linear response function:        0.01 seconds.


             +--------------------------------------------------------+
             !      FINAL CCS RESULTS FOR THE SECOND-ORDER PROPERTIES !
             +--------------------------------------------------------+


  A operator                  B operator                     property 
------------------------------------------------------------------------

 Cannot determine if real or imaginary property...   print: symmetric (antisymmetric) parts in +/- w
 YDIPVEL  (unrel.) -0.0000   001RPSOZ (unrel.)  0.0000     -2.265880495     (  -0.000000000    )

 Cannot determine if real or imaginary property...   print: symmetric (antisymmetric) parts in +/- w
 ZDIPVEL  (unrel.) -0.0000   001RPSOY (unrel.)  0.0000     -2.334421854     (  -0.000000000    )

 Cannot determine if real or imaginary property...   print: symmetric (antisymmetric) parts in +/- w
 ZDIPVEL  (unrel.) -0.0000   002RPSOX (unrel.)  0.0000      2.334421854     (  -0.000000000    )

 Cannot determine if real or imaginary property...   print: symmetric (antisymmetric) parts in +/- w
 XDIPVEL  (unrel.) -0.0000   002RPSOZ (unrel.)  0.0000      2.265880495     (  -0.000000000    )

 Cannot determine if real or imaginary property...   print: symmetric (antisymmetric) parts in +/- w
 XDIPVEL  (unrel.) -0.0000   003RPSOY (unrel.)  0.0000      2.222990914     (  -0.000000000    )

 Cannot determine if real or imaginary property...   print: symmetric (antisymmetric) parts in +/- w
 YDIPVEL  (unrel.) -0.0000   003RPSOX (unrel.)  0.0000     -2.222990914     (  -0.000000000    )

 Cannot determine if real or imaginary property...   print: symmetric (antisymmetric) parts in +/- w
 YDIPVEL  (unrel.) -0.0000   004RPSOZ (unrel.)  0.0000      2.469724380     (  -0.000000000    )

 Cannot determine if real or imaginary property...   print: symmetric (antisymmetric) parts in +/- w
 ZDIPVEL  (unrel.) -0.0000   004RPSOY (unrel.)  0.0000    -0.6134537347     (  -0.000000000    )

 Cannot determine if real or imaginary property...   print: symmetric (antisymmetric) parts in +/- w
 ZDIPVEL  (unrel.) -0.0000   005RPSOX (unrel.)  0.0000     0.6134537347     (  -0.000000000    )

 Cannot determine if real or imaginary property...   print: symmetric (antisymmetric) parts in +/- w
 XDIPVEL  (unrel.) -0.0000   005RPSOZ (unrel.)  0.0000     -2.469724380     (  -0.000000000    )

 Cannot determine if real or imaginary property...   print: symmetric (antisymmetric) parts in +/- w
 XDIPVEL  (unrel.) -0.0000   006RPSOY (unrel.)  0.0000     0.5540661389     (  -0.000000000    )

 Cannot determine if real or imaginary property...   print: symmetric (antisymmetric) parts in +/- w
 YDIPVEL  (unrel.) -0.0000   006RPSOX (unrel.)  0.0000    -0.5540661389     (  -0.000000000    )
------------------------------------------------------------------------



 *******************************************************************
 *                                                                 *
 *<<<<<<<< OUTPUT FROM COUPLED CLUSTER QUADRATIC RESPONSE >>>>>>>>>*
 *                                                                 *
 *<<<<<<<<     CALCULATION OF CC HYPERPOLARIZABILITIES    >>>>>>>>>*
 *                                                                 *
 *******************************************************************



   For the requested  8 quadratic response functions 
         -   3 G matrix transformations 
         -  19 B matrix transformations 
         -   0 K matrix transformations 
         -   0 F matrix transformations 
         -  19 F{O} matrix transformations 
         -  38 ETA{O} vector calculations 
         -   0 Xksi{O2} x L1 and Eta{O2} x R1 dot products
         -   0 X1 x R2 dot products 
   will be performed.


 +--------------------------------------------------+
 | total time for   3 G transforms.:      0.00 secs.|
 +==================================================+



>>> Time used for    3 G matrix transformations:        0.00 seconds.
 +--------------------------------------------------+
 | total time for  19 B transforms.:      0.01 secs.|
 +==================================================+



>>> Time used for   19 B matrix transformations:        0.01 seconds.

>>> Time used for   19 F{O} matrix transform.:          0.00 seconds.

>>> Time used for   38 ETA{O} vector calculat.:         0.01 seconds.

>>> Time used for    0 Xksi{O} and Eta{O2} vector calculat.:         0.00 seconds.

>>> Total time for   8 quadratic response func.:        0.02 seconds.


                  +--------------------------------------------------------------------------------------+
                  !                FINAL CCS RESULTS FOR THE FIRST HYPERPOLARIZABILITIES                 !
                  +--------------------------------------------------------------------------------------+


  A operator                  B operator                  C operator                     property 
------------------------------------------------------------------------------------------------------

 Cannot determine if real or imaginary property...   print: symmetric (antisymmetric) parts in +/- w
 ZDIPLEN  (unrel.) -0.0000   YDIPVEL  (unrel.)  0.0000   001RPSOZ (unrel.)  0.0000     -44.69605864     (  -0.000000000    )

 Cannot determine if real or imaginary property...   print: symmetric (antisymmetric) parts in +/- w
 ZDIPLEN  (unrel.) -0.0000   ZDIPVEL  (unrel.)  0.0000   001RPSOY (unrel.)  0.0000     0.2785225966     (  -0.000000000    )

 Cannot determine if real or imaginary property...   print: symmetric (antisymmetric) parts in +/- w
 ZDIPLEN  (unrel.) -0.0000   YDIPVEL  (unrel.)  0.0000   004RPSOZ (unrel.)  0.0000    -0.7089768897E-03 (  -0.000000000    )

 Cannot determine if real or imaginary property...   print: symmetric (antisymmetric) parts in +/- w
 ZDIPLEN  (unrel.) -0.0000   ZDIPVEL  (unrel.)  0.0000   004RPSOY (unrel.)  0.0000    -0.2395372221     (  -0.000000000    )

 Cannot determine if real or imaginary property...   print: symmetric (antisymmetric) parts in +/- w
 ZDIPLEN  (unrel.) -0.0000   XDIPVEL  (unrel.)  0.0000   003RPSOY (unrel.)  0.0000    -0.5405164902E-01 (  -0.000000000    )

 Cannot determine if real or imaginary property...   print: symmetric (antisymmetric) parts in +/- w
 ZDIPLEN  (unrel.) -0.0000   YDIPVEL  (unrel.)  0.0000   003RPSOX (unrel.)  0.0000     0.5405164902E-01 (  -0.000000000    )

 Cannot determine if real or imaginary property...   print: symmetric (antisymmetric) parts in +/- w
 ZDIPLEN  (unrel.) -0.0000   XDIPVEL  (unrel.)  0.0000   006RPSOY (unrel.)  0.0000     0.3467838748     (  -0.000000000    )

 Cannot determine if real or imaginary property...   print: symmetric (antisymmetric) parts in +/- w
 ZDIPLEN  (unrel.) -0.0000   YDIPVEL  (unrel.)  0.0000   006RPSOX (unrel.)  0.0000    -0.3467838748     (  -0.000000000    )


------------------------------------------------------------------------------------------------------





 CCR12 ANSATZ =   0

 CCR12 APPROX =   0

   

 *******************************************************************
 *                                                                 *
 *<<<<<<<<<<                                             >>>>>>>>>>*
 *<<<<<<<<<< OUTPUT FROM COUPLED CLUSTER ENERGY PROGRAM  >>>>>>>>>>*
 *<<<<<<<<<<                                             >>>>>>>>>>*
 *                                                                 *
 *******************************************************************


             The Direct Coupled Cluster Energy Program
             -----------------------------------------


          Number of t1 amplitudes                 :        70
          Number of t2 amplitudes                 :      2485
          Total number of amplitudes in ccsd      :      2555

 Iter.  1: Coupled cluster MP2   energy :    -100.1936625719328759
 Iter.  1: Coupled cluster CCSD  energy :    -100.1943060627135651
 Iter.  2: Coupled cluster CCSD  energy :    -100.1971585955470374
 Iter.  3: Coupled cluster CCSD  energy :    -100.1977954467534175
 Iter.  4: Coupled cluster CCSD  energy :    -100.1977970730130352
 Iter.  5: Coupled cluster CCSD  energy :    -100.1977935672087483
 Iter.  6: Coupled cluster CCSD  energy :    -100.1977918794488716
 Iter.  7: Coupled cluster CCSD  energy :    -100.1977908485681752
 Iter.  8: Coupled cluster CCSD  energy :    -100.1977909127266031
 Iter.  9: Coupled cluster CCSD  energy :    -100.1977909096252262

 CCSD  energy converged to within   0.10D-07 is         -100.197790909625
 Final 2-norm of the CC vector function:  4.38666294D-07





             +-------------------------------------------------------+
             ! Final results from the Coupled Cluster energy program !
             +-------------------------------------------------------+



            Total SCF   energy:                  -100.0089198959

            Total MP2   energy:                  -100.1936625719

            Total CCSD  energy:                  -100.1977909096




                   +--------------------------------------------+
                   ! Calculating singlet intermediates for CCLR !
                   +--------------------------------------------+



            E-intermediates calculated 
            Fock-intermediate calculated 
            Gamma-intermediate calculated 
            BF-intermediate calculated 
            C-intermediate calculated 
            D-intermediate calculated 


   

 *******************************************************************
 *                                                                 *
 *<<<<<<<<<<<<< OUTPUT FROM COUPLED CLUSTER RESPONSE  >>>>>>>>>>>>>*
 *                                                                 *
 *******************************************************************



                         +--------------------------------+
                         ! Coupled Cluster model is: CCSD !
                         +--------------------------------+

 RPA: call cceq_str
 RPA: exit cceq_str
  
     

   *******************************************************************
   *                                                                 *
   *<<<<<<<<   OUTPUT FROM PROPERTY AND SYMMETRY ANALYSIS   >>>>>>>>>*
   *                                                                 *
   *******************************************************************



                         +-------------------------------+
                         ! REQUESTED PROPERTY OPERATORS: !
                         +-------------------------------+

             Index   Oper. Label  Symmetry  Transp.  PDBS  Atom
             --------------------------------------------------
                1     001RPSOY        1        0      F      0
                2     001RPSOZ        1        0      F      0
                3     002RPSOX        1        0      F      0
                4     002RPSOZ        1        0      F      0
                5     003RPSOX        1        0      F      0
                6     003RPSOY        1        0      F      0
                7     004RPSOY        1        0      F      0
                8     004RPSOZ        1        0      F      0
                9     005RPSOX        1        0      F      0
               10     005RPSOZ        1        0      F      0
               11     006RPSOX        1        0      F      0
               12     006RPSOY        1        0      F      0
               13     HAM0            1        1      T      0
               14     XDIPVEL         1       -1      F      0
               15     YDIPVEL         1       -1      F      0
               16     ZDIPLEN         1        1      F      0
               17     ZDIPVEL         1       -1      F      0
             --------------------------------------------------




                         +-------------------------------+
                         ! REQUESTED EXPECTATION VALUES: !
                         +-------------------------------+

                       Index   Oper. Label  Symmetry
                       -----------------------------
                       -----------------------------




                       +------------------------------------+
                       ! REQUESTED EFFECTIVE FOCK MATRICES: !
                       +------------------------------------+

                       Index   Oper. Label  Symmetry
                       -----------------------------
                       -----------------------------




                       +-----------------------------------+
                       ! REQUESTED FIRST ORDER XI VECTORS: !
                       +-----------------------------------+

             Index   Oper. Label  relaxed  Sym.     Frequency
             --------------------------------------------------
                1      001RPSOY       F     1      0.000000D+00
                2      001RPSOZ       F     1      0.000000D+00
                3      002RPSOX       F     1      0.000000D+00
                4      002RPSOZ       F     1      0.000000D+00
                5      003RPSOX       F     1      0.000000D+00
                6      003RPSOY       F     1      0.000000D+00
                7      004RPSOY       F     1      0.000000D+00
                8      004RPSOZ       F     1      0.000000D+00
                9      005RPSOX       F     1      0.000000D+00
               10      005RPSOZ       F     1      0.000000D+00
               11      006RPSOX       F     1      0.000000D+00
               12      006RPSOY       F     1      0.000000D+00
               13      XDIPVEL        F     1      0.000000D+00
               14      YDIPVEL        F     1      0.000000D+00
               15      ZDIPLEN        F     1      0.000000D+00
               16      ZDIPVEL        F     1      0.000000D+00
             --------------------------------------------------




                        +----------------------------------+
                        ! REQUESTED FIRST ORDER T VECTORS: !
                        +----------------------------------+

             Index   Oper. Label  relaxed  Sym.     Frequency
             --------------------------------------------------
                1      001RPSOY       F     1      0.000000D+00
                2      001RPSOZ       F     1      0.000000D+00
                3      002RPSOX       F     1      0.000000D+00
                4      002RPSOZ       F     1      0.000000D+00
                5      003RPSOX       F     1      0.000000D+00
                6      003RPSOY       F     1      0.000000D+00
                7      004RPSOY       F     1      0.000000D+00
                8      004RPSOZ       F     1      0.000000D+00
                9      005RPSOX       F     1      0.000000D+00
               10      005RPSOZ       F     1      0.000000D+00
               11      006RPSOX       F     1      0.000000D+00
               12      006RPSOY       F     1      0.000000D+00
               13      XDIPVEL        F     1     -0.000000D+00
               14      YDIPVEL        F     1     -0.000000D+00
               15      ZDIPLEN        F     1     -0.000000D+00
               16      ZDIPVEL        F     1     -0.000000D+00
             --------------------------------------------------




                       +------------------------------------+
                       ! REQUESTED FIRST ORDER ETA VECTORS: !
                       +------------------------------------+

             Index   Oper. Label  relaxed  Sym.     Frequency
             --------------------------------------------------
                1      001RPSOY       F     1      0.000000D+00
                2      001RPSOZ       F     1      0.000000D+00
                3      003RPSOX       F     1      0.000000D+00
                4      003RPSOY       F     1      0.000000D+00
                5      004RPSOY       F     1      0.000000D+00
                6      004RPSOZ       F     1      0.000000D+00
                7      006RPSOX       F     1      0.000000D+00
                8      006RPSOY       F     1      0.000000D+00
                9      XDIPVEL        F     1      0.000000D+00
               10      YDIPVEL        F     1      0.000000D+00
               11      ZDIPLEN        F     1      0.000000D+00
               12      ZDIPVEL        F     1      0.000000D+00
             --------------------------------------------------




                      +-------------------------------------+
                      ! REQUESTED FIRST ORDER ZETA VECTORS: !
                      +-------------------------------------+

             Index   Oper. Label  relaxed  Sym.     Frequency
             --------------------------------------------------
                1      001RPSOY       F     1      0.000000D+00
                2      001RPSOZ       F     1      0.000000D+00
                3      003RPSOX       F     1      0.000000D+00
                4      003RPSOY       F     1      0.000000D+00
                5      004RPSOY       F     1      0.000000D+00
                6      004RPSOZ       F     1      0.000000D+00
                7      006RPSOX       F     1      0.000000D+00
                8      006RPSOY       F     1      0.000000D+00
                9      XDIPVEL        F     1      0.000000D+00
               10      YDIPVEL        F     1      0.000000D+00
               11      ZDIPLEN        F     1     -0.000000D+00
               12      ZDIPVEL        F     1      0.000000D+00
             --------------------------------------------------


      

    *******************************************************************
    *          SOLVING COUPLED CLUSTER RESPONSE EQUATIONS             *
    *******************************************************************



 
 +======================================================================+
 !                     RHS & ETA VECTORS TO COMPUTE:                    !
 +======================================================================+
 | TYPE | # VEC. |  NEEDED FOR:                                         |
 +----------------------------------------------------------------------+
 |  O1  |   16   |  first-order amplitude equations                     |
 |  X1  |   12   |  first-order multipliers equations                   |
 +======================================================================+



 +======================================================================+
 !                       LINEAR EQUATIONS TO SOLVE:                     !
 +======================================================================+
 | TYPE | # VEC. |  EQUATION:                                           |
 +----------------------------------------------------------------------+
 |  R1  |   16   |  first-order amplitude response                      |
 |  L1  |   12   |  first-order multiplier response                     |
 +======================================================================+



 +======================================================================+
 !                F MATRIX TRANSFORMATIONS TO COMPUTE:                  !
 +======================================================================+
 | TYPE | # VEC. |  TRANSFORMED:                                        |
 +----------------------------------------------------------------------+
 |  F1  |   16   |  first-order amplitude response (R1) vector          |
 +======================================================================+




 -------------------------------------------------------------------
 |          OUTPUT FROM AMPLITUDE RHS VECTOR SECTION               |
 -------------------------------------------------------------------

@ WARNING: ETA1 VECTOR FOR 002RPSOX( F, 0.00000D+00) IS NOT AVAILABLE.
@ WARNING: ETA1 VECTOR FOR 002RPSOZ( F, 0.00000D+00) IS NOT AVAILABLE.
@ WARNING: ETA1 VECTOR FOR 005RPSOX( F, 0.00000D+00) IS NOT AVAILABLE.
@ WARNING: ETA1 VECTOR FOR 005RPSOZ( F, 0.00000D+00) IS NOT AVAILABLE.


   For the requested 16 1th.-order amplitude rhs vectors "O1 ".
         -   0 D matrix transformations 
         -   0 C matrix transformations 
         -   0 B matrix transformations 
         -   0 C{O} matrix transformations 
         -   0 B{O} matrix transformations 
         -   0 A{O} matrix transformations 
         -  16Xi{O} vector calculations    
   will be performed.


 RPA: call cceq_str
 RPA: exit cceq_str
 RPA: call cceq_str
 RPA: exit cceq_str

 Solution of CC response equations completed.


 *******************************************************************
 *                                                                 *
 *<<<<<<<<  OUTPUT FROM COUPLED CLUSTER LINEAR RESPONSE   >>>>>>>>>*
 *                                                                 *
 *<<<<<<<<     CALCULATION OF SECOND ORDER PROPERTIES     >>>>>>>>>*
 *                                                                 *
 *******************************************************************

 


   For the requested 12 second-order properties
         -   3 F matrix transformations with R1 vectors
         -   0 J matrix transformations with L1 vectors
         -  15 ETA and XKSI vector calculations 
         -   0 X intermediate calculations 
         -   0 2. order reortho./relax. contributions
   will be performed.



>>> Time used for    3 F matrix transformations:        0.06 seconds.

>>> Time used for   15 O1/X1 vector calculation:        0.02 seconds.

>>> Total time for  12 linear response function:        0.08 seconds.


            +---------------------------------------------------------+
            !      FINAL CCSD RESULTS FOR THE SECOND-ORDER PROPERTIES !
            +---------------------------------------------------------+


  A operator                  B operator                     property 
------------------------------------------------------------------------

 Cannot determine if real or imaginary property...   print: symmetric (antisymmetric) parts in +/- w
 YDIPVEL  (unrel.) -0.0000   001RPSOZ (unrel.)  0.0000     -1.347893369     (  -0.000000000    )

 Cannot determine if real or imaginary property...   print: symmetric (antisymmetric) parts in +/- w
 ZDIPVEL  (unrel.) -0.0000   001RPSOY (unrel.)  0.0000     -2.579010824     (  -0.000000000    )

 Cannot determine if real or imaginary property...   print: symmetric (antisymmetric) parts in +/- w
 ZDIPVEL  (unrel.) -0.0000   002RPSOX (unrel.)  0.0000      2.579010824     (  -0.000000000    )

 Cannot determine if real or imaginary property...   print: symmetric (antisymmetric) parts in +/- w
 XDIPVEL  (unrel.) -0.0000   002RPSOZ (unrel.)  0.0000      1.347893369     (  -0.000000000    )

 Cannot determine if real or imaginary property...   print: symmetric (antisymmetric) parts in +/- w
 XDIPVEL  (unrel.) -0.0000   003RPSOY (unrel.)  0.0000      2.372753985     (  -0.000000000    )

 Cannot determine if real or imaginary property...   print: symmetric (antisymmetric) parts in +/- w
 YDIPVEL  (unrel.) -0.0000   003RPSOX (unrel.)  0.0000     -2.372753985     (  -0.000000000    )

 Cannot determine if real or imaginary property...   print: symmetric (antisymmetric) parts in +/- w
 YDIPVEL  (unrel.) -0.0000   004RPSOZ (unrel.)  0.0000      2.580632017     (  -0.000000000    )

 Cannot determine if real or imaginary property...   print: symmetric (antisymmetric) parts in +/- w
 ZDIPVEL  (unrel.) -0.0000   004RPSOY (unrel.)  0.0000    -0.7048514122     (  -0.000000000    )

 Cannot determine if real or imaginary property...   print: symmetric (antisymmetric) parts in +/- w
 ZDIPVEL  (unrel.) -0.0000   005RPSOX (unrel.)  0.0000     0.7048514122     (  -0.000000000    )

 Cannot determine if real or imaginary property...   print: symmetric (antisymmetric) parts in +/- w
 XDIPVEL  (unrel.) -0.0000   005RPSOZ (unrel.)  0.0000     -2.580632017     (  -0.000000000    )

 Cannot determine if real or imaginary property...   print: symmetric (antisymmetric) parts in +/- w
 XDIPVEL  (unrel.) -0.0000   006RPSOY (unrel.)  0.0000     0.6177480097     (  -0.000000000    )

 Cannot determine if real or imaginary property...   print: symmetric (antisymmetric) parts in +/- w
 YDIPVEL  (unrel.) -0.0000   006RPSOX (unrel.)  0.0000    -0.6177480097     (  -0.000000000    )
------------------------------------------------------------------------



 *******************************************************************
 *                                                                 *
 *<<<<<<<< OUTPUT FROM COUPLED CLUSTER QUADRATIC RESPONSE >>>>>>>>>*
 *                                                                 *
 *<<<<<<<<     CALCULATION OF CC HYPERPOLARIZABILITIES    >>>>>>>>>*
 *                                                                 *
 *******************************************************************



   For the requested  8 quadratic response functions 
         -   3 G matrix transformations 
         -  19 B matrix transformations 
         -   0 K matrix transformations 
         -   0 F matrix transformations 
         -  19 F{O} matrix transformations 
         -  38 ETA{O} vector calculations 
         -   0 Xksi{O2} x L1 and Eta{O2} x R1 dot products
         -   0 X1 x R2 dot products 
   will be performed.


 +--------------------------------------------------+
 | total time for   3 G transforms.:      0.04 secs.|
 +==================================================+



>>> Time used for    3 G matrix transformations:        0.04 seconds.
 +--------------------------------------------------+
 | total time for  19 B transforms.:      0.24 secs.|
 +==================================================+



>>> Time used for   19 B matrix transformations:        0.24 seconds.

>>> Time used for   19 F{O} matrix transform.:          0.01 seconds.

>>> Time used for   38 ETA{O} vector calculat.:         0.05 seconds.

>>> Time used for    0 Xksi{O} and Eta{O2} vector calculat.:         0.00 seconds.

>>> Total time for   8 quadratic response func.:        0.35 seconds.


                 +---------------------------------------------------------------------------------------+
                 !                FINAL CCSD RESULTS FOR THE FIRST HYPERPOLARIZABILITIES                 !
                 +---------------------------------------------------------------------------------------+


  A operator                  B operator                  C operator                     property 
------------------------------------------------------------------------------------------------------

 Cannot determine if real or imaginary property...   print: symmetric (antisymmetric) parts in +/- w
 ZDIPLEN  (unrel.) -0.0000   YDIPVEL  (unrel.)  0.0000   001RPSOZ (unrel.)  0.0000     -41.21583477     (  -0.000000000    )

 Cannot determine if real or imaginary property...   print: symmetric (antisymmetric) parts in +/- w
 ZDIPLEN  (unrel.) -0.0000   ZDIPVEL  (unrel.)  0.0000   001RPSOY (unrel.)  0.0000     0.6549677048E-01 (  -0.000000000    )

 Cannot determine if real or imaginary property...   print: symmetric (antisymmetric) parts in +/- w
 ZDIPLEN  (unrel.) -0.0000   YDIPVEL  (unrel.)  0.0000   004RPSOZ (unrel.)  0.0000    -0.3301295070E-01 (  -0.000000000    )

 Cannot determine if real or imaginary property...   print: symmetric (antisymmetric) parts in +/- w
 ZDIPLEN  (unrel.) -0.0000   ZDIPVEL  (unrel.)  0.0000   004RPSOY (unrel.)  0.0000    -0.5631523831     (  -0.000000000    )

 Cannot determine if real or imaginary property...   print: symmetric (antisymmetric) parts in +/- w
 ZDIPLEN  (unrel.) -0.0000   XDIPVEL  (unrel.)  0.0000   003RPSOY (unrel.)  0.0000    -0.1670079417     (  -0.000000000    )

 Cannot determine if real or imaginary property...   print: symmetric (antisymmetric) parts in +/- w
 ZDIPLEN  (unrel.) -0.0000   YDIPVEL  (unrel.)  0.0000   003RPSOX (unrel.)  0.0000     0.1670079418     (  -0.000000000    )

 Cannot determine if real or imaginary property...   print: symmetric (antisymmetric) parts in +/- w
 ZDIPLEN  (unrel.) -0.0000   XDIPVEL  (unrel.)  0.0000   006RPSOY (unrel.)  0.0000     0.3511181690     (  -0.000000000    )

 Cannot determine if real or imaginary property...   print: symmetric (antisymmetric) parts in +/- w
 ZDIPLEN  (unrel.) -0.0000   YDIPVEL  (unrel.)  0.0000   006RPSOX (unrel.)  0.0000    -0.3511181690     (  -0.000000000    )


------------------------------------------------------------------------------------------------------



  

 *******************************************************************************
 *******************************************************************************
 *                                                                             *
 *                                                                             *
 *                   SUMMARY OF COUPLED CLUSTER CALCULATION                    *
 *                                                                             *
 *                                                                             *
 *******************************************************************************
 *******************************************************************************

                                                                                
            Total SCF   energy:                  -100.0089198959                
                                                                                
                                                                                
            Total SCF   energy:                  -100.0089198959                
            Total MP2   energy:                  -100.1936625719                
            Total CCSD  energy:                  -100.1977909096                
  

 *******************************************************************************
 *******************************************************************************
 *                                                                             *
 *                                                                             *
 *                      END OF COUPLED CLUSTER CALCULATION                     *
 *                                                                             *
 *                                                                             *
 *******************************************************************************
 *******************************************************************************


 >>>> CPU and wall time for CC :       8.097       9.603

 
     Date and time (Linux)  : Sun Sep  8 20:42:42 2013
     Host name              : lpqlx131.ups-tlse.fr                    


                      .-------------------------------------.
                      | End of Coupled Cluster Section (CC) |
                      `-------------------------------------'

 >>>> Total CPU  time used in DALTON:   8.13 seconds
 >>>> Total wall time used in DALTON:   9.64 seconds

 
     Date and time (Linux)  : Sun Sep  8 20:42:42 2013
     Host name              : lpqlx131.ups-tlse.fr                    
