

     ************************************************************************
     *************** Dalton - An Electronic Structure Program ***************
     ************************************************************************

    This is output from DALTON (Release Dalton2013 patch 0)
   ----------------------------------------------------------------------------
    NOTE:
     
    Dalton is an experimental code for the evaluation of molecular
    properties using (MC)SCF, DFT, CI, and CC wave functions.
    The authors accept no responsibility for the performance of
    the code or for the correctness of the results.
     
    The code (in whole or part) is provided under a licence and
    is not to be reproduced for further distribution without
    the written permission of the authors or their representatives.
     
    See the home page "http://daltonprogram.org" for further information.
     
    If results obtained with this code are published,
    the appropriate citations would be both of:
     
       K. Aidas, C. Angeli, K. L. Bak, V. Bakken, R. Bast,
       L. Boman, O. Christiansen, R. Cimiraglia, S. Coriani,
       P. Dahle, E. K. Dalskov, U. Ekstroem, T. Enevoldsen,
       J. J. Eriksen, P. Ettenhuber, B. Fernandez, L. Ferrighi,
       H. Fliegl, L. Frediani, K. Hald, A. Halkier, C. Haettig,
       H. Heiberg, T. Helgaker, A. C. Hennum, H. Hettema,
       E. Hjertenaes, S. Hoest, I.-M. Hoeyvik, M. F. Iozzi,
       B. Jansik, H. J. Aa. Jensen, D. Jonsson, P. Joergensen,
       J. Kauczor, S. Kirpekar, T. Kjaergaard, W. Klopper,
       S. Knecht, R. Kobayashi, H. Koch, J. Kongsted, A. Krapp,
       K. Kristensen, A. Ligabue, O. B. Lutnaes, J. I. Melo,
       K. V. Mikkelsen, R. H. Myhre, C. Neiss, C. B. Nielsen,
       P. Norman, J. Olsen, J. M. H. Olsen, A. Osted,
       M. J. Packer, F. Pawlowski, T. B. Pedersen, P. F. Provasi,
       S. Reine, Z. Rinkevicius, T. A. Ruden, K. Ruud, V. Rybkin,
       P. Salek, C. C. M. Samson, A. Sanchez de Meras, T. Saue,
       S. P. A. Sauer, B. Schimmelpfennig, K. Sneskov,
       A. H. Steindal, K. O. Sylvester-Hvid, P. R. Taylor,
       A. M. Teale, E. I. Tellgren, D. P. Tew, A. J. Thorvaldsen,
       L. Thoegersen, O. Vahtras, M. A. Watson, D. J. D. Wilson,
       M. Ziolkowski and H. Agren,
       "The Dalton quantum chemistry program system",
       WIREs Comput. Mol. Sci. 2013. (doi: 10.1002/wcms.1172)
    
    and
    
       Dalton, a Molecular Electronic Structure Program,
       Release DALTON2013.0 (2013), see http://daltonprogram.org
   ----------------------------------------------------------------------------

    Authors in alphabetical order (major contribution(s) in parenthesis):

  Kestutis Aidas,           Vilnius University,           Lithuania   (QM/MM)
  Celestino Angeli,         University of Ferrara,        Italy       (NEVPT2)
  Keld L. Bak,              UNI-C,                        Denmark     (AOSOPPA, non-adiabatic coupling, magnetic properties)
  Vebjoern Bakken,          University of Oslo,           Norway      (DALTON; geometry optimizer, symmetry detection)
  Radovan Bast,             KTH Stockholm                 Sweden      (DALTON installation and execution frameworks)
  Linus Boman,              NTNU,                         Norway      (Cholesky decomposition and subsystems)
  Ove Christiansen,         Aarhus University,            Denmark     (CC module)
  Renzo Cimiraglia,         University of Ferrara,        Italy       (NEVPT2)
  Sonia Coriani,            University of Trieste,        Italy       (CC module, MCD in RESPONS)
  Paal Dahle,               University of Oslo,           Norway      (Parallelization)
  Erik K. Dalskov,          UNI-C,                        Denmark     (SOPPA)
  Thomas Enevoldsen,        Univ. of Southern Denmark,    Denmark     (SOPPA)
  Janus J. Eriksen,         Aarhus University,            Denmark     (PE-MP2/SOPPA, TDA)
  Berta Fernandez,          U. of Santiago de Compostela, Spain       (doublet spin, ESR in RESPONS)
  Lara Ferrighi,            Aarhus University,            Denmark     (PCM Cubic response)
  Heike Fliegl,             University of Oslo,           Norway      (CCSD(R12))
  Luca Frediani,            UiT The Arctic U. of Norway,  Norway      (PCM)
  Bin Gao,                  UiT The Arctic U. of Norway,  Norway      (Gen1Int library)
  Christof Haettig,         Ruhr-University Bochum,       Germany     (CC module)
  Kasper Hald,              Aarhus University,            Denmark     (CC module)
  Asger Halkier,            Aarhus University,            Denmark     (CC module)
  Hanne Heiberg,            University of Oslo,           Norway      (geometry analysis, selected one-electron integrals)
  Trygve Helgaker,          University of Oslo,           Norway      (DALTON; ABACUS, ERI, DFT modules, London, and much more)
  Alf Christian Hennum,     University of Oslo,           Norway      (Parity violation)
  Hinne Hettema,            University of Auckland,       New Zealand (quadratic response in RESPONS; SIRIUS supersymmetry)
  Eirik Hjertenaes,         NTNU,                         Norway      (Cholesky decomposition)
  Maria Francesca Iozzi,    University of Oslo,           Norway      (RPA)
  Brano Jansik              Technical Univ. of Ostrava    Czech Rep.  (DFT cubic response)
  Hans Joergen Aa. Jensen,  Univ. of Southern Denmark,    Denmark     (DALTON; SIRIUS, RESPONS, ABACUS modules, London, and much more)
  Dan Jonsson,              UiT The Arctic U. of Norway,  Norway      (cubic response in RESPONS module)
  Poul Joergensen,          Aarhus University,            Denmark     (RESPONS, ABACUS, and CC modules)
  Joanna Kauczor,           Linkoeping University,        Sweden      (Complex polarization propagator (CPP) module)
  Sheela Kirpekar,          Univ. of Southern Denmark,    Denmark     (Mass-velocity & Darwin integrals)
  Wim Klopper,              KIT Karlsruhe,                Germany     (R12 code in CC, SIRIUS, and ABACUS modules)
  Stefan Knecht,            ETH Zurich,                   Switzerland (Parallel CI and MCSCF)
  Rika Kobayashi,           Australian National Univ.,    Australia   (DIIS in CC, London in MCSCF)
  Henrik Koch,              NTNU,                         Norway      (CC module, Cholesky decomposition)
  Jacob Kongsted,           Univ. of Southern Denmark,    Denmark     (Polarizable embedding, QM/MM)
  Andrea Ligabue,           University of Modena,         Italy       (CTOCD, AOSOPPA)
  Ola B. Lutnaes,           University of Oslo,           Norway      (DFT Hessian)
  Juan I. Melo,             University of Buenos Aires,   Argentina   (LRESC, Relativistic Effects on NMR Shieldings)
  Kurt V. Mikkelsen,        University of Copenhagen,     Denmark     (MC-SCRF and QM/MM)
  Rolf H. Myhre,            NTNU,                         Norway      (Cholesky, subsystems and ECC2)
  Christian Neiss,          Univ. Erlangen-Nuernberg,     Germany     (CCSD(R12))
  Christian B. Nielsen,     University of Copenhagen,     Denmark     (QM/MM)
  Patrick Norman,           Linkoeping University,        Sweden      (Cubic response and complex response in RESPONS)
  Jeppe Olsen,              Aarhus University,            Denmark     (SIRIUS CI/density modules)
  Jogvan Magnus H. Olsen,   Univ. of Southern Denmark,    Denmark     (Polarizable embedding, PE library, QM/MM)
  Anders Osted,             Copenhagen University,        Denmark     (QM/MM)
  Martin J. Packer,         University of Sheffield,      UK          (SOPPA)
  Filip Pawlowski,          Kazimierz Wielki University   Poland      (CC3)
  Thomas B. Pedersen,       University of Oslo,           Norway      (Cholesky decomposition)
  Patricio F. Provasi,      University of Northeastern,   Argentina   (Analysis of coupling constants in localized orbitals)
  Zilvinas Rinkevicius,     KTH Stockholm,                Sweden      (open-shell DFT, ESR)
  Elias Rudberg,            KTH Stockholm,                Sweden      (DFT grid and basis info)
  Torgeir A. Ruden,         University of Oslo,           Norway      (Numerical derivatives in ABACUS)
  Kenneth Ruud,             UiT The Arctic U. of Norway,  Norway      (DALTON; ABACUS magnetic properties and  much more)
  Pawel Salek,              KTH Stockholm,                Sweden      (DALTON; DFT code)
  Claire C. M. Samson       University of Karlsruhe       Germany     (Boys localization, r12 integrals in ERI)
  Alfredo Sanchez de Meras, University of Valencia,       Spain       (CC module, Cholesky decomposition)
  Trond Saue,               Paul Sabatier University,     France      (direct Fock matrix construction)
  Stephan P. A. Sauer,      University of Copenhagen,     Denmark     (SOPPA(CCSD), SOPPA prop., AOSOPPA, vibrational g-factors)
  Bernd Schimmelpfennig,    Forschungszentrum Karlsruhe,  Germany     (AMFI module)
  Kristian Sneskov,         Aarhus University,            Denmark     (QM/MM, PE-CC)
  Arnfinn H. Steindal,      UiT The Arctic U. of Norway,  Norway      (parallel QM/MM)
  K. O. Sylvester-Hvid,     University of Copenhagen,     Denmark     (MC-SCRF)
  Peter R. Taylor,          VLSCI/Univ. of Melbourne,     Australia   (Symmetry handling ABACUS, integral transformation)
  Andrew M. Teale,          University of Nottingham,     England     (DFT-AC, DFT-D)
  David P. Tew,             University of Bristol,        England     (CCSD(R12))
  Olav Vahtras,             KTH Stockholm,                Sweden      (triplet response, spin-orbit, ESR, TDDFT, open-shell DFT)
  David J. Wilson,          La Trobe University,          Australia   (DFT Hessian and DFT magnetizabilities)
  Hans Agren,               KTH Stockholm,                Sweden      (SIRIUS module, RESPONS, MC-SCRF solvation model)
 --------------------------------------------------------------------------------

     Date and time (Linux)  : Mon Oct 21 14:45:56 2013
     Host name              : c10-6.local                             

 * Work memory size             :    64000000 =  488.28 megabytes.

 * Directories for basis set searches:
   1) /home/arnfinn/release_dalton/DALTON/test/2013-10-21T14_45-testjob-pid-47578
   2) /home/arnfinn/release_dalton/build-RB-intel12.1.2-release/basis


Compilation information
-----------------------

 Who compiled             | arnfinn
 Host                     | stallo-2.local
 System                   | Linux-2.6.32-358.6.2.el6.x86_64
 CMake generator          | Unix Makefiles
 Processor                | x86_64
 64-bit integers          | OFF
 MPI                      | OFF
 Fortran compiler         | /global/apps/intel/composer_xe_2011_sp1.8.273/bin/
                          | intel64/ifort
 C compiler               | /global/apps/intel/composer_xe_2011_sp1.8.273/bin/
                          | intel64/icc
 C compiler version       | icc (ICC) 13.0.1 20121010
 C++ compiler             | /global/apps/intel/composer_xe_2011_sp1.8.273/bin/
                          | intel64/icpc
 C++ compiler version     | icpc (ICC) 13.0.1 20121010
 BLAS                     | -Wl,--start-group;/global/apps/intel/2013.1/mkl/li
                          | b/intel64/libmkl_core.so;/global/apps/intel/2013.1
                          | /mkl/lib/intel64/libmkl_intel_lp64.so;/global/apps
                          | /intel/2013.1/mkl/lib/intel64/libmkl_sequential.so
                          | ;/usr/lib64/libpthread.so;/usr/lib64/libm.so;-open
                          | mp;-Wl,--end-group
 LAPACK                   | -Wl,--start-group;/global/apps/intel/2013.1/mkl/li
                          | b/intel64/libmkl_lapack95_lp64.a;/global/apps/inte
                          | l/2013.1/mkl/lib/intel64/libmkl_intel_lp64.so;-ope
                          | nmp;-Wl,--end-group
 Static linking           | OFF
 Last Git revision        | 9e5bb7f558e1ee66d0614a37cb4fb8c71086ba4e
 Configuration time       | 2013-10-15 12:56:50.249803


   Content of the .dal input file
 ----------------------------------

**DALTON INPUT                                    
.NMDDRV                                           
**NMDDRV                                          
.DORDR                                            
  3  0                                            
.SYMMETRY                                         
  C9v                                             
.VIBANA                                           
*PROPAV                                           
.EFFECTIVE GEOMETRY                               
**WAVE FUNCTIONS                                  
.HF                                               
*SCF INP                                          
.THRESH                                           
 1.0D-12                                          
**END OF DALTON INPUT                             


   Content of the .mol file
 ----------------------------

BASIS                                                                          
STO-3G                                                                         
CO                                                                             
                                                                               
Atomtypes=2                                                                    
Charge=6.0 Atoms=1                                                             
C          0.0000000000            0.0000000000           -1.0823225614        
Charge=8.0 Atoms=1                                                             
O          0.0000000000            0.0000000000            1.0823225614        


       *******************************************************************
       *********** Output from DALTON general input processing ***********
       *******************************************************************

 --------------------------------------------------------------------------------
   Overall default print level:    0
   Print level for DALTON.STAT:    1

    Geometry optimization
      Starting at iteration:    0
      Maximum number of iterations:   20
    "Old" integral transformation used (limited to max 255 basis functions)
    Numerical derivatives will be calculated
 --------------------------------------------------------------------------------


                  .----------------------------------------------.
                  | Commencing geometry optimization using .WALK |
                  `----------------------------------------------'



     @@>>>>>>>>>> Geometry walk iteration number:    0 <<<<<<<<<<




   ****************************************************************************
   *************** Output of molecule and basis set information ***************
   ****************************************************************************


    The two title cards from your ".mol" input:
    ------------------------------------------------------------------------
 1: CO                                                                      
 2:                                                                         
    ------------------------------------------------------------------------

  Atomic type no.    1
  --------------------
  Nuclear charge:   6.00000
  Number of symmetry independent centers:    1
  Number of basis sets to read;    2
  Basis set file used for this atomic type with Z =   6 :
     "/home/arnfinn/release_dalton/build-RB-intel12.1.2-release/basis/STO-3G"

  Atomic type no.    2
  --------------------
  Nuclear charge:   8.00000
  Number of symmetry independent centers:    1
  Number of basis sets to read;    2
  Basis set file used for this atomic type with Z =   8 :
     "/home/arnfinn/release_dalton/build-RB-intel12.1.2-release/basis/STO-3G"


                      SYMADD: Requested addition of symmetry
                      --------------------------------------

 Symmetry test threshold:  5.00E-06

 - molecule centered at center of mass and rotated so
   principal axes of inertia are along coordinate axes.

 Symmetry class found: C(oo,v)        

 Symmetry Independent Centres             
 ----------------------------
       8 :      0.00000000     0.00000000     0.92787356  Isotope  1
       6 :      0.00000000     0.00000000    -1.23677156  Isotope  1

 The following elements were found:   X  Y     


                         SYMGRP: Point group information
                         -------------------------------

Full point group is: C(oo,v)        
Represented as:      C2v

   * The point group was generated by:

      Reflection in the yz-plane
      Reflection in the xz-plane

   * Group multiplication table

        |  E   C2z  Oxz  Oyz
   -----+--------------------
     E  |  E   C2z  Oxz  Oyz
    C2z | C2z   E   Oyz  Oxz
    Oxz | Oxz  Oyz   E   C2z
    Oyz | Oyz  Oxz  C2z   E 

   * Character table

        |  E   C2z  Oxz  Oyz
   -----+--------------------
    A1  |   1    1    1    1
    B1  |   1   -1    1   -1
    B2  |   1   -1   -1    1
    A2  |   1    1   -1   -1

   * Direct product table

        | A1   B1   B2   A2 
   -----+--------------------
    A1  | A1   B1   B2   A2 
    B1  | B1   A1   A2   B2 
    B2  | B2   A2   A1   B1 
    A2  | A2   B2   B1   A1 


                                 Isotopic Masses
                                 ---------------

                           C          12.000000
                           O          15.994915

                       Total mass:    27.994915 amu
                       Natural abundance:  98.663 %

 Center-of-mass coordinates (a.u.):    0.000000    0.000000    0.000000


  Atoms and basis sets
  --------------------

  Number of atom types :    2
  Total number of atoms:    2

  Basis set used is "STO-3G" from the basis set library.

  label    atoms   charge   prim   cont     basis
  ----------------------------------------------------------------------
  C           1    6.0000    15     5      [6s3p|2s1p]                                        
  O           1    8.0000    15     5      [6s3p|2s1p]                                        
  ----------------------------------------------------------------------
  total:      2   14.0000    30    10
  ----------------------------------------------------------------------

  Threshold for neglecting AO integrals:  1.00D-12


  Cartesian Coordinates (a.u.)
  ----------------------------

  Total number of coordinates:    6
  C       :     1  x   0.0000000000    2  y   0.0000000000    3  z  -1.2367715617
  O       :     4  x   0.0000000000    5  y   0.0000000000    6  z   0.9278735611


  Symmetry Coordinates
  --------------------

  Number of coordinates in each symmetry:     2    2    2    0

  Symmetry  A1  ( 1)

    1   C     z    3
    2   O     z    6

  Symmetry  B1  ( 2)

    3   C     x    1
    4   O     x    4

  Symmetry  B2  ( 3)

    5   C     y    2
    6   O     y    5


   Interatomic separations (in Angstrom):
   --------------------------------------

            C           O     
            ------      ------
 C     :    0.000000
 O     :    1.145481    0.000000


  Max    interatomic separation is    1.1455 Angstrom (    2.1646 Bohr)
  between atoms    2 and    1, "O     " and "C     ".

  Min YX interatomic separation is    1.1455 Angstrom (    2.1646 Bohr)


  Bond distances (Angstrom):
  --------------------------

                  atom 1     atom 2       distance
                  ------     ------       --------
  bond distance:  O          C            1.145481




 Principal moments of inertia (u*A**2) and principal axes
 --------------------------------------------------------

   IA       0.000000          0.000000    0.000000    1.000000
   IB       8.996213          0.000000    1.000000    0.000000
   IC       8.996213          1.000000    0.000000    0.000000


 Rotational constants
 --------------------

 The molecule is linear.

               B =        56176.86 MHz     (    1.873858 cm-1)


@  Nuclear repulsion energy :   22.174535444365 Hartree


  Symmetry Orbitals
  -----------------

  Number of orbitals in each symmetry:           6    2    2    0


  Symmetry  A1 ( 1)

    1     C        1s         1
    2     C        1s         2
    3     C        2pz        5
    4     O        1s         6
    5     O        1s         7
    6     O        2pz       10


  Symmetry  B1 ( 2)

    7     C        2px        3
    8     O        2px        8


  Symmetry  B2 ( 3)

    9     C        2py        4
   10     O        2py        9


  No orbitals in symmetry  A2 ( 4)

  Symmetries of electric field:  B1 (2)  B2 (3)  A1 (1)

  Symmetries of magnetic field:  B2 (3)  B1 (2)  A2 (4)


                     .---------------------------------------.
                     | Starting in Integral Section (HERMIT) |
                     `---------------------------------------'



    *************************************************************************
    ****************** Output from HERMIT input processing ******************
    *************************************************************************



     ************************************************************************
     ************************** Output from HERINT **************************
     ************************************************************************


 Threshold for neglecting two-electron integrals:  1.00D-12
 Number of two-electron integrals written:         512 ( 33.2% )
 Megabytes written:                              0.007

 >>>> Total CPU  time used in HERMIT:   0.01 seconds
 >>>> Total wall time used in HERMIT:   0.02 seconds


                        .----------------------------------.
                        | End of Integral Section (HERMIT) |
                        `----------------------------------'



                   .--------------------------------------------.
                   | Starting in Wave Function Section (SIRIUS) |
                   `--------------------------------------------'


 *** Output from Huckel module :

     Using EWMO model:          T
     Using EHT  model:          F
     Number of Huckel orbitals each symmetry:    6    2    2    0

 EWMO - Energy Weighted Maximum Overlap - is a Huckel type method,
        which normally is better than Extended Huckel Theory.
 Reference: Linderberg and Ohrn, Propagators in Quantum Chemistry (Wiley, 1973)

 Huckel EWMO eigenvalues for symmetry :  1
          -20.685686     -11.348640      -1.571256      -0.797574      -0.459255
           -0.142489

 Huckel EWMO eigenvalues for symmetry :  2
           -0.713812      -0.309288

 Huckel EWMO eigenvalues for symmetry :  3
           -0.713812      -0.309288

 **********************************************************************
 *SIRIUS* a direct, restricted step, second order MCSCF program       *
 **********************************************************************

 
     Date and time (Linux)  : Mon Oct 21 14:45:56 2013
     Host name              : c10-6.local                             

 Title lines from ".mol" input file:
     CO                                                                      
                                                                             

 Print level on unit LUPRI =   2 is   0
 Print level on unit LUW4  =   2 is   5

@    Restricted, closed shell Hartree-Fock calculation.

 Initial molecular orbitals are obtained according to
 ".MOSTART EWMO  " input option

     Wave function specification
     ============================
@    For the wave function of type :      >>> HF <<<
@    Number of closed shell electrons          14
@    Number of electrons in active shells       0
@    Total charge of the molecule               0

@    Spin multiplicity and 2 M_S                1         0
     Total number of symmetries                 4
@    Reference state symmetry                   1

     Orbital specifications
     ======================
     Abelian symmetry species          All |    1    2    3    4
                                       --- |  ---  ---  ---  ---
     Total number of orbitals           10 |    6    2    2    0
     Number of basis functions          10 |    6    2    2    0

      ** Automatic occupation of RHF orbitals **

      -- Initial occupation of symmetries is determined from extended Huckel guess.           
      -- Initial occupation of symmetries is :
@    Occupied SCF orbitals               7 |    5    1    1    0

     Maximum number of Fock   iterations      0
     Maximum number of DIIS   iterations     60
     Maximum number of QC-SCF iterations     60
     Threshold for SCF convergence     1.00D-12


 >>>>> DIIS optimization of Hartree-Fock <<<<<

 C1-DIIS algorithm; max error vectors =    5

 Automatic occupation of symmetries with  14 electrons.

 Iter     Total energy    Error norm  Delta(E)    SCF occupation
 -----------------------------------------------------------------------------
     (Precalculated two-electron integrals are transformed to P-supermatrix elements.
      Threshold for discarding integrals :  1.00D-12 )
@  1  -111.198926083       6.48D-01  -1.11D+02     5   1   1   0
      Virial theorem: -V/T =      2.006703
@      MULPOP C       0.31; O      -0.31; 
 -----------------------------------------------------------------------------
@  2  -111.220534553       2.72D-01  -2.16D-02     5   1   1   0
      Virial theorem: -V/T =      2.009378
@      MULPOP C       0.08; O      -0.08; 
 -----------------------------------------------------------------------------
@  3  -111.224398443       1.25D-01  -3.86D-03     5   1   1   0
      Virial theorem: -V/T =      2.007002
@      MULPOP C       0.25; O      -0.25; 
 -----------------------------------------------------------------------------
@  4  -111.225441461       8.10D-03  -1.04D-03     5   1   1   0
      Virial theorem: -V/T =      2.007537
@      MULPOP C       0.20; O      -0.20; 
 -----------------------------------------------------------------------------
@  5  -111.225448917       2.54D-03  -7.46D-06     5   1   1   0
      Virial theorem: -V/T =      2.007478
@      MULPOP C       0.20; O      -0.20; 
 -----------------------------------------------------------------------------
@  6  -111.225449512       1.33D-04  -5.94D-07     5   1   1   0
      Virial theorem: -V/T =      2.007485
@      MULPOP C       0.20; O      -0.20; 
 -----------------------------------------------------------------------------
@  7  -111.225449514       2.16D-05  -2.39D-09     5   1   1   0
      Virial theorem: -V/T =      2.007485
@      MULPOP C       0.20; O      -0.20; 
 -----------------------------------------------------------------------------
@  8  -111.225449514       4.17D-07  -5.16D-11     5   1   1   0
      Virial theorem: -V/T =      2.007485
@      MULPOP C       0.20; O      -0.20; 
 -----------------------------------------------------------------------------
@  9  -111.225449514       4.20D-08  -2.84D-14     5   1   1   0
      Virial theorem: -V/T =      2.007485
@      MULPOP C       0.20; O      -0.20; 
 -----------------------------------------------------------------------------
@ 10  -111.225449514       9.50D-09   5.68D-14     5   1   1   0
      Virial theorem: -V/T =      2.007485
@      MULPOP C       0.20; O      -0.20; 
 -----------------------------------------------------------------------------
@ 11  -111.225449514       1.28D-09  -2.84D-14     5   1   1   0
      Virial theorem: -V/T =      2.007485
@      MULPOP C       0.20; O      -0.20; 
 -----------------------------------------------------------------------------
@ 12  -111.225449514       2.85D-10   0.00D+00     5   1   1   0
      Virial theorem: -V/T =      2.007485
@      MULPOP C       0.20; O      -0.20; 
 -----------------------------------------------------------------------------
@ 13  -111.225449514       4.20D-12  -2.84D-14     5   1   1   0
      Virial theorem: -V/T =      2.007485
@      MULPOP C       0.20; O      -0.20; 
 -----------------------------------------------------------------------------
@ 14  -111.225449514       6.47D-13   0.00D+00     5   1   1   0

@ *** DIIS converged in  14 iterations !
@     Converged SCF energy, gradient:   -111.225449514136    6.47D-13
    - total time used in SIRFCK :              0.00 seconds


 *** SCF orbital energy analysis ***

 Only the five lowest virtual orbital energies printed in each symmetry.

 Number of electrons :   14
 Orbital occupations :    5    1    1    0

 Sym       Hartree-Fock orbital energies

  1    -20.41556719   -11.09218743    -1.44526837    -0.69683241    -0.44513175
         1.00910458

  2     -0.53992472     0.30614399

  3     -0.53992472     0.30614399

    E(LUMO) :     0.30614399 au (symmetry 3)
  - E(HOMO) :    -0.44513175 au (symmetry 1)
  ------------------------------------------
    gap     :     0.75127574 au

 >>> Writing SIRIFC interface file <<<

 >>>> CPU and wall time for SCF :       0.022       0.042


                       .-----------------------------------.
                       | >>> Final results from SIRIUS <<< |
                       `-----------------------------------'


@    Spin multiplicity:           1
@    Spatial symmetry:            1
@    Total charge of molecule:    0

@    Final HF energy:            -111.225449514136                 
@    Nuclear repulsion:            22.174535444365
@    Electronic energy:          -133.399984958501

@    Final gradient norm:           0.000000000001

 
     Date and time (Linux)  : Mon Oct 21 14:45:56 2013
     Host name              : c10-6.local                             

 (Only coefficients >0.0100 are printed.)

 Molecular orbitals for symmetry species  1
 ------------------------------------------

    Orbital         1        2        3        4        5        6
   1 C   :1s     0.0004   0.9936  -0.1238  -0.1696  -0.1651  -0.1224
   2 C   :1s    -0.0083   0.0262   0.2437   0.5589   0.7477   0.9374
   3 C   :2pz   -0.0071   0.0068   0.1659   0.0649  -0.5747   1.2059
   4 O   :1s     0.9942  -0.0001  -0.2225   0.1317  -0.0014   0.1264
   5 O   :1s     0.0273  -0.0068   0.7706  -0.6425   0.0491  -1.0411
   6 O   :2pz   -0.0066   0.0012  -0.2105  -0.6147   0.4446   0.9585

 Molecular orbitals for symmetry species  2
 ------------------------------------------

    Orbital         1        2
   1 C   :2px   -0.4456  -0.9291
   2 O   :2px   -0.7942   0.6565

 Molecular orbitals for symmetry species  3
 ------------------------------------------

    Orbital         1        2
   1 C   :2py   -0.4456  -0.9291
   2 O   :2py   -0.7942   0.6565



 >>>> Total CPU  time used in SIRIUS :      0.03 seconds
 >>>> Total wall time used in SIRIUS :      0.06 seconds

 
     Date and time (Linux)  : Mon Oct 21 14:45:56 2013
     Host name              : c10-6.local                             


                     .---------------------------------------.
                     | End of Wave Function Section (SIRIUS) |
                     `---------------------------------------'



                  .----------------------------------------------.
                  | Geometry steps to make numerical derivatives |
                  `----------------------------------------------'


     Order of analytical energy-derivatives available:   2
     This will be the default.


 Changes of defaults for **NMDDR:
 --------------------------------


     A vibrational analysis is done.
     Which/how is specified in *VIBANA (and **EACH STEP).
     Group used for force constants: C9v            
     Step size used:     0.0100


 Changes of defaults for *PROPAV section:
 ----------------------------------------


     Numerical derivatives of energy calculated to order   3
     from analytical   0. derivatives
     Total order of differentiation:   3
     Effective geometry calculated.


           ************************************************************
           ****************** Numerical derivatives. ******************
           ************************************************************



 Derivatives calculated:
 -----------------------

           Derivatives calculated to order  3
           Analytical derivatives from energies to   0 order.
           3. numerical derivatives from  0. order analytical derivatives


                       Making symmetry adapted coor in C9v
                       -----------------------------------



                     Group matrix elements for the group C9v
                     ---------------------------------------

 1. irep:
  1.00  1.00  1.00  1.00  1.00  1.00  1.00  1.00  1.00  1.00  1.00  1.00  1.00  1.00  1.00  1.00  1.00  1.00
 2. irep:
  1.00  1.00  1.00  1.00  1.00  1.00  1.00  1.00  1.00 -1.00 -1.00 -1.00 -1.00 -1.00 -1.00 -1.00 -1.00 -1.00
 3. irep:
  1.00  0.77  0.17 -0.50 -0.94 -0.94 -0.50  0.17  0.77  1.00  0.77  0.17 -0.50 -0.94 -0.94 -0.50  0.17  0.77
  0.00  0.64  0.98  0.87  0.34 -0.34 -0.87 -0.98 -0.64  0.00  0.64  0.98  0.87  0.34 -0.34 -0.87 -0.98 -0.64
  0.00 -0.64 -0.98 -0.87 -0.34  0.34  0.87  0.98  0.64  0.00  0.64  0.98  0.87  0.34 -0.34 -0.87 -0.98 -0.64
  1.00  0.77  0.17 -0.50 -0.94 -0.94 -0.50  0.17  0.77 -1.00 -0.77 -0.17  0.50  0.94  0.94  0.50 -0.17 -0.77
 4. irep:
  1.00  0.17 -0.94 -0.50  0.77  0.77 -0.50 -0.94  0.17  1.00  0.17 -0.94 -0.50  0.77  0.77 -0.50 -0.94  0.17
  0.00  0.98  0.34 -0.87 -0.64  0.64  0.87 -0.34 -0.98  0.00  0.98  0.34 -0.87 -0.64  0.64  0.87 -0.34 -0.98
  0.00 -0.98 -0.34  0.87  0.64 -0.64 -0.87  0.34  0.98  0.00  0.98  0.34 -0.87 -0.64  0.64  0.87 -0.34 -0.98
  1.00  0.17 -0.94 -0.50  0.77  0.77 -0.50 -0.94  0.17 -1.00 -0.17  0.94  0.50 -0.77 -0.77  0.50  0.94 -0.17
 5. irep:
  1.00 -0.50 -0.50  1.00 -0.50 -0.50  1.00 -0.50 -0.50  1.00 -0.50 -0.50  1.00 -0.50 -0.50  1.00 -0.50 -0.50
  0.00  0.87 -0.87 -0.00  0.87 -0.87 -0.00  0.87 -0.87  0.00  0.87 -0.87 -0.00  0.87 -0.87 -0.00  0.87 -0.87
  0.00 -0.87  0.87  0.00 -0.87  0.87  0.00 -0.87  0.87  0.00  0.87 -0.87 -0.00  0.87 -0.87 -0.00  0.87 -0.87
  1.00 -0.50 -0.50  1.00 -0.50 -0.50  1.00 -0.50 -0.50 -1.00  0.50  0.50 -1.00  0.50  0.50 -1.00  0.50  0.50
 6. irep:
  1.00 -0.94  0.77 -0.50  0.17  0.17 -0.50  0.77 -0.94  1.00 -0.94  0.77 -0.50  0.17  0.17 -0.50  0.77 -0.94
  0.00  0.34 -0.64  0.87 -0.98  0.98 -0.87  0.64 -0.34  0.00  0.34 -0.64  0.87 -0.98  0.98 -0.87  0.64 -0.34
  0.00 -0.34  0.64 -0.87  0.98 -0.98  0.87 -0.64  0.34  0.00  0.34 -0.64  0.87 -0.98  0.98 -0.87  0.64 -0.34
  1.00 -0.94  0.77 -0.50  0.17  0.17 -0.50  0.77 -0.94 -1.00  0.94 -0.77  0.50 -0.17 -0.17  0.50 -0.77  0.94
                                      


 Characters for the group C9v
 ----------------------------

 1. irep:
  1.0  1.0  1.0  1.0  1.0  1.0  1.0  1.0  1.0  1.0  1.0  1.0  1.0  1.0  1.0  1.0  1.0  1.0
 2. irep:
  1.0  1.0  1.0  1.0  1.0  1.0  1.0  1.0  1.0 -1.0 -1.0 -1.0 -1.0 -1.0 -1.0 -1.0 -1.0 -1.0
 3. irep:
  2.0  1.5  0.3 -1.0 -1.9 -1.9 -1.0  0.3  1.5  0.0  0.0  0.0  0.0  0.0  0.0  0.0  0.0  0.0
 4. irep:
  2.0  0.3 -1.9 -1.0  1.5  1.5 -1.0 -1.9  0.3  0.0  0.0  0.0  0.0  0.0  0.0  0.0  0.0  0.0
 5. irep:
  2.0 -1.0 -1.0  2.0 -1.0 -1.0  2.0 -1.0 -1.0  0.0  0.0  0.0  0.0  0.0  0.0  0.0  0.0  0.0
 6. irep:
  2.0 -1.9  1.5 -1.0  0.3  0.3 -1.0  1.5 -1.9  0.0  0.0  0.0  0.0  0.0  0.0  0.0  0.0  0.0
                                      


                               Symmetry coordinates
                               --------------------

Symmetry   1       1       3       3       3       3
        0.0000  0.0000  1.0000  0.0000  0.0000  0.0000
        0.0000  0.0000 -0.0000  0.0000  1.0000  0.0000
        1.0000  0.0000  0.0000  0.0000  0.0000  0.0000
        0.0000  0.0000  0.0000  1.0000  0.0000  0.0000
        0.0000  0.0000  0.0000 -0.0000  0.0000  1.0000
        0.0000  1.0000  0.0000  0.0000  0.0000  0.0000
                             
                             
                                


                   Dependent and indepenent force coefficients
                   -------------------------------------------

     Dependent components   Independent components     coefficients
              5   5                  3   3                 1.00
              6   5                  4   3                 1.00
              6   6                  4   4                 1.00


                       Coordinate dependency in cartesians.
                       ------------------------------------

     Number of independentforce constants.   1
     Dependent components      Independent components     Coeffisient
             5   5   1             3   3   1                1.0000
                                 
                                 


                       Coordinate dependency in cartesians.
                       ------------------------------------

     Number of independentforce constants.   1
     Dependent components      Independent components     Coeffisient
             5   5   2             3   3   2                1.0000
                                 
                                 


                       Coordinate dependency in cartesians.
                       ------------------------------------

     Number of independentforce constants.   1
     Dependent components      Independent components     Coeffisient
             6   5   1             4   3   1                1.0000
                                 
                                 


                       Coordinate dependency in cartesians.
                       ------------------------------------

     Number of independentforce constants.   1
     Dependent components      Independent components     Coeffisient
             6   5   2             4   3   2                1.0000
                                 
                                 


                       Coordinate dependency in cartesians.
                       ------------------------------------

     Number of independentforce constants.   1
     Dependent components      Independent components     Coeffisient
             6   6   1             4   4   1                1.0000
                                 
                                 


                       Coordinate dependency in cartesians.
                       ------------------------------------

     Number of independentforce constants.   1
     Dependent components      Independent components     Coeffisient
             6   6   2             4   4   2                1.0000
                                 
                                 


 Next numerical derivative component
 -----------------------------------

    1


 **************************************************************************************
 ****************** Output of molecule and basis set info suppressed ******************
 **************************************************************************************



                      SYMADD: Requested addition of symmetry
                      --------------------------------------

 Symmetry test threshold:  5.00E-06

 - molecule centered at center of mass and rotated so
   principal axes of inertia are along coordinate axes.

 Symmetry class found: C(oo,v)        

 The following elements were found:   X  Y     


                     .---------------------------------------.
                     | Starting in Integral Section (HERMIT) |
                     `---------------------------------------'



    *************************************************************************
    ****************** Output from HERMIT input processing ******************
    *************************************************************************


 Threshold for neglecting two-electron integrals:  1.00D-12
 Number of two-electron integrals written:         512 ( 33.2% )
 Megabytes written:                              0.007

 >>>> Total CPU  time used in HERMIT:   0.01 seconds
 >>>> Total wall time used in HERMIT:   0.02 seconds


                        .----------------------------------.
                        | End of Integral Section (HERMIT) |
                        `----------------------------------'



                   .--------------------------------------------.
                   | Starting in Wave Function Section (SIRIUS) |
                   `--------------------------------------------'


 *** Output from Huckel module :

     Using EWMO model:          T
     Using EHT  model:          F
     Number of Huckel orbitals each symmetry:    6    2    2    0

 EWMO - Energy Weighted Maximum Overlap - is a Huckel type method,
        which normally is better than Extended Huckel Theory.
 Reference: Linderberg and Ohrn, Propagators in Quantum Chemistry (Wiley, 1973)

 Huckel EWMO eigenvalues for symmetry :  1
          -20.685780     -11.348903      -1.573580      -0.797338      -0.458301
           -0.140999

 Huckel EWMO eigenvalues for symmetry :  2
           -0.714837      -0.308263

 Huckel EWMO eigenvalues for symmetry :  3
           -0.714837      -0.308263

 **********************************************************************
 *SIRIUS* a direct, restricted step, second order MCSCF program       *
 **********************************************************************

 (Wave function specification NOT suppressed here, because symmetry has changed.)

 
     Date and time (Linux)  : Mon Oct 21 14:45:56 2013
     Host name              : c10-6.local                             

 Title lines from ".mol" input file:
     CO                                                                      
                                                                             

 Print level on unit LUPRI =   2 is   0
 Print level on unit LUW4  =   2 is   3

@    Restricted, closed shell Hartree-Fock calculation.

 Initial molecular orbitals are obtained according to
 ".MOSTART EWMO  " input option

     Wave function specification
     ============================
@    For the wave function of type :      >>> HF <<<
@    Number of closed shell electrons          14
@    Number of electrons in active shells       0
@    Total charge of the molecule               0

@    Spin multiplicity and 2 M_S                1         0
     Total number of symmetries                 4
@    Reference state symmetry                   1

     Orbital specifications
     ======================
     Abelian symmetry species          All |    1    2    3    4
                                       --- |  ---  ---  ---  ---
     Total number of orbitals           10 |    6    2    2    0
     Number of basis functions          10 |    6    2    2    0

      ** Automatic occupation of RHF orbitals **

      -- Initial occupation of symmetries is determined from extended Huckel guess.           
      -- Initial occupation of symmetries is :
@    Occupied SCF orbitals               7 |    5    1    1    0

     Maximum number of Fock   iterations      0
     Maximum number of DIIS   iterations     60
     Maximum number of QC-SCF iterations     60
     Threshold for SCF convergence     1.00D-12


 >>>>> DIIS optimization of Hartree-Fock <<<<<

 C1-DIIS algorithm; max error vectors =    5

 Automatic occupation of symmetries with  14 electrons.

 Iter     Total energy    Error norm  Delta(E)    SCF occupation
 -----------------------------------------------------------------------------
     (Precalculated two-electron integrals are transformed to P-supermatrix elements.
      Threshold for discarding integrals :  1.00D-12 )
@  1  -111.199470430       6.44D-01   2.60D-02     5   1   1   0
      Virial theorem: -V/T =      2.006705
@      MULPOP C       0.30; O      -0.30; 
 -----------------------------------------------------------------------------
@  2  -111.220935422       2.58D-01  -2.15D-02     5   1   1   0
      Virial theorem: -V/T =      2.009217
@      MULPOP C       0.09; O      -0.09; 
 -----------------------------------------------------------------------------
@  3  -111.224351942       1.23D-01  -3.42D-03     5   1   1   0
      Virial theorem: -V/T =      2.006919
@      MULPOP C       0.25; O      -0.25; 
 -----------------------------------------------------------------------------
@  4  -111.225362629       7.89D-03  -1.01D-03     5   1   1   0
      Virial theorem: -V/T =      2.007460
@      MULPOP C       0.20; O      -0.20; 
 -----------------------------------------------------------------------------
@  5  -111.225369459       2.33D-03  -6.83D-06     5   1   1   0
      Virial theorem: -V/T =      2.007400
@      MULPOP C       0.20; O      -0.20; 
 -----------------------------------------------------------------------------
@  6  -111.225369950       1.29D-04  -4.91D-07     5   1   1   0
      Virial theorem: -V/T =      2.007406
@      MULPOP C       0.20; O      -0.20; 
 -----------------------------------------------------------------------------
@  7  -111.225369952       2.07D-05  -2.35D-09     5   1   1   0
      Virial theorem: -V/T =      2.007406
@      MULPOP C       0.20; O      -0.20; 
 -----------------------------------------------------------------------------
@  8  -111.225369952       4.07D-07  -4.81D-11     5   1   1   0
      Virial theorem: -V/T =      2.007406
@      MULPOP C       0.20; O      -0.20; 
 -----------------------------------------------------------------------------
@  9  -111.225369952       4.14D-08  -5.68D-14     5   1   1   0
      Virial theorem: -V/T =      2.007406
@      MULPOP C       0.20; O      -0.20; 
 -----------------------------------------------------------------------------
@ 10  -111.225369952       9.29D-09   2.84D-14     5   1   1   0
      Virial theorem: -V/T =      2.007406
@      MULPOP C       0.20; O      -0.20; 
 -----------------------------------------------------------------------------
@ 11  -111.225369952       1.18D-09   0.00D+00     5   1   1   0
      Virial theorem: -V/T =      2.007406
@      MULPOP C       0.20; O      -0.20; 
 -----------------------------------------------------------------------------
@ 12  -111.225369952       2.93D-10   2.84D-14     5   1   1   0
      Virial theorem: -V/T =      2.007406
@      MULPOP C       0.20; O      -0.20; 
 -----------------------------------------------------------------------------
@ 13  -111.225369952       5.76D-12  -2.84D-14     5   1   1   0
      Virial theorem: -V/T =      2.007406
@      MULPOP C       0.20; O      -0.20; 
 -----------------------------------------------------------------------------
@ 14  -111.225369952       7.76D-13  -2.84D-14     5   1   1   0

@ *** DIIS converged in  14 iterations !
@     Converged SCF energy, gradient:   -111.225369952367    7.76D-13
    - total time used in SIRFCK :              0.00 seconds


 *** SCF orbital energy analysis ***

 Only the five lowest virtual orbital energies printed in each symmetry.

 Number of electrons :   14
 Orbital occupations :    5    1    1    0

 Sym       Hartree-Fock orbital energies

  1    -20.41821344   -11.09252569    -1.44974067    -0.69762458    -0.44554561
         1.01849975

  2     -0.54331994     0.30834612

  3     -0.54331994     0.30834612

    E(LUMO) :     0.30834612 au (symmetry 2)
  - E(HOMO) :    -0.44554561 au (symmetry 1)
  ------------------------------------------
    gap     :     0.75389173 au

 >>> Writing SIRIFC interface file <<<

 >>>> CPU and wall time for SCF :       0.020       0.041


                       .-----------------------------------.
                       | >>> Final results from SIRIUS <<< |
                       `-----------------------------------'


@    Spin multiplicity:           1
@    Spatial symmetry:            1
@    Total charge of molecule:    0

@    Final HF energy:            -111.225369952367                 
@    Nuclear repulsion:            22.277450468327
@    Electronic energy:          -133.502820420694

@    Final gradient norm:           0.000000000001

 
     Date and time (Linux)  : Mon Oct 21 14:45:56 2013
     Host name              : c10-6.local                             



 >>>> Total CPU  time used in SIRIUS :      0.03 seconds
 >>>> Total wall time used in SIRIUS :      0.05 seconds

 
     Date and time (Linux)  : Mon Oct 21 14:45:56 2013
     Host name              : c10-6.local                             


                     .---------------------------------------.
                     | End of Wave Function Section (SIRIUS) |
                     `---------------------------------------'



 Next numerical derivative component
 -----------------------------------

    1


 **************************************************************************************
 ****************** Output of molecule and basis set info suppressed ******************
 **************************************************************************************



                      SYMADD: Requested addition of symmetry
                      --------------------------------------

 Symmetry test threshold:  5.00E-06

 - molecule centered at center of mass and rotated so
   principal axes of inertia are along coordinate axes.

 Symmetry class found: C(oo,v)        

 The following elements were found:   X  Y     


                     .---------------------------------------.
                     | Starting in Integral Section (HERMIT) |
                     `---------------------------------------'



    *************************************************************************
    ****************** Output from HERMIT input processing ******************
    *************************************************************************


 Threshold for neglecting two-electron integrals:  1.00D-12
 Number of two-electron integrals written:         512 ( 33.2% )
 Megabytes written:                              0.007

 >>>> Total CPU  time used in HERMIT:   0.01 seconds
 >>>> Total wall time used in HERMIT:   0.02 seconds


                        .----------------------------------.
                        | End of Integral Section (HERMIT) |
                        `----------------------------------'



                   .--------------------------------------------.
                   | Starting in Wave Function Section (SIRIUS) |
                   `--------------------------------------------'


 *** Output from Huckel module :

     Using EWMO model:          T
     Using EHT  model:          F
     Number of Huckel orbitals each symmetry:    6    2    2    0

 EWMO - Energy Weighted Maximum Overlap - is a Huckel type method,
        which normally is better than Extended Huckel Theory.
 Reference: Linderberg and Ohrn, Propagators in Quantum Chemistry (Wiley, 1973)

 Huckel EWMO eigenvalues for symmetry :  1
          -20.685594     -11.348383      -1.568931      -0.797808      -0.460203
           -0.143981

 Huckel EWMO eigenvalues for symmetry :  2
           -0.712794      -0.310306

 Huckel EWMO eigenvalues for symmetry :  3
           -0.712794      -0.310306

 **********************************************************************
 *SIRIUS* a direct, restricted step, second order MCSCF program       *
 **********************************************************************

 (Wave function specification NOT suppressed here, because symmetry has changed.)

 
     Date and time (Linux)  : Mon Oct 21 14:45:56 2013
     Host name              : c10-6.local                             

 Title lines from ".mol" input file:
     CO                                                                      
                                                                             

 Print level on unit LUPRI =   2 is   0
 Print level on unit LUW4  =   2 is   3

@    Restricted, closed shell Hartree-Fock calculation.

 Initial molecular orbitals are obtained according to
 ".MOSTART EWMO  " input option

     Wave function specification
     ============================
@    For the wave function of type :      >>> HF <<<
@    Number of closed shell electrons          14
@    Number of electrons in active shells       0
@    Total charge of the molecule               0

@    Spin multiplicity and 2 M_S                1         0
     Total number of symmetries                 4
@    Reference state symmetry                   1

     Orbital specifications
     ======================
     Abelian symmetry species          All |    1    2    3    4
                                       --- |  ---  ---  ---  ---
     Total number of orbitals           10 |    6    2    2    0
     Number of basis functions          10 |    6    2    2    0

      ** Automatic occupation of RHF orbitals **

      -- Initial occupation of symmetries is determined from extended Huckel guess.           
      -- Initial occupation of symmetries is :
@    Occupied SCF orbitals               7 |    5    1    1    0

     Maximum number of Fock   iterations      0
     Maximum number of DIIS   iterations     60
     Maximum number of QC-SCF iterations     60
     Threshold for SCF convergence     1.00D-12


 >>>>> DIIS optimization of Hartree-Fock <<<<<

 C1-DIIS algorithm; max error vectors =    5

 Automatic occupation of symmetries with  14 electrons.

 Iter     Total energy    Error norm  Delta(E)    SCF occupation
 -----------------------------------------------------------------------------
     (Precalculated two-electron integrals are transformed to P-supermatrix elements.
      Threshold for discarding integrals :  1.00D-12 )
@  1  -111.198191279       6.53D-01   2.72D-02     5   1   1   0
      Virial theorem: -V/T =      2.006696
@      MULPOP C       0.32; O      -0.32; 
 -----------------------------------------------------------------------------
@  2  -111.219932651       2.86D-01  -2.17D-02     5   1   1   0
      Virial theorem: -V/T =      2.009535
@      MULPOP C       0.08; O      -0.08; 
 -----------------------------------------------------------------------------
@  3  -111.224292454       1.26D-01  -4.36D-03     5   1   1   0
      Virial theorem: -V/T =      2.007082
@      MULPOP C       0.25; O      -0.25; 
 -----------------------------------------------------------------------------
@  4  -111.225362776       8.36D-03  -1.07D-03     5   1   1   0
      Virial theorem: -V/T =      2.007608
@      MULPOP C       0.20; O      -0.20; 
 -----------------------------------------------------------------------------
@  5  -111.225370967       2.76D-03  -8.19D-06     5   1   1   0
      Virial theorem: -V/T =      2.007550
@      MULPOP C       0.20; O      -0.20; 
 -----------------------------------------------------------------------------
@  6  -111.225371678       1.39D-04  -7.11D-07     5   1   1   0
      Virial theorem: -V/T =      2.007558
@      MULPOP C       0.20; O      -0.20; 
 -----------------------------------------------------------------------------
@  7  -111.225371681       2.25D-05  -2.45D-09     5   1   1   0
      Virial theorem: -V/T =      2.007558
@      MULPOP C       0.20; O      -0.20; 
 -----------------------------------------------------------------------------
@  8  -111.225371681       4.27D-07  -5.54D-11     5   1   1   0
      Virial theorem: -V/T =      2.007558
@      MULPOP C       0.20; O      -0.20; 
 -----------------------------------------------------------------------------
@  9  -111.225371681       4.27D-08  -2.84D-14     5   1   1   0
      Virial theorem: -V/T =      2.007558
@      MULPOP C       0.20; O      -0.20; 
 -----------------------------------------------------------------------------
@ 10  -111.225371681       9.75D-09   2.84D-14     5   1   1   0
      Virial theorem: -V/T =      2.007558
@      MULPOP C       0.20; O      -0.20; 
 -----------------------------------------------------------------------------
@ 11  -111.225371681       1.33D-09  -8.53D-14     5   1   1   0
      Virial theorem: -V/T =      2.007558
@      MULPOP C       0.20; O      -0.20; 
 -----------------------------------------------------------------------------
@ 12  -111.225371681       2.66D-10   5.68D-14     5   1   1   0
      Virial theorem: -V/T =      2.007558
@      MULPOP C       0.20; O      -0.20; 
 -----------------------------------------------------------------------------
@ 13  -111.225371681       3.26D-12  -2.84D-14     5   1   1   0
      Virial theorem: -V/T =      2.007558
@      MULPOP C       0.20; O      -0.20; 
 -----------------------------------------------------------------------------
@ 14  -111.225371681       5.20D-13   2.84D-14     5   1   1   0

@ *** DIIS converged in  14 iterations !
@     Converged SCF energy, gradient:   -111.225371680644    5.20D-13
    - total time used in SIRFCK :              0.00 seconds


 *** SCF orbital energy analysis ***

 Only the five lowest virtual orbital energies printed in each symmetry.

 Number of electrons :   14
 Orbital occupations :    5    1    1    0

 Sym       Hartree-Fock orbital energies

  1    -20.41293195   -11.09187595    -1.44082052    -0.69605009    -0.44471074
         0.99978788

  2     -0.53655347     0.30396160

  3     -0.53655347     0.30396160

    E(LUMO) :     0.30396160 au (symmetry 3)
  - E(HOMO) :    -0.44471074 au (symmetry 1)
  ------------------------------------------
    gap     :     0.74867234 au

 >>> Writing SIRIFC interface file <<<

 >>>> CPU and wall time for SCF :       0.020       0.050


                       .-----------------------------------.
                       | >>> Final results from SIRIUS <<< |
                       `-----------------------------------'


@    Spin multiplicity:           1
@    Spatial symmetry:            1
@    Total charge of molecule:    0

@    Final HF energy:            -111.225371680644                 
@    Nuclear repulsion:            22.072566919883
@    Electronic energy:          -133.297938600527

@    Final gradient norm:           0.000000000001

 
     Date and time (Linux)  : Mon Oct 21 14:45:56 2013
     Host name              : c10-6.local                             



 >>>> Total CPU  time used in SIRIUS :      0.03 seconds
 >>>> Total wall time used in SIRIUS :      0.06 seconds

 
     Date and time (Linux)  : Mon Oct 21 14:45:56 2013
     Host name              : c10-6.local                             


                     .---------------------------------------.
                     | End of Wave Function Section (SIRIUS) |
                     `---------------------------------------'



 Next numerical derivative component
 -----------------------------------

    2


 **************************************************************************************
 ****************** Output of molecule and basis set info suppressed ******************
 **************************************************************************************



                      SYMADD: Requested addition of symmetry
                      --------------------------------------

 Symmetry test threshold:  5.00E-06

 - molecule centered at center of mass and rotated so
   principal axes of inertia are along coordinate axes.

 Symmetry class found: C(oo,v)        

 The following elements were found:   X  Y     


                     .---------------------------------------.
                     | Starting in Integral Section (HERMIT) |
                     `---------------------------------------'



    *************************************************************************
    ****************** Output from HERMIT input processing ******************
    *************************************************************************


 Threshold for neglecting two-electron integrals:  1.00D-12
 Number of two-electron integrals written:         512 ( 33.2% )
 Megabytes written:                              0.007

 >>>> Total CPU  time used in HERMIT:   0.01 seconds
 >>>> Total wall time used in HERMIT:   0.04 seconds


                        .----------------------------------.
                        | End of Integral Section (HERMIT) |
                        `----------------------------------'



                   .--------------------------------------------.
                   | Starting in Wave Function Section (SIRIUS) |
                   `--------------------------------------------'


 *** Output from Huckel module :

     Using EWMO model:          T
     Using EHT  model:          F
     Number of Huckel orbitals each symmetry:    6    2    2    0

 EWMO - Energy Weighted Maximum Overlap - is a Huckel type method,
        which normally is better than Extended Huckel Theory.
 Reference: Linderberg and Ohrn, Propagators in Quantum Chemistry (Wiley, 1973)

 Huckel EWMO eigenvalues for symmetry :  1
          -20.685594     -11.348383      -1.568931      -0.797808      -0.460203
           -0.143981

 Huckel EWMO eigenvalues for symmetry :  2
           -0.712794      -0.310306

 Huckel EWMO eigenvalues for symmetry :  3
           -0.712794      -0.310306

 **********************************************************************
 *SIRIUS* a direct, restricted step, second order MCSCF program       *
 **********************************************************************

 (Wave function specification NOT suppressed here, because symmetry has changed.)

 
     Date and time (Linux)  : Mon Oct 21 14:45:56 2013
     Host name              : c10-6.local                             

 Title lines from ".mol" input file:
     CO                                                                      
                                                                             

 Print level on unit LUPRI =   2 is   0
 Print level on unit LUW4  =   2 is   3

@    Restricted, closed shell Hartree-Fock calculation.

 Initial molecular orbitals are obtained according to
 ".MOSTART EWMO  " input option

     Wave function specification
     ============================
@    For the wave function of type :      >>> HF <<<
@    Number of closed shell electrons          14
@    Number of electrons in active shells       0
@    Total charge of the molecule               0

@    Spin multiplicity and 2 M_S                1         0
     Total number of symmetries                 4
@    Reference state symmetry                   1

     Orbital specifications
     ======================
     Abelian symmetry species          All |    1    2    3    4
                                       --- |  ---  ---  ---  ---
     Total number of orbitals           10 |    6    2    2    0
     Number of basis functions          10 |    6    2    2    0

      ** Automatic occupation of RHF orbitals **

      -- Initial occupation of symmetries is determined from extended Huckel guess.           
      -- Initial occupation of symmetries is :
@    Occupied SCF orbitals               7 |    5    1    1    0

     Maximum number of Fock   iterations      0
     Maximum number of DIIS   iterations     60
     Maximum number of QC-SCF iterations     60
     Threshold for SCF convergence     1.00D-12


 >>>>> DIIS optimization of Hartree-Fock <<<<<

 C1-DIIS algorithm; max error vectors =    5

 Automatic occupation of symmetries with  14 electrons.

 Iter     Total energy    Error norm  Delta(E)    SCF occupation
 -----------------------------------------------------------------------------
     (Precalculated two-electron integrals are transformed to P-supermatrix elements.
      Threshold for discarding integrals :  1.00D-12 )
@  1  -111.198191279       6.53D-01   2.72D-02     5   1   1   0
      Virial theorem: -V/T =      2.006696
@      MULPOP C       0.32; O      -0.32; 
 -----------------------------------------------------------------------------
@  2  -111.219932651       2.86D-01  -2.17D-02     5   1   1   0
      Virial theorem: -V/T =      2.009535
@      MULPOP C       0.08; O      -0.08; 
 -----------------------------------------------------------------------------
@  3  -111.224292454       1.26D-01  -4.36D-03     5   1   1   0
      Virial theorem: -V/T =      2.007082
@      MULPOP C       0.25; O      -0.25; 
 -----------------------------------------------------------------------------
@  4  -111.225362776       8.36D-03  -1.07D-03     5   1   1   0
      Virial theorem: -V/T =      2.007608
@      MULPOP C       0.20; O      -0.20; 
 -----------------------------------------------------------------------------
@  5  -111.225370967       2.76D-03  -8.19D-06     5   1   1   0
      Virial theorem: -V/T =      2.007550
@      MULPOP C       0.20; O      -0.20; 
 -----------------------------------------------------------------------------
@  6  -111.225371678       1.39D-04  -7.11D-07     5   1   1   0
      Virial theorem: -V/T =      2.007558
@      MULPOP C       0.20; O      -0.20; 
 -----------------------------------------------------------------------------
@  7  -111.225371681       2.25D-05  -2.45D-09     5   1   1   0
      Virial theorem: -V/T =      2.007558
@      MULPOP C       0.20; O      -0.20; 
 -----------------------------------------------------------------------------
@  8  -111.225371681       4.27D-07  -5.54D-11     5   1   1   0
      Virial theorem: -V/T =      2.007558
@      MULPOP C       0.20; O      -0.20; 
 -----------------------------------------------------------------------------
@  9  -111.225371681       4.27D-08  -2.84D-14     5   1   1   0
      Virial theorem: -V/T =      2.007558
@      MULPOP C       0.20; O      -0.20; 
 -----------------------------------------------------------------------------
@ 10  -111.225371681       9.75D-09   2.84D-14     5   1   1   0
      Virial theorem: -V/T =      2.007558
@      MULPOP C       0.20; O      -0.20; 
 -----------------------------------------------------------------------------
@ 11  -111.225371681       1.33D-09  -8.53D-14     5   1   1   0
      Virial theorem: -V/T =      2.007558
@      MULPOP C       0.20; O      -0.20; 
 -----------------------------------------------------------------------------
@ 12  -111.225371681       2.66D-10   5.68D-14     5   1   1   0
      Virial theorem: -V/T =      2.007558
@      MULPOP C       0.20; O      -0.20; 
 -----------------------------------------------------------------------------
@ 13  -111.225371681       3.26D-12  -2.84D-14     5   1   1   0
      Virial theorem: -V/T =      2.007558
@      MULPOP C       0.20; O      -0.20; 
 -----------------------------------------------------------------------------
@ 14  -111.225371681       5.20D-13   2.84D-14     5   1   1   0

@ *** DIIS converged in  14 iterations !
@     Converged SCF energy, gradient:   -111.225371680644    5.20D-13
    - total time used in SIRFCK :              0.00 seconds


 *** SCF orbital energy analysis ***

 Only the five lowest virtual orbital energies printed in each symmetry.

 Number of electrons :   14
 Orbital occupations :    5    1    1    0

 Sym       Hartree-Fock orbital energies

  1    -20.41293195   -11.09187595    -1.44082052    -0.69605009    -0.44471074
         0.99978788

  2     -0.53655347     0.30396160

  3     -0.53655347     0.30396160

    E(LUMO) :     0.30396160 au (symmetry 3)
  - E(HOMO) :    -0.44471074 au (symmetry 1)
  ------------------------------------------
    gap     :     0.74867234 au

 >>> Writing SIRIFC interface file <<<

 >>>> CPU and wall time for SCF :       0.020       0.040


                       .-----------------------------------.
                       | >>> Final results from SIRIUS <<< |
                       `-----------------------------------'


@    Spin multiplicity:           1
@    Spatial symmetry:            1
@    Total charge of molecule:    0

@    Final HF energy:            -111.225371680644                 
@    Nuclear repulsion:            22.072566919883
@    Electronic energy:          -133.297938600527

@    Final gradient norm:           0.000000000001

 
     Date and time (Linux)  : Mon Oct 21 14:45:56 2013
     Host name              : c10-6.local                             



 >>>> Total CPU  time used in SIRIUS :      0.03 seconds
 >>>> Total wall time used in SIRIUS :      0.06 seconds

 
     Date and time (Linux)  : Mon Oct 21 14:45:56 2013
     Host name              : c10-6.local                             


                     .---------------------------------------.
                     | End of Wave Function Section (SIRIUS) |
                     `---------------------------------------'



 Next numerical derivative component
 -----------------------------------

    2


 **************************************************************************************
 ****************** Output of molecule and basis set info suppressed ******************
 **************************************************************************************



                      SYMADD: Requested addition of symmetry
                      --------------------------------------

 Symmetry test threshold:  5.00E-06

 - molecule centered at center of mass and rotated so
   principal axes of inertia are along coordinate axes.

 Symmetry class found: C(oo,v)        

 The following elements were found:   X  Y     


                     .---------------------------------------.
                     | Starting in Integral Section (HERMIT) |
                     `---------------------------------------'



    *************************************************************************
    ****************** Output from HERMIT input processing ******************
    *************************************************************************


 Threshold for neglecting two-electron integrals:  1.00D-12
 Number of two-electron integrals written:         512 ( 33.2% )
 Megabytes written:                              0.007

 >>>> Total CPU  time used in HERMIT:   0.01 seconds
 >>>> Total wall time used in HERMIT:   0.02 seconds


                        .----------------------------------.
                        | End of Integral Section (HERMIT) |
                        `----------------------------------'



                   .--------------------------------------------.
                   | Starting in Wave Function Section (SIRIUS) |
                   `--------------------------------------------'


 *** Output from Huckel module :

     Using EWMO model:          T
     Using EHT  model:          F
     Number of Huckel orbitals each symmetry:    6    2    2    0

 EWMO - Energy Weighted Maximum Overlap - is a Huckel type method,
        which normally is better than Extended Huckel Theory.
 Reference: Linderberg and Ohrn, Propagators in Quantum Chemistry (Wiley, 1973)

 Huckel EWMO eigenvalues for symmetry :  1
          -20.685780     -11.348903      -1.573580      -0.797338      -0.458301
           -0.140999

 Huckel EWMO eigenvalues for symmetry :  2
           -0.714837      -0.308263

 Huckel EWMO eigenvalues for symmetry :  3
           -0.714837      -0.308263

 **********************************************************************
 *SIRIUS* a direct, restricted step, second order MCSCF program       *
 **********************************************************************

 (Wave function specification NOT suppressed here, because symmetry has changed.)

 
     Date and time (Linux)  : Mon Oct 21 14:45:56 2013
     Host name              : c10-6.local                             

 Title lines from ".mol" input file:
     CO                                                                      
                                                                             

 Print level on unit LUPRI =   2 is   0
 Print level on unit LUW4  =   2 is   3

@    Restricted, closed shell Hartree-Fock calculation.

 Initial molecular orbitals are obtained according to
 ".MOSTART EWMO  " input option

     Wave function specification
     ============================
@    For the wave function of type :      >>> HF <<<
@    Number of closed shell electrons          14
@    Number of electrons in active shells       0
@    Total charge of the molecule               0

@    Spin multiplicity and 2 M_S                1         0
     Total number of symmetries                 4
@    Reference state symmetry                   1

     Orbital specifications
     ======================
     Abelian symmetry species          All |    1    2    3    4
                                       --- |  ---  ---  ---  ---
     Total number of orbitals           10 |    6    2    2    0
     Number of basis functions          10 |    6    2    2    0

      ** Automatic occupation of RHF orbitals **

      -- Initial occupation of symmetries is determined from extended Huckel guess.           
      -- Initial occupation of symmetries is :
@    Occupied SCF orbitals               7 |    5    1    1    0

     Maximum number of Fock   iterations      0
     Maximum number of DIIS   iterations     60
     Maximum number of QC-SCF iterations     60
     Threshold for SCF convergence     1.00D-12


 >>>>> DIIS optimization of Hartree-Fock <<<<<

 C1-DIIS algorithm; max error vectors =    5

 Automatic occupation of symmetries with  14 electrons.

 Iter     Total energy    Error norm  Delta(E)    SCF occupation
 -----------------------------------------------------------------------------
     (Precalculated two-electron integrals are transformed to P-supermatrix elements.
      Threshold for discarding integrals :  1.00D-12 )
@  1  -111.199470430       6.44D-01   2.59D-02     5   1   1   0
      Virial theorem: -V/T =      2.006705
@      MULPOP C       0.30; O      -0.30; 
 -----------------------------------------------------------------------------
@  2  -111.220935422       2.58D-01  -2.15D-02     5   1   1   0
      Virial theorem: -V/T =      2.009217
@      MULPOP C       0.09; O      -0.09; 
 -----------------------------------------------------------------------------
@  3  -111.224351942       1.23D-01  -3.42D-03     5   1   1   0
      Virial theorem: -V/T =      2.006919
@      MULPOP C       0.25; O      -0.25; 
 -----------------------------------------------------------------------------
@  4  -111.225362629       7.89D-03  -1.01D-03     5   1   1   0
      Virial theorem: -V/T =      2.007460
@      MULPOP C       0.20; O      -0.20; 
 -----------------------------------------------------------------------------
@  5  -111.225369459       2.33D-03  -6.83D-06     5   1   1   0
      Virial theorem: -V/T =      2.007400
@      MULPOP C       0.20; O      -0.20; 
 -----------------------------------------------------------------------------
@  6  -111.225369950       1.29D-04  -4.91D-07     5   1   1   0
      Virial theorem: -V/T =      2.007406
@      MULPOP C       0.20; O      -0.20; 
 -----------------------------------------------------------------------------
@  7  -111.225369952       2.07D-05  -2.35D-09     5   1   1   0
      Virial theorem: -V/T =      2.007406
@      MULPOP C       0.20; O      -0.20; 
 -----------------------------------------------------------------------------
@  8  -111.225369952       4.07D-07  -4.81D-11     5   1   1   0
      Virial theorem: -V/T =      2.007406
@      MULPOP C       0.20; O      -0.20; 
 -----------------------------------------------------------------------------
@  9  -111.225369952       4.14D-08  -5.68D-14     5   1   1   0
      Virial theorem: -V/T =      2.007406
@      MULPOP C       0.20; O      -0.20; 
 -----------------------------------------------------------------------------
@ 10  -111.225369952       9.29D-09   2.84D-14     5   1   1   0
      Virial theorem: -V/T =      2.007406
@      MULPOP C       0.20; O      -0.20; 
 -----------------------------------------------------------------------------
@ 11  -111.225369952       1.18D-09   0.00D+00     5   1   1   0
      Virial theorem: -V/T =      2.007406
@      MULPOP C       0.20; O      -0.20; 
 -----------------------------------------------------------------------------
@ 12  -111.225369952       2.93D-10   2.84D-14     5   1   1   0
      Virial theorem: -V/T =      2.007406
@      MULPOP C       0.20; O      -0.20; 
 -----------------------------------------------------------------------------
@ 13  -111.225369952       5.76D-12  -2.84D-14     5   1   1   0
      Virial theorem: -V/T =      2.007406
@      MULPOP C       0.20; O      -0.20; 
 -----------------------------------------------------------------------------
@ 14  -111.225369952       7.76D-13  -2.84D-14     5   1   1   0

@ *** DIIS converged in  14 iterations !
@     Converged SCF energy, gradient:   -111.225369952367    7.76D-13
    - total time used in SIRFCK :              0.00 seconds


 *** SCF orbital energy analysis ***

 Only the five lowest virtual orbital energies printed in each symmetry.

 Number of electrons :   14
 Orbital occupations :    5    1    1    0

 Sym       Hartree-Fock orbital energies

  1    -20.41821344   -11.09252569    -1.44974067    -0.69762458    -0.44554561
         1.01849975

  2     -0.54331994     0.30834612

  3     -0.54331994     0.30834612

    E(LUMO) :     0.30834612 au (symmetry 2)
  - E(HOMO) :    -0.44554561 au (symmetry 1)
  ------------------------------------------
    gap     :     0.75389173 au

 >>> Writing SIRIFC interface file <<<

 >>>> CPU and wall time for SCF :       0.021       0.041


                       .-----------------------------------.
                       | >>> Final results from SIRIUS <<< |
                       `-----------------------------------'


@    Spin multiplicity:           1
@    Spatial symmetry:            1
@    Total charge of molecule:    0

@    Final HF energy:            -111.225369952367                 
@    Nuclear repulsion:            22.277450468327
@    Electronic energy:          -133.502820420694

@    Final gradient norm:           0.000000000001

 
     Date and time (Linux)  : Mon Oct 21 14:45:56 2013
     Host name              : c10-6.local                             



 >>>> Total CPU  time used in SIRIUS :      0.03 seconds
 >>>> Total wall time used in SIRIUS :      0.05 seconds

 
     Date and time (Linux)  : Mon Oct 21 14:45:56 2013
     Host name              : c10-6.local                             


                     .---------------------------------------.
                     | End of Wave Function Section (SIRIUS) |
                     `---------------------------------------'



 Next numerical derivative component
 -----------------------------------

    3


 **************************************************************************************
 ****************** Output of molecule and basis set info suppressed ******************
 **************************************************************************************



                      SYMADD: Requested addition of symmetry
                      --------------------------------------

 Symmetry test threshold:  5.00E-06

 - molecule centered at center of mass and rotated so
   principal axes of inertia are along coordinate axes.

 Symmetry class found: C(oo,v)        

 The following elements were found:   X  Y     


                     .---------------------------------------.
                     | Starting in Integral Section (HERMIT) |
                     `---------------------------------------'



    *************************************************************************
    ****************** Output from HERMIT input processing ******************
    *************************************************************************


 Threshold for neglecting two-electron integrals:  1.00D-12
 Number of two-electron integrals written:         512 ( 33.2% )
 Megabytes written:                              0.007

 >>>> Total CPU  time used in HERMIT:   0.01 seconds
 >>>> Total wall time used in HERMIT:   0.02 seconds


                        .----------------------------------.
                        | End of Integral Section (HERMIT) |
[...]

@ *** DIIS converged in  14 iterations !
@     Converged SCF energy, gradient:   -111.225449514136    6.43D-13
    - total time used in SIRFCK :              0.00 seconds


 *** SCF orbital energy analysis ***

 Only the five lowest virtual orbital energies printed in each symmetry.

 Number of electrons :   14
 Orbital occupations :    5    1    1    0

 Sym       Hartree-Fock orbital energies

  1    -20.41556719   -11.09218743    -1.44526837    -0.69683241    -0.44513175
         1.00910458

  2     -0.53992472     0.30614399

  3     -0.53992472     0.30614399

    E(LUMO) :     0.30614399 au (symmetry 3)
  - E(HOMO) :    -0.44513175 au (symmetry 1)
  ------------------------------------------
    gap     :     0.75127574 au

 >>> Writing SIRIFC interface file <<<

 >>>> CPU and wall time for SCF :       0.020       0.039


                       .-----------------------------------.
                       | >>> Final results from SIRIUS <<< |
                       `-----------------------------------'


@    Spin multiplicity:           1
@    Spatial symmetry:            1
@    Total charge of molecule:    0

@    Final HF energy:            -111.225449514136                 
@    Nuclear repulsion:            22.174535444365
@    Electronic energy:          -133.399984958501

@    Final gradient norm:           0.000000000001

 
     Date and time (Linux)  : Mon Oct 21 14:46:01 2013
     Host name              : c10-6.local                             



 >>>> Total CPU  time used in SIRIUS :      0.03 seconds
 >>>> Total wall time used in SIRIUS :      0.05 seconds

 
     Date and time (Linux)  : Mon Oct 21 14:46:01 2013
     Host name              : c10-6.local                             


                     .---------------------------------------.
                     | End of Wave Function Section (SIRIUS) |
                     `---------------------------------------'



                    Numerical gradient in symmetry coordinates
                    ------------------------------------------



                         Gradient in symmetry coordinates
                         --------------------------------

                                     0.00008641
                                    -0.00008641


                        Gradient in cartesian coordinates
                        ---------------------------------

 C          0.0000000000            0.0000000000            0.0000864138
 O          0.0000000000            0.0000000000           -0.0000864138


                     Gradient in Dalton symmetry coordinates
                     ---------------------------------------

                         C    z     0.0000864138
                         O    z    -0.0000864138


                    Numerical hessian in symmetry coordinates
                    -----------------------------------------



                         Hessian in symmetry coordinates
                         -------------------------------


        Notation: irrep/coordinate number

           1/   1      1/   2      3/   3      3/   4      3/   5      3/   6
 1/   1    1.573953
 1/   2   -1.574330    1.573953
 3/   3    0.000000    0.000000    0.000009
 3/   4    0.000000    0.000000   -0.000034    0.000009
 3/   5    0.000000    0.000000    0.000000    0.000000    0.000009
 3/   6    0.000000    0.000000    0.000000    0.000000   -0.000034    0.000009
                                       


                           Cartesian Hessian in GSPHES
                           ---------------------------

            C      x    C      y    C      z    O      x    O      y    O      z

 C      x    0.000009
 C      y    0.000000    0.000009
 C      z    0.000000    0.000000    1.573953

 O      x   -0.000034   -0.000000    0.000000    0.000009
 O      y   -0.000000   -0.000034    0.000000    0.000000    0.000009
 O      z    0.000000    0.000000   -1.574330    0.000000    0.000000    1.573953




           Numerical third derivative of energy in symmetry coordinates
           ------------------------------------------------------------



                Third derivative of energy in symmetry coordinates
                --------------------------------------------------

      Column number    1
      ------------------
     5.220101 -5.220101  0.000000  0.000000  0.000000  0.000000
    -5.220101  5.220101  0.000000  0.000000  0.000000  0.000000
     0.000000  0.000000 -0.727208  0.727089  0.000000  0.000000
     0.000000  0.000000  0.727089 -0.727208  0.000000  0.000000
     0.000000  0.000000  0.000000  0.000000 -0.727208  0.727089
     0.000000  0.000000  0.000000  0.000000  0.727089 -0.727208
                              
      Column number    2
      ------------------
    -5.220101  5.220101  0.000000  0.000000  0.000000  0.000000
     5.220101 -5.220101  0.000000  0.000000  0.000000  0.000000
     0.000000  0.000000  0.727208 -0.727089  0.000000  0.000000
     0.000000  0.000000 -0.727089  0.727208  0.000000  0.000000
     0.000000  0.000000  0.000000  0.000000  0.727208 -0.727089
     0.000000  0.000000  0.000000  0.000000 -0.727089  0.727208
                              
      Column number    3
      ------------------
     0.000000  0.000000 -0.727208  0.727089  0.000000  0.000000
     0.000000  0.000000  0.727208 -0.727089  0.000000  0.000000
    -0.727208  0.727208  0.000000  0.000000  0.000000  0.000000
     0.727089 -0.727089  0.000000  0.000000  0.000000  0.000000
     0.000000  0.000000  0.000000  0.000000  0.000000  0.000000
     0.000000  0.000000  0.000000  0.000000  0.000000  0.000000
                              
      Column number    4
      ------------------
     0.000000  0.000000  0.727089 -0.727208  0.000000  0.000000
     0.000000  0.000000 -0.727089  0.727208  0.000000  0.000000
     0.727089 -0.727089  0.000000  0.000000  0.000000  0.000000
    -0.727208  0.727208  0.000000  0.000000  0.000000  0.000000
     0.000000  0.000000  0.000000  0.000000  0.000000  0.000000
     0.000000  0.000000  0.000000  0.000000  0.000000  0.000000
                              
      Column number    5
      ------------------
     0.000000  0.000000  0.000000  0.000000 -0.727208  0.727089
     0.000000  0.000000  0.000000  0.000000  0.727208 -0.727089
     0.000000  0.000000  0.000000  0.000000  0.000000  0.000000
     0.000000  0.000000  0.000000  0.000000  0.000000  0.000000
    -0.727208  0.727208  0.000000  0.000000  0.000000  0.000000
     0.727089 -0.727089  0.000000  0.000000  0.000000  0.000000
                              
      Column number    6
      ------------------
     0.000000  0.000000  0.000000  0.000000  0.727089 -0.727208
     0.000000  0.000000  0.000000  0.000000 -0.727089  0.727208
     0.000000  0.000000  0.000000  0.000000  0.000000  0.000000
     0.000000  0.000000  0.000000  0.000000  0.000000  0.000000
     0.727089 -0.727089  0.000000  0.000000  0.000000  0.000000
    -0.727208  0.727208  0.000000  0.000000  0.000000  0.000000
                              


               Third derivative of energy in cartesian coordinates
               ---------------------------------------------------

      Column number    1
      ------------------
     0.000000  0.000000 -0.727208  0.000000  0.000000  0.727208
     0.000000  0.000000 -0.000000  0.000000  0.000000  0.000000
    -0.727208 -0.000000  0.000000  0.727089  0.000000  0.000000
     0.000000  0.000000  0.727089  0.000000  0.000000 -0.727089
     0.000000  0.000000  0.000000  0.000000  0.000000 -0.000000
     0.727208  0.000000  0.000000 -0.727089 -0.000000  0.000000
                              
      Column number    2
      ------------------
     0.000000  0.000000 -0.000000  0.000000  0.000000  0.000000
     0.000000  0.000000 -0.727208  0.000000  0.000000  0.727208
    -0.000000 -0.727208  0.000000  0.000000  0.727089  0.000000
     0.000000  0.000000  0.000000  0.000000  0.000000 -0.000000
     0.000000  0.000000  0.727089  0.000000  0.000000 -0.727089
     0.000000  0.727208  0.000000 -0.000000 -0.727089  0.000000
                              
      Column number    3
      ------------------
    -0.727208 -0.000000  0.000000  0.727089  0.000000  0.000000
    -0.000000 -0.727208  0.000000  0.000000  0.727089  0.000000
     0.000000  0.000000  5.220101  0.000000  0.000000 -5.220101
     0.727089  0.000000  0.000000 -0.727208 -0.000000  0.000000
     0.000000  0.727089  0.000000 -0.000000 -0.727208  0.000000
     0.000000  0.000000 -5.220101  0.000000  0.000000  5.220101
                              
      Column number    4
      ------------------
     0.000000  0.000000  0.727089  0.000000  0.000000 -0.727089
     0.000000  0.000000  0.000000  0.000000  0.000000 -0.000000
     0.727089  0.000000  0.000000 -0.727208 -0.000000  0.000000
     0.000000  0.000000 -0.727208  0.000000  0.000000  0.727208
     0.000000  0.000000 -0.000000  0.000000  0.000000  0.000000
    -0.727089 -0.000000  0.000000  0.727208  0.000000  0.000000
                              
      Column number    5
      ------------------
     0.000000  0.000000  0.000000  0.000000  0.000000 -0.000000
     0.000000  0.000000  0.727089  0.000000  0.000000 -0.727089
     0.000000  0.727089  0.000000 -0.000000 -0.727208  0.000000
     0.000000  0.000000 -0.000000  0.000000  0.000000  0.000000
     0.000000  0.000000 -0.727208  0.000000  0.000000  0.727208
    -0.000000 -0.727089  0.000000  0.000000  0.727208  0.000000
                              
      Column number    6
      ------------------
     0.727208  0.000000  0.000000 -0.727089 -0.000000  0.000000
     0.000000  0.727208  0.000000 -0.000000 -0.727089  0.000000
     0.000000  0.000000 -5.220101  0.000000  0.000000  5.220101
    -0.727089 -0.000000  0.000000  0.727208  0.000000  0.000000
    -0.000000 -0.727089  0.000000  0.000000  0.727208  0.000000
     0.000000  0.000000  5.220101  0.000000  0.000000 -5.220101
                              


                                 Isotopic Masses
                                 ---------------

                           C          12.000000
                           O          15.994915

                       Total mass:    27.994915 amu
                       Natural abundance:  98.663 %

 Center-of-mass coordinates (a.u.):    0.000000    0.000000   -0.000000
          Number of modes with zero frequency:   5


                 Vibrational frequencies harmonic approximation:
                 -----------------------------------------------

                     Mode     cm-1       hartrees  
                       1     2463.11    0.011223


 Normal coordinates:
 -------------------

          1
    0.0000000
    0.0000000
    0.7998986
    0.0000000
    0.0000000
   -0.6001352
                                        


@>>> Number of energy   calculations done:        53


 *************************************************************************************
 ****************** Numerical derivatives have now been calculated. ******************
 *************************************************************************************



 Analysis using the numerical derivatives
 ----------------------------------------


 Properties that are analyzed: 

 - Frequency analysis and efficient geometry.


                       Making symmetry adapted coor in C9v
                       -----------------------------------



                     Group matrix elements for the group C9v
                     ---------------------------------------

 1. irep:
  1.00  1.00  1.00  1.00  1.00  1.00  1.00  1.00  1.00  1.00  1.00  1.00  1.00  1.00  1.00  1.00  1.00  1.00
 2. irep:
  1.00  1.00  1.00  1.00  1.00  1.00  1.00  1.00  1.00 -1.00 -1.00 -1.00 -1.00 -1.00 -1.00 -1.00 -1.00 -1.00
 3. irep:
  1.00  0.77  0.17 -0.50 -0.94 -0.94 -0.50  0.17  0.77  1.00  0.77  0.17 -0.50 -0.94 -0.94 -0.50  0.17  0.77
  0.00  0.64  0.98  0.87  0.34 -0.34 -0.87 -0.98 -0.64  0.00  0.64  0.98  0.87  0.34 -0.34 -0.87 -0.98 -0.64
  0.00 -0.64 -0.98 -0.87 -0.34  0.34  0.87  0.98  0.64  0.00  0.64  0.98  0.87  0.34 -0.34 -0.87 -0.98 -0.64
  1.00  0.77  0.17 -0.50 -0.94 -0.94 -0.50  0.17  0.77 -1.00 -0.77 -0.17  0.50  0.94  0.94  0.50 -0.17 -0.77
 4. irep:
  1.00  0.17 -0.94 -0.50  0.77  0.77 -0.50 -0.94  0.17  1.00  0.17 -0.94 -0.50  0.77  0.77 -0.50 -0.94  0.17
  0.00  0.98  0.34 -0.87 -0.64  0.64  0.87 -0.34 -0.98  0.00  0.98  0.34 -0.87 -0.64  0.64  0.87 -0.34 -0.98
  0.00 -0.98 -0.34  0.87  0.64 -0.64 -0.87  0.34  0.98  0.00  0.98  0.34 -0.87 -0.64  0.64  0.87 -0.34 -0.98
  1.00  0.17 -0.94 -0.50  0.77  0.77 -0.50 -0.94  0.17 -1.00 -0.17  0.94  0.50 -0.77 -0.77  0.50  0.94 -0.17
 5. irep:
  1.00 -0.50 -0.50  1.00 -0.50 -0.50  1.00 -0.50 -0.50  1.00 -0.50 -0.50  1.00 -0.50 -0.50  1.00 -0.50 -0.50
  0.00  0.87 -0.87 -0.00  0.87 -0.87 -0.00  0.87 -0.87  0.00  0.87 -0.87 -0.00  0.87 -0.87 -0.00  0.87 -0.87
  0.00 -0.87  0.87  0.00 -0.87  0.87  0.00 -0.87  0.87  0.00  0.87 -0.87 -0.00  0.87 -0.87 -0.00  0.87 -0.87
  1.00 -0.50 -0.50  1.00 -0.50 -0.50  1.00 -0.50 -0.50 -1.00  0.50  0.50 -1.00  0.50  0.50 -1.00  0.50  0.50
 6. irep:
  1.00 -0.94  0.77 -0.50  0.17  0.17 -0.50  0.77 -0.94  1.00 -0.94  0.77 -0.50  0.17  0.17 -0.50  0.77 -0.94
  0.00  0.34 -0.64  0.87 -0.98  0.98 -0.87  0.64 -0.34  0.00  0.34 -0.64  0.87 -0.98  0.98 -0.87  0.64 -0.34
  0.00 -0.34  0.64 -0.87  0.98 -0.98  0.87 -0.64  0.34  0.00  0.34 -0.64  0.87 -0.98  0.98 -0.87  0.64 -0.34
  1.00 -0.94  0.77 -0.50  0.17  0.17 -0.50  0.77 -0.94 -1.00  0.94 -0.77  0.50 -0.17 -0.17  0.50 -0.77  0.94
                                      


 Characters for the group C9v
 ----------------------------

 1. irep:
  1.0  1.0  1.0  1.0  1.0  1.0  1.0  1.0  1.0  1.0  1.0  1.0  1.0  1.0  1.0  1.0  1.0  1.0
 2. irep:
  1.0  1.0  1.0  1.0  1.0  1.0  1.0  1.0  1.0 -1.0 -1.0 -1.0 -1.0 -1.0 -1.0 -1.0 -1.0 -1.0
 3. irep:
  2.0  1.5  0.3 -1.0 -1.9 -1.9 -1.0  0.3  1.5  0.0  0.0  0.0  0.0  0.0  0.0  0.0  0.0  0.0
 4. irep:
  2.0  0.3 -1.9 -1.0  1.5  1.5 -1.0 -1.9  0.3  0.0  0.0  0.0  0.0  0.0  0.0  0.0  0.0  0.0
 5. irep:
  2.0 -1.0 -1.0  2.0 -1.0 -1.0  2.0 -1.0 -1.0  0.0  0.0  0.0  0.0  0.0  0.0  0.0  0.0  0.0
 6. irep:
  2.0 -1.9  1.5 -1.0  0.3  0.3 -1.0  1.5 -1.9  0.0  0.0  0.0  0.0  0.0  0.0  0.0  0.0  0.0
                                      


                               Symmetry coordinates
                               --------------------

Symmetry   1       1       3       3       3       3
        0.0000  0.0000  1.0000  0.0000  0.0000  0.0000
        0.0000  0.0000 -0.0000  0.0000  1.0000  0.0000
        1.0000  0.0000  0.0000  0.0000  0.0000  0.0000
        0.0000  0.0000  0.0000  1.0000  0.0000  0.0000
        0.0000  0.0000  0.0000 -0.0000  0.0000  1.0000
        0.0000  1.0000  0.0000  0.0000  0.0000  0.0000
                             
                             
                                


              ******************************************************
              *** Output from Anharmonic Force Constant analysis ***
              ******************************************************



  Effective geometry corrections in normal coordinates
  ----------------------------------------------------

Normal mode:    1   Frequency:    0.0112   Displacement:   -0.0155


                          +------------------------------+
                          ! Change to effective geometry !
                          +------------------------------+



                            Cartesian coordinates (au)
                            --------------------------

 C          0.0000000000            0.0000000000           -0.0033769865
 O          0.0000000000            0.0000000000            0.0025336317


                          +------------------------------+
                          ! Estimated effective geometry !
                          +------------------------------+



                            Cartesian coordinates (au)
                            --------------------------

 C          0.0000000000            0.0000000000           -1.2401485482
 O          0.0000000000            0.0000000000            0.9304071928


                          .-----------------------------.
                          | Geometry walk has converged |
                          `-----------------------------'


 Center of mass dipole origin  :    0.000000    0.000000   -0.000000

 Center of mass gauge origin   :    0.000000    0.000000   -0.000000


                 .------------------------------------------------.
                 | Starting in Static Property Section (ABACUS) - |
                 `------------------------------------------------'


 
     Date and time (Linux)  : Mon Oct 21 14:46:01 2013
     Host name              : c10-6.local                             


   ***************************************************************************
   ************************ FINAL RESULTS from ABACUS ************************
   ***************************************************************************


 
     Date and time (Linux)  : Mon Oct 21 14:46:01 2013
     Host name              : c10-6.local                             


                             Molecular geometry (au)
                             -----------------------

 C          0.0000000000            0.0000000000           -1.2367715617
 O          0.0000000000            0.0000000000            0.9278735611





                        Molecular wave function and energy
                        ----------------------------------

     Spin multiplicity  1     State number       1     Total charge       0

     Total energy       -111.2254495141 au (Hartrees)
                         -3026.59844065 eV
                           -292022.3727 kJ/mol


                             Relativistic corrections
                             ------------------------

     Darwin correction:                          0.1690612580 au
     Mass-velocity correction:                  -0.2171637205 au

     Total relativistic correction:             -0.0481024626 au (0.0432%)
     Non-relativistic + relativistic energy:  -111.2735519767 au




                                  Dipole moment
                                  -------------

                 au               Debye          C m (/(10**-30)
              0.048932           0.124373           0.414864


                             Dipole moment components
                             ------------------------

                 au               Debye          C m (/(10**-30)

      z      0.04893218         0.12437318         0.41486428


   Units:   1 a.u. =   2.54175 Debye 
            1 a.u. =   8.47835 (10**-30) C m (SI)




   Interatomic separations (in Angstrom):
   --------------------------------------

            C           O     
            ------      ------
 C     :    0.000000
 O     :    1.145481    0.000000


  Max    interatomic separation is    1.1455 Angstrom (    2.1646 Bohr)
  between atoms    2 and    1, "O     " and "C     ".

  Min YX interatomic separation is    1.1455 Angstrom (    2.1646 Bohr)


  Bond distances (Angstrom):
  --------------------------

                  atom 1     atom 2       distance
                  ------     ------       --------
  bond distance:  O          C            1.145481




 CPU time statistics for ABACUS
 ------------------------------




 >>>> Total CPU  time used in ABACUS:   0.00 seconds
 >>>> Total wall time used in ABACUS:   0.00 seconds


                   .-------------------------------------------.
                   | End of Static Property Section (ABACUS) - |
                   `-------------------------------------------'

 >>>> Total CPU  time used in DALTON:   2.37 seconds
 >>>> Total wall time used in DALTON:   5.10 seconds

 
     Date and time (Linux)  : Mon Oct 21 14:46:01 2013
     Host name              : c10-6.local                             
