

     ************************************************************************
     *************** Dalton - An Electronic Structure Program ***************
     ************************************************************************

    This is output from DALTON (Release Dalton2013 patch 0)
   ----------------------------------------------------------------------------
    NOTE:
     
    Dalton is an experimental code for the evaluation of molecular
    properties using (MC)SCF, DFT, CI, and CC wave functions.
    The authors accept no responsibility for the performance of
    the code or for the correctness of the results.
     
    The code (in whole or part) is provided under a licence and
    is not to be reproduced for further distribution without
    the written permission of the authors or their representatives.
     
    See the home page "http://daltonprogram.org" for further information.
     
    If results obtained with this code are published,
    the appropriate citations would be both of:
     
       K. Aidas, C. Angeli, K. L. Bak, V. Bakken, R. Bast,
       L. Boman, O. Christiansen, R. Cimiraglia, S. Coriani,
       P. Dahle, E. K. Dalskov, U. Ekstroem, T. Enevoldsen,
       J. J. Eriksen, P. Ettenhuber, B. Fernandez, L. Ferrighi,
       H. Fliegl, L. Frediani, K. Hald, A. Halkier, C. Haettig,
       H. Heiberg, T. Helgaker, A. C. Hennum, H. Hettema,
       E. Hjertenaes, S. Hoest, I.-M. Hoeyvik, M. F. Iozzi,
       B. Jansik, H. J. Aa. Jensen, D. Jonsson, P. Joergensen,
       J. Kauczor, S. Kirpekar, T. Kjaergaard, W. Klopper,
       S. Knecht, R. Kobayashi, H. Koch, J. Kongsted, A. Krapp,
       K. Kristensen, A. Ligabue, O. B. Lutnaes, J. I. Melo,
       K. V. Mikkelsen, R. H. Myhre, C. Neiss, C. B. Nielsen,
       P. Norman, J. Olsen, J. M. H. Olsen, A. Osted,
       M. J. Packer, F. Pawlowski, T. B. Pedersen, P. F. Provasi,
       S. Reine, Z. Rinkevicius, T. A. Ruden, K. Ruud, V. Rybkin,
       P. Salek, C. C. M. Samson, A. Sanchez de Meras, T. Saue,
       S. P. A. Sauer, B. Schimmelpfennig, K. Sneskov,
       A. H. Steindal, K. O. Sylvester-Hvid, P. R. Taylor,
       A. M. Teale, E. I. Tellgren, D. P. Tew, A. J. Thorvaldsen,
       L. Thoegersen, O. Vahtras, M. A. Watson, D. J. D. Wilson,
       M. Ziolkowski and H. Agren.
       The Dalton quantum chemistry program system.
       WIREs Comput. Mol. Sci. 2013. doi: 10.1002/wcms.1172
    
    and
    
       Dalton, a Molecular Electronic Structure Program,
       Release DALTON2013.0 (2013), see http://daltonprogram.org
   ----------------------------------------------------------------------------

    Authors in alphabetical order (major contribution(s) in parenthesis):

  Kestutis Aidas,           Vilnius University,           Lithuania   (QM/MM)
  Celestino Angeli,         University of Ferrara,        Italy       (NEVPT2)
  Keld L. Bak,              UNI-C,                        Denmark     (AOSOPPA, non-adiabatic coupling, magnetic properties)
  Vebjoern Bakken,          University of Oslo,           Norway      (DALTON; geometry optimizer, symmetry detection)
  Radovan Bast,             KTH Stockholm                 Sweden      (DALTON installation and execution frameworks)
  Linus Boman,              NTNU,                         Norway      (Cholesky decomposition and subsystems)
  Ove Christiansen,         Aarhus University,            Denmark     (CC module)
  Renzo Cimiraglia,         University of Ferrara,        Italy       (NEVPT2)
  Sonia Coriani,            University of Trieste,        Italy       (CC module, MCD in RESPONS)
  Paal Dahle,               University of Oslo,           Norway      (Parallelization)
  Erik K. Dalskov,          UNI-C,                        Denmark     (SOPPA)
  Thomas Enevoldsen,        Univ. of Southern Denmark,    Denmark     (SOPPA)
  Janus J. Eriksen,         Aarhus University,            Denmark     (PE-MP2/SOPPA, TDA)
  Berta Fernandez,          U. of Santiago de Compostela, Spain       (doublet spin, ESR in RESPONS)
  Lara Ferrighi,            Aarhus University,            Denmark     (PCM Cubic response)
  Heike Fliegl,             University of Oslo,           Norway      (CCSD(R12))
  Luca Frediani,            UiT The Arctic U. of Norway,  Norway      (PCM)
  Bin Gao,                  UiT The Arctic U. of Norway,  Norway      (Gen1Int library)
  Christof Haettig,         Ruhr-University Bochum,       Germany     (CC module)
  Kasper Hald,              Aarhus University,            Denmark     (CC module)
  Asger Halkier,            Aarhus University,            Denmark     (CC module)
  Hanne Heiberg,            University of Oslo,           Norway      (geometry analysis, selected one-electron integrals)
  Trygve Helgaker,          University of Oslo,           Norway      (DALTON; ABACUS, ERI, DFT modules, London, and much more)
  Alf Christian Hennum,     University of Oslo,           Norway      (Parity violation)
  Hinne Hettema,            University of Auckland,       New Zealand (quadratic response in RESPONS; SIRIUS supersymmetry)
  Eirik Hjertenaes,         NTNU,                         Norway      (Cholesky decomposition)
  Maria Francesca Iozzi,    University of Oslo,           Norway      (RPA)
  Brano Jansik              Technical Univ. of Ostrava    Czech Rep.  (DFT cubic response)
  Hans Joergen Aa. Jensen,  Univ. of Southern Denmark,    Denmark     (DALTON; SIRIUS, RESPONS, ABACUS modules, London, and much more)
  Dan Jonsson,              UiT The Arctic U. of Norway,  Norway      (cubic response in RESPONS module)
  Poul Joergensen,          Aarhus University,            Denmark     (RESPONS, ABACUS, and CC modules)
  Joanna Kauczor,           Linkoeping University,        Sweden      (Complex polarization propagator (CPP) module)
  Sheela Kirpekar,          Univ. of Southern Denmark,    Denmark     (Mass-velocity & Darwin integrals)
  Wim Klopper,              KIT Karlsruhe,                Germany     (R12 code in CC, SIRIUS, and ABACUS modules)
  Stefan Knecht,            ETH Zurich,                   Switzerland (Parallel CI and MCSCF)
  Rika Kobayashi,           Australian National Univ.,    Australia   (DIIS in CC, London in MCSCF)
  Henrik Koch,              NTNU,                         Norway      (CC module, Cholesky decomposition)
  Jacob Kongsted,           Univ. of Southern Denmark,    Denmark     (Polarizable embedding, QM/MM)
  Andrea Ligabue,           University of Modena,         Italy       (CTOCD, AOSOPPA)
  Ola B. Lutnaes,           University of Oslo,           Norway      (DFT Hessian)
  Juan I. Melo,             University of Buenos Aires,   Argentina   (LRESC, Relativistic Effects on NMR Shieldings)
  Kurt V. Mikkelsen,        University of Copenhagen,     Denmark     (MC-SCRF and QM/MM)
  Rolf H. Myhre,            NTNU,                         Norway      (Cholesky, subsystems and ECC2)
  Christian Neiss,          Univ. Erlangen-Nuernberg,     Germany     (CCSD(R12))
  Christian B. Nielsen,     University of Copenhagen,     Denmark     (QM/MM)
  Patrick Norman,           Linkoeping University,        Sweden      (Cubic response and complex response in RESPONS)
  Jeppe Olsen,              Aarhus University,            Denmark     (SIRIUS CI/density modules)
  Jogvan Magnus H. Olsen,   Univ. of Southern Denmark,    Denmark     (Polarizable embedding, PE library, QM/MM)
  Anders Osted,             Copenhagen University,        Denmark     (QM/MM)
  Martin J. Packer,         University of Sheffield,      UK          (SOPPA)
  Filip Pawlowski,          Kazimierz Wielki University   Poland      (CC3)
  Thomas B. Pedersen,       University of Oslo,           Norway      (Cholesky decomposition)
  Patricio F. Provasi,      University of Northeastern,   Argentina   (Analysis of coupling constants in localized orbitals)
  Zilvinas Rinkevicius,     KTH Stockholm,                Sweden      (open-shell DFT, ESR)
  Elias Rudberg,            KTH Stockholm,                Sweden      (DFT grid and basis info)
  Torgeir A. Ruden,         University of Oslo,           Norway      (Numerical derivatives in ABACUS)
  Kenneth Ruud,             UiT The Arctic U. of Norway,  Norway      (DALTON; ABACUS magnetic properties and  much more)
  Pawel Salek,              KTH Stockholm,                Sweden      (DALTON; DFT code)
  Claire C. M. Samson       University of Karlsruhe       Germany     (Boys localization, r12 integrals in ERI)
  Alfredo Sanchez de Meras, University of Valencia,       Spain       (CC module, Cholesky decomposition)
  Trond Saue,               Paul Sabatier University,     France      (direct Fock matrix construction)
  Stephan P. A. Sauer,      University of Copenhagen,     Denmark     (SOPPA(CCSD), SOPPA prop., AOSOPPA, vibrational g-factors)
  Bernd Schimmelpfennig,    Forschungszentrum Karlsruhe,  Germany     (AMFI module)
  Kristian Sneskov,         Aarhus University,            Denmark     (QM/MM, PE-CC)
  Arnfinn H. Steindal,      UiT The Arctic U. of Norway,  Norway      (parallel QM/MM)
  K. O. Sylvester-Hvid,     University of Copenhagen,     Denmark     (MC-SCRF)
  Peter R. Taylor,          VLSCI/Univ. of Melbourne,     Australia   (Symmetry handling ABACUS, integral transformation)
  Andrew M. Teale,          University of Nottingham,     England     (DFT-AC, DFT-D)
  David P. Tew,             University of Bristol,        England     (CCSD(R12))
  Olav Vahtras,             KTH Stockholm,                Sweden      (triplet response, spin-orbit, ESR, TDDFT, open-shell DFT)
  David J. Wilson,          La Trobe University,          Australia   (DFT Hessian and DFT magnetizabilities)
  Hans Agren,               KTH Stockholm,                Sweden      (SIRIUS module, RESPONS, MC-SCRF solvation model)
 --------------------------------------------------------------------------------

     Date and time (Linux)  : Sun Sep  8 21:10:44 2013
     Host name              : lpqlx131.ups-tlse.fr                    

 * Work memory size             :    64000000 =  488.28 megabytes.

 * Directories for basis set searches:
   1) /home/bast/DALTON-2013.0-Source/build/test_cc2_r12_aux_ch4_cbs2
   2) /home/bast/DALTON-2013.0-Source/build/basis


Compilation information
-----------------------

 Who compiled             | bast
 Host                     | lpqlx131.ups-tlse.fr
 System                   | Linux-3.8.5-201.fc18.x86_64
 CMake generator          | Unix Makefiles
 Processor                | x86_64
 64-bit integers          | OFF
 MPI                      | OFF
 Fortran compiler         | /usr/bin/gfortran
 Fortran compiler version | GNU Fortran (GCC) 4.7.2 20121109 (Red Hat 4.7.2-8)
 C compiler               | /usr/bin/gcc
 C compiler version       | gcc (GCC) 4.7.2 20121109 (Red Hat 4.7.2-8)
 C++ compiler             | /usr/bin/g++
 C++ compiler version     | g++ (GCC) 4.7.2 20121109 (Red Hat 4.7.2-8)
 Static linking           | OFF
 Last Git revision        | f34203295a86316e27f9e7b44f9b6769c4a046c0
 Configuration time       | 2013-09-08 20:31:27.952056


   Content of the .dal input file
 ----------------------------------

**DALTON INPUT                                    
.RUN WAVE FUNCTION                                
*MOLBAS                                           
.R12AUX                                           
**INTEGRALS                                       
.R12                                              
**WAVE FUNCTION                                   
.CC                                               
*ORBITAL INPUT                                    
.NOSUPSYM                                         
.MOSTART                                          
 H1DIAG                                           
*SCF IN                                           
.THRESH                                           
 1.0D-10                                          
*CC INPUT                                         
.CC2                                              
.PRINT                                            
 5                                                
.FREEZE                                           
 1 0                                              
.THRENR                                           
 1.0D-10                                          
.THRLEQ                                           
 1.0D-08                                          
.MAX IT                                           
 100                                              
*CCEXCI                                           
.THREXC                                           
 1.0D-08                                          
.NCCEXCI                                          
 3 3 3 3                                          
*R12 INPUT                                        
.NO HYB                                           
.CC2                                              
 3B                                               
.CABS                                             
**END OF DALTON INPUT                             


   Content of the .mol file
 ----------------------------

# > BASIS                                                                      
# > 6-311G** 6-311++G(3df,3pd)                                                 
INTGRL                                                                         
CH4: CC2-R12/Ansatz3 excitation energies using symmetry                        
                                                                               
    4  0 2 XY XZ      0.10D-14                                                 
 1      6.    1    3    1    1    1                                            
C        0.0000000000000     0.0000000000000     0.0000000000000               
H  11    4                                                                     
     4563.2400000000        0.0019666500        0.0000000000        0.000000000
                            0.0000000000                                       
      682.0240000000        0.0152306000        0.0000000000        0.000000000
                            0.0000000000                                       
      154.9730000000        0.0761269000        0.0000000000        0.000000000
                            0.0000000000                                       
       44.4553000000        0.2608010000        0.0000000000        0.000000000
                            0.0000000000                                       
       13.0290000000        0.6164620000        0.0000000000        0.000000000
                            0.0000000000                                       
        1.8277300000        0.2210060000        0.0000000000        0.000000000
                            0.0000000000                                       
       20.9642000000        0.0000000000        0.1146600000        0.000000000
                            0.0000000000                                       
        4.8033100000        0.0000000000        0.9199990000        0.000000000
                            0.0000000000                                       
        1.4593300000        0.0000000000       -0.0030306800        0.000000000
                            0.0000000000                                       
        0.4834560000        0.0000000000        0.0000000000        1.000000000
                            0.0000000000                                       
        0.1455850000        0.0000000000        0.0000000000        0.000000000
                            1.0000000000                                       
H   5    3                                                                     
       20.9642000000        0.0402487000        0.0000000000        0.000000000
        4.8033100000        0.2375940000        0.0000000000        0.000000000
        1.4593300000        0.8158540000        0.0000000000        0.000000000
        0.4834560000        0.0000000000        1.0000000000        0.000000000
        0.1455850000        0.0000000000        0.0000000000        1.000000000
H   1    1                                                                     
        0.6260000000        1.0000000000                                       
 1      1.    1    2    1    1                                                 
H        1.2767310000000     1.2767310000000     1.2767310000000               
H   5    3                                                                     
       33.8650000000        0.0254938000        0.0000000000        0.000000000
        5.0947900000        0.1903730000        0.0000000000        0.000000000
        1.1587900000        0.8521610000        0.0000000000        0.000000000
        0.3258400000        0.0000000000        1.0000000000        0.000000000
        0.1027410000        0.0000000000        0.0000000000        1.000000000
H   1    1                                                                     
        0.7500000000        1.0000000000                                       
 2      0.    1    4    1    1    1    1                                       
C        0.0000000000000     0.0000000000000     0.0000000000000               
H   1    0                                                                     
        0.0438000000                                                           
H   1    0                                                                     
        0.0438000000                                                           
H   2    0                                                                     
        2.5040000000                                                           
        0.1565000000                                                           
H   1    0                                                                     
        0.8000000000                                                           
 2      0.    1    3    1    1    1                                            
H        1.2767310000000     1.2767310000000     1.2767310000000               
H   1    0                                                                     
        0.0360000000                                                           
H   2    0                                                                     
        3.0000000000                                                           
        0.1875000000                                                           
H   1    0                                                                     
        1.0000000000                                                           


       *******************************************************************
       *********** Output from DALTON general input processing ***********
       *******************************************************************

 --------------------------------------------------------------------------------
   Overall default print level:    0
   Print level for DALTON.STAT:    1

    HERMIT 1- and 2-electron integral sections will be executed
    "Old" integral transformation used (limited to max 255 basis functions)
    Wave function sections will be executed (SIRIUS module)
 --------------------------------------------------------------------------------


 Changes of defaults for *MOLBAS:
 --------------------------------

 Print level in molecule setup (READIN):    1

 .R12AUX: Reading auxiliary basis sets from .mol file for R12



   ****************************************************************************
   *************** Output of molecule and basis set information ***************
   ****************************************************************************


    The two title cards from your ".mol" input:
    ------------------------------------------------------------------------
 1: CH4: CC2-R12/Ansatz3 excitation energies using symmetry                 
 2:                                                                         
    ------------------------------------------------------------------------

  Atomic type no.    1
  --------------------
  Nuclear charge:   6.00000
  Number of symmetry independent centers:    1
  Number of basis sets to read;    1

  Atomic type no.    2
  --------------------
  Nuclear charge:   1.00000
  Number of symmetry independent centers:    1
  Number of basis sets to read;    1

  Atomic type no.    3
  --------------------
  Nuclear charge:   0.00000
  Number of symmetry independent centers:    1
  This is an auxiliary basis for R12, MBSI:    2

  Atomic type no.    4
  --------------------
  Nuclear charge:   0.00000
  Number of symmetry independent centers:    1
  This is an auxiliary basis for R12, MBSI:    2


                         SYMGRP: Point group information
                         -------------------------------

Point group: D2 

   * The point group was generated by:

      Rotation about the z-axis
      Rotation about the y-axis

   * Group multiplication table

        |  E   C2z  C2y  C2x
   -----+--------------------
     E  |  E   C2z  C2y  C2x
    C2z | C2z   E   C2x  C2y
    C2y | C2y  C2x   E   C2z
    C2x | C2x  C2y  C2z   E 

   * Character table

        |  E   C2z  C2y  C2x
   -----+--------------------
    A   |   1    1    1    1
    B2  |   1   -1    1   -1
    B1  |   1    1   -1   -1
    B3  |   1   -1   -1    1

   * Direct product table

        | A    B2   B1   B3 
   -----+--------------------
    A   | A    B2   B1   B3 
    B2  | B2   A    B3   B1 
    B1  | B1   B3   A    B2 
    B3  | B3   B1   B2   A  


                                 Isotopic Masses
                                 ---------------

                           C          12.000000
                           H   _1      1.007825
                           H   _2      1.007825
                           H   _3      1.007825
                           H   _4      1.007825

                       Total mass:    16.031300 amu
                       Natural abundance:  98.841 %

 Center-of-mass coordinates (a.u.):    0.000000    0.000000    0.000000


  Atoms and basis sets
  --------------------

  Number of atom types :    4
  Total number of atoms:   10

  label  basis   atoms  charge   prim  cont     basis
  ------------------------------------------------------------------------------
  C        1       1    6.0000    31    18      [11s5p1d|4s3p1d]                                   
  H        1       4    1.0000     8     6      [5s1p|3s1p]                                        
  C        2       1    0.0000    21    21      [1s1p2d1f|1s1p2d1f]                                
  H        2       4    0.0000    12    12      [1s2p1d|1s2p1d]                                    
  ------------------------------------------------------------------------------
  total:          10   10.0000   132   111
  ------------------------------------------------------------------------------
  Spherical harmonic basis used.

  Threshold for neglecting AO integrals:  1.00D-15


  Cartesian Coordinates (a.u.)
  ----------------------------

  Total number of coordinates:   30
  C       :     1  x   0.0000000000    2  y   0.0000000000    3  z   0.0000000000
  H   / 1 :     4  x   1.2767310000    5  y   1.2767310000    6  z   1.2767310000
  H   / 2 :     7  x  -1.2767310000    8  y  -1.2767310000    9  z   1.2767310000
  H   / 3 :    10  x  -1.2767310000   11  y   1.2767310000   12  z  -1.2767310000
  H   / 4 :    13  x   1.2767310000   14  y  -1.2767310000   15  z  -1.2767310000
  C       :    16  x   0.0000000000   17  y   0.0000000000   18  z   0.0000000000
  H   / 1 :    19  x   1.2767310000   20  y   1.2767310000   21  z   1.2767310000
  H   / 2 :    22  x  -1.2767310000   23  y  -1.2767310000   24  z   1.2767310000
  H   / 3 :    25  x  -1.2767310000   26  y   1.2767310000   27  z  -1.2767310000
  H   / 4 :    28  x   1.2767310000   29  y  -1.2767310000   30  z  -1.2767310000


  Symmetry Coordinates
  --------------------

  Number of coordinates in each symmetry:     6    8    8    8

  Symmetry  A   ( 1)

    1   H     x    [  4  -    7  -   10  +   13 ]/4
    2   H     y    [  5  -    8  +   11  -   14 ]/4
    3   H     z    [  6  +    9  -   12  -   15 ]/4
    4   H     x    [ 19  -   22  -   25  +   28 ]/4
    5   H     y    [ 20  -   23  +   26  -   29 ]/4
    6   H     z    [ 21  +   24  -   27  -   30 ]/4

  Symmetry  B2  ( 2)

    7   C     y    2
    8   H     x    [  4  +    7  -   10  -   13 ]/4
    9   H     y    [  5  +    8  +   11  +   14 ]/4
   10   H     z    [  6  -    9  -   12  +   15 ]/4
   11   C     y   17
   12   H     x    [ 19  +   22  -   25  -   28 ]/4
   13   H     y    [ 20  +   23  +   26  +   29 ]/4
   14   H     z    [ 21  -   24  -   27  +   30 ]/4

  Symmetry  B1  ( 3)

   15   C     z    3
   16   H     x    [  4  -    7  +   10  -   13 ]/4
   17   H     y    [  5  -    8  -   11  +   14 ]/4
   18   H     z    [  6  +    9  +   12  +   15 ]/4
   19   C     z   18
   20   H     x    [ 19  -   22  +   25  -   28 ]/4
   21   H     y    [ 20  -   23  -   26  +   29 ]/4
   22   H     z    [ 21  +   24  +   27  +   30 ]/4

  Symmetry  B3  ( 4)

   23   C     x    1
   24   H     x    [  4  +    7  +   10  +   13 ]/4
   25   H     y    [  5  +    8  -   11  -   14 ]/4
   26   H     z    [  6  -    9  +   12  -   15 ]/4
   27   C     x   16
   28   H     x    [ 19  +   22  +   25  +   28 ]/4
   29   H     y    [ 20  +   23  -   26  -   29 ]/4
   30   H     z    [ 21  -   24  +   27  -   30 ]/4


   Interatomic separations (in Angstrom):
   --------------------------------------

            C           H   _1      H   _2      H   _3      H   _4      C     
            ------      ------      ------      ------      ------      ------
 C     :    0.000000
 H   _1:    1.170203    0.000000
 H   _2:    1.170203    1.910933    0.000000
 H   _3:    1.170203    1.910933    1.910933    0.000000
 H   _4:    1.170203    1.910933    1.910933    1.910933    0.000000
 C     :    0.000000    1.170203    1.170203    1.170203    1.170203    0.000000
 H   _1:    1.170203    0.000000    1.910933    1.910933    1.910933    1.170203
 H   _2:    1.170203    1.910933    0.000000    1.910933    1.910933    1.170203
 H   _3:    1.170203    1.910933    1.910933    0.000000    1.910933    1.170203
 H   _4:    1.170203    1.910933    1.910933    1.910933    0.000000    1.170203

            H   _1      H   _2      H   _3      H   _4
            ------      ------      ------      ------
 H   _1:    0.000000
 H   _2:    1.910933    0.000000
 H   _3:    1.910933    1.910933    0.000000
 H   _4:    1.910933    1.910933    1.910933    0.000000


  Max    interatomic separation is    1.9109 Angstrom (    3.6111 Bohr)
  between atoms    3 and    2, "H   _2" and "H   _1".

  Min HX interatomic separation is    0.0000 Angstrom (    0.0000 Bohr)

  Min YX interatomic separation is    0.0000 Angstrom (    0.0000 Bohr)

WARNING: Number of short HX and YX bond lengths:    4    1
WARNING: If not intentional, maybe your coordinates were in Angstrom,
WARNING: but "Angstrom" was not specified in .mol file


  Bond distances (Angstrom):
  --------------------------

                  atom 1     atom 2       distance
                  ------     ------       --------
  bond distance:  H   _1     C            1.170203
  bond distance:  H   _2     C            1.170203
  bond distance:  H   _3     C            1.170203
  bond distance:  H   _4     C            1.170203


  Bond angles (degrees):
  ----------------------

                  atom 1     atom 2     atom 3         angle
                  ------     ------     ------         -----
  bond angle:     H   _1     C          H   _2       109.471
  bond angle:     H   _1     C          H   _3       109.471
  bond angle:     H   _1     C          H   _4       109.471
  bond angle:     H   _2     C          H   _3       109.471
  bond angle:     H   _2     C          H   _4       109.471
  bond angle:     H   _3     C          H   _4       109.471




 Principal moments of inertia (u*A**2) and principal axes
 --------------------------------------------------------

   IA       3.680240          1.000000    0.000000    0.000000
   IB       3.680240          0.000000    1.000000    0.000000
   IC       3.680240          0.000000    0.000000    1.000000


 Rotational constants
 --------------------

               A                   B                   C

         137322.2814         137322.2814         137322.2814 MHz
            4.580578            4.580578            4.580578 cm-1


@  Nuclear repulsion energy :   12.514560078913 Hartree


  Symmetry Orbitals
  -----------------

  Number of orbitals in each symmetry:          30   27   27   27

  Number of main orbitals in each symmetry:          12   10   10   10
  Number of auxiliary functions in each symmetry:    18   17   17   17


  Symmetry  A  ( 1)

    1     C    M   1s         1
    2     C    M   1s         2
    3     C    M   1s         3
    4     C    M   1s         4
    5     C    M   3d0       16
    6     C    M   3d2+      18
    7     H    M   1s        19 +   20 +   21 +   22
    8     H    M   1s        23 +   24 +   25 +   26
    9     H    M   1s        27 +   28 +   29 +   30
   10     H    M   2px       31 -   32 -   33 +   34
   11     H    M   2py       35 -   36 +   37 -   38
   12     H    M   2pz       39 +   40 -   41 -   42
   13     C    A   1s        43
   14     C    A   3d0       49
   15     C    A   3d2+      51
   16     C    A   3d0       54
   17     C    A   3d2+      56
   18     C    A   4f2-      58
   19     H    A   1s        64 +   65 +   66 +   67
   20     H    A   2px       68 -   69 -   70 +   71
   21     H    A   2py       72 -   73 +   74 -   75
   22     H    A   2pz       76 +   77 -   78 -   79
   23     H    A   2px       80 -   81 -   82 +   83
   24     H    A   2py       84 -   85 +   86 -   87
   25     H    A   2pz       88 +   89 -   90 -   91
   26     H    A   3d2-      92 +   93 -   94 -   95
   27     H    A   3d1-      96 -   97 -   98 +   99
   28     H    A   3d0      100 +  101 +  102 +  103
   29     H    A   3d1+     104 -  105 +  106 -  107
   30     H    A   3d2+     108 +  109 +  110 +  111


  Symmetry  B2 ( 2)

   31     C    M   2py        6
   32     C    M   2py        9
   33     C    M   2py       12
   34     C    M   3d1+      17
   35     H    M   1s        19 -   20 +   21 -   22
   36     H    M   1s        23 -   24 +   25 -   26
   37     H    M   1s        27 -   28 +   29 -   30
   38     H    M   2px       31 +   32 -   33 -   34
   39     H    M   2py       35 +   36 +   37 +   38
   40     H    M   2pz       39 -   40 -   41 +   42
   41     C    A   2py       45
   42     C    A   3d1+      50
   43     C    A   3d1+      55
   44     C    A   4f3-      57
   45     C    A   4f1-      59
   46     H    A   1s        64 -   65 +   66 -   67
   47     H    A   2px       68 +   69 -   70 -   71
   48     H    A   2py       72 +   73 +   74 +   75
   49     H    A   2pz       76 -   77 -   78 +   79
   50     H    A   2px       80 +   81 -   82 -   83
   51     H    A   2py       84 +   85 +   86 +   87
   52     H    A   2pz       88 -   89 -   90 +   91
   53     H    A   3d2-      92 -   93 -   94 +   95
   54     H    A   3d1-      96 +   97 -   98 -   99
   55     H    A   3d0      100 -  101 +  102 -  103
   56     H    A   3d1+     104 +  105 +  106 +  107
   57     H    A   3d2+     108 -  109 +  110 -  111


  Symmetry  B1 ( 3)

   58     C    M   2pz        7
   59     C    M   2pz       10
   60     C    M   2pz       13
   61     C    M   3d2-      14
   62     H    M   1s        19 +   20 -   21 -   22
   63     H    M   1s        23 +   24 -   25 -   26
   64     H    M   1s        27 +   28 -   29 -   30
   65     H    M   2px       31 -   32 +   33 -   34
   66     H    M   2py       35 -   36 -   37 +   38
   67     H    M   2pz       39 +   40 +   41 +   42
   68     C    A   2pz       46
   69     C    A   3d2-      47
   70     C    A   3d2-      52
   71     C    A   4f0       60
   72     C    A   4f2+      62
   73     H    A   1s        64 +   65 -   66 -   67
   74     H    A   2px       68 -   69 +   70 -   71
   75     H    A   2py       72 -   73 -   74 +   75
   76     H    A   2pz       76 +   77 +   78 +   79
   77     H    A   2px       80 -   81 +   82 -   83
   78     H    A   2py       84 -   85 -   86 +   87
   79     H    A   2pz       88 +   89 +   90 +   91
   80     H    A   3d2-      92 +   93 +   94 +   95
   81     H    A   3d1-      96 -   97 +   98 -   99
   82     H    A   3d0      100 +  101 -  102 -  103
   83     H    A   3d1+     104 -  105 -  106 +  107
   84     H    A   3d2+     108 +  109 -  110 -  111


  Symmetry  B3 ( 4)

   85     C    M   2px        5
   86     C    M   2px        8
   87     C    M   2px       11
   88     C    M   3d1-      15
   89     H    M   1s        19 -   20 -   21 +   22
   90     H    M   1s        23 -   24 -   25 +   26
   91     H    M   1s        27 -   28 -   29 +   30
   92     H    M   2px       31 +   32 +   33 +   34
   93     H    M   2py       35 +   36 -   37 -   38
   94     H    M   2pz       39 -   40 +   41 -   42
   95     C    A   2px       44
   96     C    A   3d1-      48
   97     C    A   3d1-      53
   98     C    A   4f1+      61
   99     C    A   4f3+      63
  100     H    A   1s        64 -   65 -   66 +   67
  101     H    A   2px       68 +   69 +   70 +   71
  102     H    A   2py       72 +   73 -   74 -   75
  103     H    A   2pz       76 -   77 +   78 -   79
  104     H    A   2px       80 +   81 +   82 +   83
  105     H    A   2py       84 +   85 -   86 -   87
  106     H    A   2pz       88 -   89 +   90 -   91
  107     H    A   3d2-      92 -   93 +   94 -   95
  108     H    A   3d1-      96 +   97 +   98 +   99
  109     H    A   3d0      100 -  101 -  102 +  103
  110     H    A   3d1+     104 +  105 -  106 -  107
  111     H    A   3d2+     108 -  109 -  110 +  111

  Number of floating/multiple basis set orbitals :    5

  Symmetries of electric field:  B3 (4)  B2 (2)  B1 (3)

  Symmetries of magnetic field:  B3 (4)  B2 (2)  B1 (3)


                     .---------------------------------------.
                     | Starting in Integral Section (HERMIT) |
                     `---------------------------------------'



    *************************************************************************
    ****************** Output from HERMIT input processing ******************
    *************************************************************************


 Default print level:        1

 * Nuclear model: Point charge

 Calculation of one- and two-electron Hamiltonian integrals.

 The following one-electron property integrals are calculated as requested:
          - overlap integrals
          - Cartesian multipole moment integrals of orders 2 and lower

 Center of mass  (bohr):      0.000000000000      0.000000000000      0.000000000000
 Operator center (bohr):      0.000000000000      0.000000000000      0.000000000000
 Gauge origin    (bohr):      0.000000000000      0.000000000000      0.000000000000
 Dipole origin   (bohr):      0.000000000000      0.000000000000      0.000000000000


     ************************************************************************
     ************************** Output from HERINT **************************
     ************************************************************************


 Threshold for neglecting two-electron integrals:  1.00D-15
 Number of two-electron integrals written:      104978 (  0.5% )
 Megabytes written:                              1.202

 >>>> Total CPU  time used in HERMIT:   0.07 seconds
 >>>> Total wall time used in HERMIT:   0.13 seconds


                        .----------------------------------.
                        | End of Integral Section (HERMIT) |
                        `----------------------------------'



                   .--------------------------------------------.
                   | Starting in Wave Function Section (SIRIUS) |
                   `--------------------------------------------'

 NCCEXCI for singlet:           3           3           3           3

 >>>> Detected R12 input:
 Direct Fock matrix formation switched on!
 Scale factors for CC excitations manifolds:
 for bra states (projection manifold):   1.0000000000000000     
 for ket states (operator manifold)  :   1.0000000000000000     

 **********************************************************************
 *SIRIUS* a direct, restricted step, second order MCSCF program       *
 **********************************************************************

 
     Date and time (Linux)  : Sun Sep  8 21:10:44 2013
     Host name              : lpqlx131.ups-tlse.fr                    

 Title lines from ".mol" input file:
     CH4: CC2-R12/Ansatz3 excitation energies using symmetry                 
                                                                             

 Print level on unit LUPRI =   2 is   0
 Print level on unit LUW4  =   2 is   5

@    (Integral direct) CC calculation.

@    This is a combination run starting with
@              a restricted, closed shell Hartree-Fock calculation

 Fock matrices are calculated directly without use of integrals on disk.

 Initial molecular orbitals are obtained according to
 ".MOSTART H1DIAG" input option

     Wave function specification
     ============================

     For the specification of the Coupled Cluster: see later.

@    For the wave function of type :      >>> CC <<<
@    Number of closed shell electrons          10
@    Number of electrons in active shells       0
@    Total charge of the molecule               0

@    Spin multiplicity and 2 M_S                1         0
     Total number of symmetries                 4
@    Reference state symmetry                   1

     Orbital specifications
     ======================
     Abelian symmetry species          All |    1    2    3    4
                                       --- |  ---  ---  ---  ---
     Total number of orbitals           42 |   12   10   10   10
     Number of basis functions         111 |   30   27   27   27

      ** Automatic occupation of RHF orbitals **

      -- Initial occupation of symmetries is determined from diagonal of H1 matrix.           
      -- Initial occupation of symmetries is :
@    Occupied SCF orbitals               5 |    2    1    1    1

     Maximum number of Fock   iterations      0
     Maximum number of DIIS   iterations     60
     Maximum number of QC-SCF iterations     60
     Threshold for SCF convergence     1.00D-10


 Changes of defaults for CC:
 ---------------------------


 -Implicit frozen core calculation
 -Excitation energies calculated
  


 >>>>> DIIS optimization of Hartree-Fock <<<<<

 C1-DIIS algorithm; max error vectors =   10

 Automatic occupation of symmetries with  10 electrons.

 Iter     Total energy    Error norm  Delta(E)    SCF occupation
 -----------------------------------------------------------------------------
   1  Screening settings (-IFTHRS, DIFDEN)   -7    T

***  INFO  GETGAB: GABAOXXX not found on AOPROPER. Regenerating.
@  1  -26.9208461562       1.74D+01  -2.69D+01     2   1   1   1
      Virial theorem: -V/T =      1.397424
@      MULPOP C      -3.96; H   _1  0.99; H   _2  0.99; H   _3  0.99; H   _4  0.99; 
 -----------------------------------------------------------------------------
   2  Screening settings (-IFTHRS, DIFDEN)   -7    T
@  2  -34.5740142129       5.98D+00  -7.65D+00     2   1   1   1
      Virial theorem: -V/T =      2.092202
@      MULPOP C       7.24; H   _1 -1.81; H   _2 -1.81; H   _3 -1.81; H   _4 -1.81; 
 -----------------------------------------------------------------------------
   3  Screening settings (-IFTHRS, DIFDEN)   -7    T
@  3  -38.7812870349       4.97D+00  -4.21D+00     2   1   1   1
      Virial theorem: -V/T =      1.865551
@      MULPOP C      -2.05; H   _1  0.51; H   _2  0.51; H   _3  0.51; H   _4  0.51; 
 -----------------------------------------------------------------------------
   4  Screening settings (-IFTHRS, DIFDEN)   -7    T
@  4  -40.0920858983       1.21D+00  -1.31D+00     2   1   1   1
      Virial theorem: -V/T =      1.982551
@      MULPOP C      -0.78; H   _1  0.19; H   _2  0.19; H   _3  0.19; H   _4  0.19; 
 -----------------------------------------------------------------------------
   5  Screening settings (-IFTHRS, DIFDEN)   -7    T
@  5  -40.1914985533       6.81D-02  -9.94D-02     2   1   1   1
      Virial theorem: -V/T =      2.012916
@      MULPOP C      -0.36; H   _1  0.09; H   _2  0.09; H   _3  0.09; H   _4  0.09; 
 -----------------------------------------------------------------------------
   6  Screening settings (-IFTHRS, DIFDEN)   -9    F
@  6  -40.1917302493       2.39D-02  -2.32D-04     2   1   1   1
      Virial theorem: -V/T =      2.011954
@      MULPOP C      -0.38; H   _1  0.09; H   _2  0.09; H   _3  0.09; H   _4  0.09; 
 -----------------------------------------------------------------------------
   7  Screening settings (-IFTHRS, DIFDEN)   -9    T
@  7  -40.1917714460       1.96D-03  -4.12D-05     2   1   1   1
      Virial theorem: -V/T =      2.011289
@      MULPOP C      -0.38; H   _1  0.10; H   _2  0.10; H   _3  0.10; H   _4  0.10; 
 -----------------------------------------------------------------------------
   8  Screening settings (-IFTHRS, DIFDEN)  -11    F
@  8  -40.1917720842       2.24D-04  -6.38D-07     2   1   1   1
      Virial theorem: -V/T =      2.011253
@      MULPOP C      -0.38; H   _1  0.10; H   _2  0.10; H   _3  0.10; H   _4  0.10; 
 -----------------------------------------------------------------------------
   9  Screening settings (-IFTHRS, DIFDEN)  -11    T
@  9  -40.1917720926       2.77D-05  -8.32D-09     2   1   1   1
      Virial theorem: -V/T =      2.011254
@      MULPOP C      -0.38; H   _1  0.09; H   _2  0.09; H   _3  0.09; H   _4  0.09; 
 -----------------------------------------------------------------------------
  10  Screening settings (-IFTHRS, DIFDEN)  -13    F
@ 10  -40.1917720926       1.91D-06  -7.02D-11     2   1   1   1
      Virial theorem: -V/T =      2.011255
@      MULPOP C      -0.38; H   _1  0.09; H   _2  0.09; H   _3  0.09; H   _4  0.09; 
 -----------------------------------------------------------------------------
  11  Screening settings (-IFTHRS, DIFDEN)  -16    F
@ 11  -40.1917720926       2.04D-07  -2.70D-13     2   1   1   1
      Virial theorem: -V/T =      2.011255
@      MULPOP C      -0.38; H   _1  0.09; H   _2  0.09; H   _3  0.09; H   _4  0.09; 
 -----------------------------------------------------------------------------
  12  Screening settings (-IFTHRS, DIFDEN)  -16    T
@ 12  -40.1917720926       3.20D-08  -1.42D-14     2   1   1   1
      Virial theorem: -V/T =      2.011255
@      MULPOP C      -0.38; H   _1  0.09; H   _2  0.09; H   _3  0.09; H   _4  0.09; 
 -----------------------------------------------------------------------------
  13  Screening settings (-IFTHRS, DIFDEN)  -16    T
@ 13  -40.1917720926       6.94D-10   1.42D-14     2   1   1   1
      Virial theorem: -V/T =      2.011255
@      MULPOP C      -0.38; H   _1  0.09; H   _2  0.09; H   _3  0.09; H   _4  0.09; 
 -----------------------------------------------------------------------------
  14  Screening settings (-IFTHRS, DIFDEN)  -16    T
@ 14  -40.1917720926       1.71D-11   0.00D+00     2   1   1   1

@ *** DIIS converged in  14 iterations !
@     Converged SCF energy, gradient:    -40.191772092640    1.71D-11
    - total time used in SIRFCK :              0.00 seconds


 *** SCF orbital energy analysis ***

 Only the five lowest virtual orbital energies printed in each symmetry.

 Number of electrons :   10
 Orbital occupations :    2    1    1    1

 Sym       Hartree-Fock orbital energies

  1    -11.24614520    -0.91114126     0.15222200     0.67112701     0.94587496
         1.19833119     1.19833119

  2     -0.52478334     0.22923252     0.41945542     0.77679176     1.66708634
         1.69778322

  3     -0.52478334     0.22923252     0.41945542     0.77679176     1.66708634
         1.69778322

  4     -0.52478334     0.22923252     0.41945542     0.77679176     1.66708634
         1.69778322

    E(LUMO) :     0.15222200 au (symmetry 1)
  - E(HOMO) :    -0.52478334 au (symmetry 3)
  ------------------------------------------
    gap     :     0.67700534 au

 >>> Writing SIRIFC interface file <<<

  Canonical primary and secondary basis sets
  ISYM       NORB1 MBAS1       NORB2 MBAS2
     1          12    12          18    18
     2          10    10          17    17
     3          10    10          17    17
     4          10    10          17    17

  Canonical primary and secondary basis sets
  ISYM       NORB1 MBAS1       NORB2 MBAS2
     1          12    12          18    18
     2          10    10          17    17
     3          10    10          17    17
     4          10    10          17    17

 Computation of exchange matrix done [6]

 AUXILIARY BASIS LOW EIGENVALUES
 ISYM         EIGENVALUE
   1      0.000304524361
   2      0.000163692249
   3      0.000163692249
   4      0.000163692249
 >>>  Time used in R12AUX     is   0.49 seconds

 >>>> CPU and wall time for SCF :       1.022       1.279


                       .-----------------------------------.
                       | >>> Final results from SIRIUS <<< |
                       `-----------------------------------'


@    Spin multiplicity:           1
@    Spatial symmetry:            1
@    Total charge of molecule:    0

@    Final HF energy:             -40.191772092640                 
@    Nuclear repulsion:            12.514560078913
@    Electronic energy:           -52.706332171553

@    Final gradient norm:           0.000000000017

 
     Date and time (Linux)  : Sun Sep  8 21:10:45 2013
     Host name              : lpqlx131.ups-tlse.fr                    

 (Only coefficients >0.0100 are printed.)

 Molecular orbitals for symmetry species  1
 ------------------------------------------

    Orbital         1        2        3        4
   1 C   :1s     0.5636  -0.1015   0.0530   0.0703
   2 C   :1s     0.4666  -0.1682   0.0852   0.1326
   3 C   :1s     0.0034   0.4331  -0.0983  -0.4555
   4 C   :1s    -0.0008   0.2981  -1.9759  -1.0416
   7 H   :1s     0.0003   0.0770   0.0184   0.0634
   8 H   :1s     0.0002   0.1094  -0.0089   0.9859
   9 H   :1s     0.0001   0.0088   0.7492  -0.3081
  10 H   :2px   -0.0001  -0.0110  -0.0006   0.0199
  11 H   :2py   -0.0001  -0.0110  -0.0006   0.0199
  12 H   :2pz   -0.0001  -0.0110  -0.0006   0.0199

 Molecular orbitals for symmetry species  2
 ------------------------------------------

    Orbital         1        2        3
   1 C   :2py    0.1818  -0.1464   0.0159
   2 C   :2py    0.2931  -0.1083  -0.0054
   3 C   :2py    0.2049  -1.1248   1.3166
   4 C   :3d1+   0.0320   0.0232   0.0151
   5 H   :1s     0.0961   0.0193  -0.0386
   6 H   :1s     0.1589  -0.0805  -0.7668
   7 H   :1s     0.0754   1.2270   0.2180
   8 H   :2px   -0.0095   0.0099   0.0117
   9 H   :2py    0.0002   0.0059   0.0259
  10 H   :2pz   -0.0095   0.0099   0.0117

 Molecular orbitals for symmetry species  3
 ------------------------------------------

    Orbital         1        2        3
   1 C   :2pz    0.1818  -0.1464   0.0159
   2 C   :2pz    0.2931  -0.1083  -0.0054
   3 C   :2pz    0.2049  -1.1248   1.3166
   4 C   :3d2-   0.0320   0.0232   0.0151
   5 H   :1s     0.0961   0.0193  -0.0386
   6 H   :1s     0.1589  -0.0805  -0.7668
   7 H   :1s     0.0754   1.2270   0.2180
   8 H   :2px   -0.0095   0.0099   0.0117
   9 H   :2py   -0.0095   0.0099   0.0117
  10 H   :2pz    0.0002   0.0059   0.0259

 Molecular orbitals for symmetry species  4
 ------------------------------------------

    Orbital         1        2        3
   1 C   :2px    0.1818  -0.1464   0.0159
   2 C   :2px    0.2931  -0.1083  -0.0054
   3 C   :2px    0.2049  -1.1248   1.3166
   4 C   :3d1-   0.0320   0.0232   0.0151
   5 H   :1s     0.0961   0.0193  -0.0386
   6 H   :1s     0.1589  -0.0805  -0.7668
   7 H   :1s     0.0754   1.2270   0.2180
   8 H   :2px    0.0002   0.0059   0.0259
   9 H   :2py   -0.0095   0.0099   0.0117
  10 H   :2pz   -0.0095   0.0099   0.0117



 >>>> Total CPU  time used in SIRIUS :      1.03 seconds
 >>>> Total wall time used in SIRIUS :      1.30 seconds

 
     Date and time (Linux)  : Sun Sep  8 21:10:45 2013
     Host name              : lpqlx131.ups-tlse.fr                    


                     .---------------------------------------.
                     | End of Wave Function Section (SIRIUS) |
                     `---------------------------------------'



                    .------------------------------------------.
                    | Starting in Coupled Cluster Section (CC) |
                    `------------------------------------------'

  

 *******************************************************************************
 *******************************************************************************
 *                                                                             *
 *                                                                             *
 *                    START OF COUPLED CLUSTER CALCULATION                     *
 *                                                                             *
 *                                                                             *
 *******************************************************************************
 *******************************************************************************


 LWORK =        64000000


  I am freezing!
  >> output from FNDMN3 <<
  LOWEST VALUE AND PLACE   -11.246145204413853                1
  HIGHST VALUE AND PLACE    24.913500086460715               12
IELMNT XMIN IMIN NDEG        1   -1.12461D+01       1   1
IELMNT XMIN IMIN NDEG        2   -9.11141D-01       2   1
  NUMBER OF ELEMENTS OBTAINED IN FNDMN3            1
  FROM FNDMN3 : 
    PLACES OF LOWEST ELEMENTS 
     1 :      1
  MIN AND MAX IN SELECTED SUPSPACE   -11.246145204413853       -11.246145204413853     
 Freezing HF-orbital   1 of symmetry   1 and with orbital energy  -11.2461
 In total frozen-core per symmetry-class:  1  0  0  0
 


 CCR12 ANSATZ =   3

 CCR12 APPROX =  10


  I am freezing!
 Freezing HF-orbital   1 of symmetry   1 and with orbital energy  -11.2461
 In total frozen-core per symmetry-class:  1  0  0  0
 
   NRHF   :       1       1       1       1
   NRHFS  :       2       1       1       1
   NORB1  :      12      10      10      10
   NORB2  :      18      17      17      17

 Number of primary orbitals             :           42
 Number of secondary orbitals           :           69
 Total number of orbitals               :          111
 Total number of basis functions        :          111
 Number of (i|p') integrals             :          111
 Number of (i|u') integrals             :          111
 Number of (Ip'|1/r12|jL) integrals     :          111
 Number of (ip'|1/r12|jq') integrals    :        24864
 Number of (ip'|r12|jq') integrals      :        24864
 Number of (ip'|[T1,r12]|jq') integrals :        49284
 Threshold for R12 contributions            =  0.00000    
 Threshold for singular value decomposition = 0.100000E-11

 The B matrix is transformed into an orthogonal basis
 and inverted by diagonalization

 ******************************************************************************
 The MP2-R12/A and MP2-R12/B energies are computed as described in:
 W. Klopper and C. C. M. Samson, J. Chem. Phys. 116, 6397-6410 (2002).
 ------------------------------------------------------------------------------
 Ansatz 3 is used and results are printed for approximations A and B.
 ******************************************************************************

 Core memory required by CCSD_R12 :         138009  (double words)

 Computation of (ip'|r12|jq') integrals done
 >>>  Time used in R  [6]     is   4.19 seconds
 Backtransformation of (ip'|r12|jq') integrals done
 Computation of V^aj_kl intermediate done

 >>> Time used for V^aj_kl is    0.04 seconds

 Computation of (ip'|1/r12|jq') integrals done
 >>>  Time used in 1/R[5]     is   1.65 seconds
 Computation of (ip'|r12|jq')X(p'r')(kr'|r12|lq') integrals done
 Computation of (i'p'|r12|jq') integrals done
 >>>  Time used in R  [6]     is   4.25 seconds
 Computation of (ip'|[T,r12]|jq') integrals done
 >>>  Time used in T,R[5]     is   2.45 seconds


          +-------------------------------------------------------------+
          ! MP2-R12 ansatz := (1 - V1*V2) * (1 - O1 - O2 + O1*O2) * R12 !
          +-------------------------------------------------------------+



                         +--------------------------------+
                         ! Auxiliary-basis MP2-R12 method !
                         +--------------------------------+


 SECOND-ORDER R12/B   PAIR ENERGIES:

   1   -0.008552696   -0.009911455    0.000000000    0.000000000     3.53862         3.63602    
   2   -0.012167435   -0.015541072   -0.004524398   -0.004966332     3.13616         3.23261    
   3   -0.013386563   -0.015393446    0.000000000    0.000000000     2.72965         2.82457    
   4   -0.012167435   -0.015541072   -0.004524398   -0.004966332     3.13616         3.23261    
   5   -0.013412621   -0.015254207   -0.011368248   -0.012797969     2.72965         2.82457    
   6   -0.013386563   -0.015393446    0.000000000    0.000000000     2.72965         2.82457    
   7   -0.012167435   -0.015541072   -0.004524398   -0.004966332     3.13616         3.23261    
   8   -0.013412621   -0.015254207   -0.011368248   -0.012797969     2.72965         2.82457    
   9   -0.013412621   -0.015254207   -0.011368248   -0.012797969     2.72965         2.82457    
  10   -0.013386563   -0.015393446    0.000000000    0.000000000     2.72965         2.82457    

       -0.125452553   -0.148477630   -0.047677939   -0.053292902

              MP2-R12/B   correlation energy =   -0.201770532
 >>>  Time used in E(R12)     is   0.14 seconds
 Time for MP2-R12 part cpu :   12.724000000000000     
 Time for MP2-R12 part wall:   13.648000001907349     

  I am freezing!
  >> output from FNDMN3 <<
  LOWEST VALUE AND PLACE   -11.246145204413853                1
  HIGHST VALUE AND PLACE    24.913500086460715               12
IELMNT XMIN IMIN NDEG        1   -1.12461D+01       1   1
IELMNT XMIN IMIN NDEG        2   -9.11141D-01       2   1
  NUMBER OF ELEMENTS OBTAINED IN FNDMN3            1
  FROM FNDMN3 : 
    PLACES OF LOWEST ELEMENTS 
     1 :      1
  MIN AND MAX IN SELECTED SUPSPACE   -11.246145204413853       -11.246145204413853     
 Freezing HF-orbital   1 of symmetry   1 and with orbital energy  -11.2461
 In total frozen-core per symmetry-class:  1  0  0  0
 
 Preparing R12 Ansatz 2/3 ... ONEAUX= F
   

 *******************************************************************
 *                                                                 *
 *<<<<<<<<<<                                             >>>>>>>>>>*
 *<<<<<<<<<< OUTPUT FROM COUPLED CLUSTER ENERGY PROGRAM  >>>>>>>>>>*
 *<<<<<<<<<<                                             >>>>>>>>>>*
 *                                                                 *
 *******************************************************************


             The Direct Coupled Cluster Energy Program
             -----------------------------------------


          Number of t1 amplitudes                 :        37
          Number of t2 amplitudes                 :      2812
          Number of t2' amplitudes for R12 part   :        40
          Total number of amplitudes in ccsd      :      2889



                        +---------------------------------+
                        ! Largest amplitudes in MP2 guess !
                        +---------------------------------+



          CC_PRAM:Overall Contribution of the Different Components
          --------------------------------------------------------



          Single Excitation Contribution :               0.0000 %

          Double Excitation Contribution :             100.0000 %

          ||T1||/||T2||                  :               0.0000

          Norm of Total Amplitude Vector :               0.1774


 +=============================================================================+
 | symmetry|  orbital index  |   Excitation Numbers             |   Amplitude  |
 |  Index  |   a   b   i   j |      NAI      NBJ |     NAIBJ    |              |
 +=============================================================================+
 +-----------------------------------------------------------------------------+
 | 2 2 2 2 |   1   1   1   1 |       11       11 |           66 |   -0.020693  |
 | 2 2 2 2 |   3   3   1   1 |       13       13 |           91 |   -0.024925  |
 | 3 3 3 3 |   1   1   1   1 |       20       20 |          210 |   -0.020693  |
 | 3 3 3 3 |   3   3   1   1 |       22       22 |          253 |   -0.024925  |
 | 4 4 4 4 |   1   1   1   1 |       29       29 |          435 |   -0.020693  |
 | 4 4 4 4 |   3   3   1   1 |       31       31 |          496 |   -0.024925  |
 | 1 1 3 3 |   5   5   1   1 |       23       23 |         1682 |   -0.023432  |
 +=============================================================================+


          Norm of Printed Amplitude Vector :             0.0608

          Printed all single excitations greater than 0.010000

          Printed all double excitations greater than 0.020000
 Iter.  1: Coupled cluster MP2-R12/B energy :     -40.3935426248691698
     Conventional correlation energy:    -0.1777600618090602
     R12 correlation energy         :    -0.0240104704196476
     Total correlation energy       :    -0.2017705322287078


       Iteration no.:  1
       -----------------

       Time used in   RHS - TOTAL  :       0.40 seconds
       Norm^2 of t1am   after ccvec:        0.0000000000D+00
       Norm^2 of t2am   after ccvec:        0.3146562648D-01
       Norm^2 of omega1 after ccvec:        0.1335634853D-02
       Norm^2 of omega2 after ccvec:        0.6156314656D-28
       Norm^2 of r12am     in NXTAM:        0.1636178297D+00
       Norm^2 of Omegar12  in NXTAM:        0.2113386205D-23
 Iter.  1: Coupled cluster CC2-R12/B energy :     -40.3934361794515979
     Conventional correlation energy:    -0.1776536163922557
     R12 correlation energy         :    -0.0240104704188791
     Total correlation energy       :    -0.2016640868111349


       Iteration no.:  2
       -----------------

       Time used in   RHS - TOTAL  :       0.40 seconds
       Norm^2 of t1am   after ccvec:        0.3402599745D-03
       Norm^2 of t2am   after ccvec:        0.3146562648D-01
       Norm^2 of omega1 after ccvec:        0.1637354190D-04
       Norm^2 of omega2 after ccvec:        0.7698018350D-04
       Norm^2 of r12am     in NXTAM:        0.1636178297D+00
       Norm^2 of Omegar12  in NXTAM:        0.5459230006D-07
 Iter.  2: Coupled cluster CC2-R12/B energy :     -40.3946122444169404
     Conventional correlation energy:    -0.1787535734960528
     R12 correlation energy         :    -0.0240865782804218
     Total correlation energy       :    -0.2028401517764747


       Iteration no.:  3
       -----------------

       Time used in   RHS - TOTAL  :       0.40 seconds
       Norm^2 of t1am   after ccvec:        0.4132817688D-03
       Norm^2 of t2am   after ccvec:        0.3177293667D-01
       Norm^2 of omega1 after ccvec:        0.3598029380D-05
       Norm^2 of omega2 after ccvec:        0.1077456544D-05
       Norm^2 of r12am     in NXTAM:        0.1649612225D+00
       Norm^2 of Omegar12  in NXTAM:        0.9524319744D-08
 Iter.  3: Coupled cluster CC2-R12/B energy :     -40.3947598731541646
     Conventional correlation energy:    -0.1789054996915596
     R12 correlation energy         :    -0.0240822808221455
     Total correlation energy       :    -0.2029877805137051


       Iteration no.:  4
       -----------------

       Time used in   RHS - TOTAL  :       0.40 seconds
       Norm^2 of t1am   after ccvec:        0.4935477701D-03
       Norm^2 of t2am   after ccvec:        0.3184182073D-01
       Norm^2 of omega1 after ccvec:        0.1198004758D-06
       Norm^2 of omega2 after ccvec:        0.1108849637D-06
       Norm^2 of r12am     in NXTAM:        0.1650354648D+00
       Norm^2 of Omegar12  in NXTAM:        0.7141769773D-09
 Iter.  4: Coupled cluster CC2-R12/B energy :     -40.3947505577358044
     Conventional correlation energy:    -0.1788870881794438
     R12 correlation energy         :    -0.0240913769159014
     Total correlation energy       :    -0.2029784650953452


       Iteration no.:  5
       -----------------

       Time used in   RHS - TOTAL  :       0.40 seconds
       Norm^2 of t1am   after ccvec:        0.4984231079D-03
       Norm^2 of t2am   after ccvec:        0.3183306614D-01
       Norm^2 of omega1 after ccvec:        0.7619486004D-08
       Norm^2 of omega2 after ccvec:        0.3977748946D-08
       Norm^2 of r12am     in NXTAM:        0.1651375039D+00
       Norm^2 of Omegar12  in NXTAM:        0.2195673329D-10
 Iter.  5: Coupled cluster CC2-R12/B energy :     -40.3947495595223884
     Conventional correlation energy:    -0.1788847026525389
     R12 correlation energy         :    -0.0240927642293901
     Total correlation energy       :    -0.2029774668819290


       Iteration no.:  6
       -----------------

       Time used in   RHS - TOTAL  :       0.40 seconds
       Norm^2 of t1am   after ccvec:        0.4989918183D-03
       Norm^2 of t2am   after ccvec:        0.3183237064D-01
       Norm^2 of omega1 after ccvec:        0.1194830449D-09
       Norm^2 of omega2 after ccvec:        0.7712461015D-10
       Norm^2 of r12am     in NXTAM:        0.1651427561D+00
       Norm^2 of Omegar12  in NXTAM:        0.1810706256D-11
 Iter.  6: Coupled cluster CC2-R12/B energy :     -40.3947503674895785
     Conventional correlation energy:    -0.1788850452694533
     R12 correlation energy         :    -0.0240932295796628
     Total correlation energy       :    -0.2029782748491160


       Iteration no.:  7
       -----------------

       Time used in   RHS - TOTAL  :       0.40 seconds
       Norm^2 of t1am   after ccvec:        0.4993662446D-03
       Norm^2 of t2am   after ccvec:        0.3183238484D-01
       Norm^2 of omega1 after ccvec:        0.2537228701D-11
       Norm^2 of omega2 after ccvec:        0.2636261495D-11
       Norm^2 of r12am     in NXTAM:        0.1651471823D+00
       Norm^2 of Omegar12  in NXTAM:        0.1909447197D-13
 Iter.  7: Coupled cluster CC2-R12/B energy :     -40.3947504146947196
     Conventional correlation energy:    -0.1788850880912491
     R12 correlation energy         :    -0.0240932339630108
     Total correlation energy       :    -0.2029783220542600


       Iteration no.:  8
       -----------------

       Time used in   RHS - TOTAL  :       0.40 seconds
       Norm^2 of t1am   after ccvec:        0.4993817747D-03
       Norm^2 of t2am   after ccvec:        0.3183237526D-01
       Norm^2 of omega1 after ccvec:        0.2036932102D-12
       Norm^2 of omega2 after ccvec:        0.1142083235D-12
       Norm^2 of r12am     in NXTAM:        0.1651472548D+00
       Norm^2 of Omegar12  in NXTAM:        0.5289801964D-15
 Iter.  8: Coupled cluster CC2-R12/B energy :     -40.3947504012912191
     Conventional correlation energy:    -0.1788850745122161
     R12 correlation energy         :    -0.0240932341385423
     Total correlation energy       :    -0.2029783086507584


       Iteration no.:  9
       -----------------

       Time used in   RHS - TOTAL  :       0.40 seconds
       Norm^2 of t1am   after ccvec:        0.4993789599D-03
       Norm^2 of t2am   after ccvec:        0.3183236122D-01
       Norm^2 of omega1 after ccvec:        0.2283137320D-14
       Norm^2 of omega2 after ccvec:        0.2998896215D-14
       Norm^2 of r12am     in NXTAM:        0.1651473097D+00
       Norm^2 of Omegar12  in NXTAM:        0.1126694407D-15
 Iter.  9: Coupled cluster CC2-R12/B energy :     -40.3947504005137930
     Conventional correlation energy:    -0.1788850759642102
     R12 correlation energy         :    -0.0240932319091230
     Total correlation energy       :    -0.2029783078733333


       Iteration no.: 10
       -----------------

       Time used in   RHS - TOTAL  :       0.40 seconds
       Norm^2 of t1am   after ccvec:        0.4993786515D-03
       Norm^2 of t2am   after ccvec:        0.3183236157D-01
       Norm^2 of omega1 after ccvec:        0.2532000831D-15
       Norm^2 of omega2 after ccvec:        0.3776023212D-15
       Norm^2 of r12am     in NXTAM:        0.1651472841D+00
       Norm^2 of Omegar12  in NXTAM:        0.1589577155D-17
 Iter. 10: Coupled cluster CC2-R12/B energy :     -40.3947503995376493
     Conventional correlation energy:    -0.1788850753617979
     R12 correlation energy         :    -0.0240932315353895
     Total correlation energy       :    -0.2029783068971874


       Iteration no.: 11
       -----------------

       Time used in   RHS - TOTAL  :       0.40 seconds
       Norm^2 of t1am   after ccvec:        0.4993783635D-03
       Norm^2 of t2am   after ccvec:        0.3183236095D-01
       Norm^2 of omega1 after ccvec:        0.2077279814D-16
       Norm^2 of omega2 after ccvec:        0.2078300065D-16
       Norm^2 of r12am     in NXTAM:        0.1651472828D+00
       Norm^2 of Omegar12  in NXTAM:        0.1008742994D-17
 Iter. 11: Coupled cluster CC2-R12/B energy :     -40.3947503990085366
     Conventional correlation energy:    -0.1788850750838051
     R12 correlation energy         :    -0.0240932312842695
     Total correlation energy       :    -0.2029783063680747


       Iteration no.: 12
       -----------------

       Time used in   RHS - TOTAL  :       0.40 seconds
       Norm^2 of t1am   after ccvec:        0.4993782477D-03
       Norm^2 of t2am   after ccvec:        0.3183236077D-01
       Norm^2 of omega1 after ccvec:        0.5168562547D-18
       Norm^2 of omega2 after ccvec:        0.5431143822D-18
       Norm^2 of r12am     in NXTAM:        0.1651472800D+00
       Norm^2 of Omegar12  in NXTAM:        0.3460242074D-20
 Iter. 12: Coupled cluster CC2-R12/B energy :     -40.3947503989601842
     Conventional correlation energy:    -0.1788850750351685
     R12 correlation energy         :    -0.0240932312845524
     Total correlation energy       :    -0.2029783063197208


 CC2-R12/B energy converged to within   0.10D-09 is          -40.394750398960
 Final 2-norm of the CC vector function:  1.02954875D-09
 R12       energy converged to within   0.10D-09 is     -0.024093231


                    +------------------------------------------+
                    ! Largest amplitudes in converged solution !
                    +------------------------------------------+



          CC_PRAM:Overall Contribution of the Different Components
          --------------------------------------------------------



          Single Excitation Contribution :               1.5445 %

          Double Excitation Contribution :              98.4555 %

          ||T1||/||T2||                  :               0.1253

          Tau1 diagnostic                :               0.0079

          Norm of Total Amplitude Vector :               0.1798


 +=============================================================================+
 | symmetry|  orbital index  |   Excitation Numbers             |   Amplitude  |
 |  Index  |   a   b   i   j |      NAI      NBJ |     NAIBJ    |              |
 +=============================================================================+
 | 1   1   |   2       1     |        2          |              |   -0.002893  |
 | 1   1   |   3       1     |        3          |              |   -0.003229  |
 | 2   2   |   1       1     |       11          |              |   -0.003892  |
 | 2   2   |   2       1     |       12          |              |    0.007750  |
 | 2   2   |   3       1     |       13          |              |    0.006870  |
 | 2   2   |   5       1     |       15          |              |    0.002832  |
 | 2   2   |   7       1     |       17          |              |   -0.004419  |
 | 3   3   |   1       1     |       20          |              |   -0.003892  |
 | 3   3   |   2       1     |       21          |              |    0.007750  |
 | 3   3   |   3       1     |       22          |              |    0.006870  |
 | 3   3   |   5       1     |       24          |              |    0.002832  |
 | 3   3   |   7       1     |       26          |              |   -0.004419  |
 | 4   4   |   1       1     |       29          |              |   -0.003892  |
 | 4   4   |   2       1     |       30          |              |    0.007750  |
 | 4   4   |   3       1     |       31          |              |    0.006870  |
 | 4   4   |   5       1     |       33          |              |    0.002832  |
 | 4   4   |   7       1     |       35          |              |   -0.004419  |
 +-----------------------------------------------------------------------------+
 | 2 2 2 2 |   1   1   1   1 |       11       11 |           66 |   -0.020866  |
 | 2 2 2 2 |   3   3   1   1 |       13       13 |           91 |   -0.025396  |
 | 3 3 3 3 |   1   1   1   1 |       20       20 |          210 |   -0.020866  |
 | 3 3 3 3 |   3   3   1   1 |       22       22 |          253 |   -0.025396  |
 | 4 4 4 4 |   1   1   1   1 |       29       29 |          435 |   -0.020866  |
 | 4 4 4 4 |   3   3   1   1 |       31       31 |          496 |   -0.025396  |
 | 1 1 3 3 |   5   5   1   1 |       23       23 |         1682 |   -0.023510  |
 +=============================================================================+


          Norm of Printed Amplitude Vector :             0.0653

          Printed all single excitations greater than 0.002486

          Printed all double excitations greater than 0.019845





             +-------------------------------------------------------+
             ! Final results from the Coupled Cluster energy program !
             +-------------------------------------------------------+



            Total SCF   energy:                   -40.1917720926

            Total MP2-R12/B energy:               -40.3935426249

            Total CC2-R12/B energy:               -40.3947503990




                   +--------------------------------------------+
                   ! Calculating singlet intermediates for CCLR !
                   +--------------------------------------------+



       Time used in   RHS - TOTAL  :       0.42 seconds


            E-intermediates calculated 
            Fock-intermediate calculated 


   

 *******************************************************************
 *                                                                 *
 *<<<<<<<<<< OUTPUT FROM COUPLED CLUSTER LINEAR RESPONSE >>>>>>>>>>*
 *                                                                 *
 *<<<<<<<<<<     CALCULATION OF EXCITATION ENERGIES      >>>>>>>>>>*
 *                                                                 *
 *******************************************************************



                            +--------------------------+
                            !  CC2 Excitation Energies !
                            +--------------------------+


 --------------------------
 Symmetry class Nr.:     1
 Multiplicity      :     1
 --------------------------

 Length of Excitation vectors in this class is:      2889
 Converging for  3 roots.
  >> output from FNDMN3 <<
  LOWEST VALUE AND PLACE   0.75401585626248147               20
  HIGHST VALUE AND PLACE    51.649282694685212               92
IELMNT XMIN IMIN NDEG        1    7.54016D-01      20   1
IELMNT XMIN IMIN NDEG        2    7.54016D-01      11   2
IELMNT XMIN IMIN NDEG        3    7.54016D-01      29   3
IELMNT XMIN IMIN NDEG        4    9.44239D-01      12   1
IELMNT XMIN IMIN NDEG        5    9.44239D-01      30   2
IELMNT XMIN IMIN NDEG        6    9.44239D-01      21   3
IELMNT XMIN IMIN NDEG        7    1.06336D+00       1   1
  NUMBER OF ELEMENTS OBTAINED IN FNDMN3            6
  FROM FNDMN3 : 
    PLACES OF LOWEST ELEMENTS 
     1 :     20     11     29     12     30     21
  MIN AND MAX IN SELECTED SUPSPACE   0.75401585626248147       0.94423875534534407     
 Start vector guessed from diagonal
 ... selected element no. 20
 Start vector guessed from diagonal
 ... selected element no. 11
 Start vector guessed from diagonal
 ... selected element no. 29
 CCEQ_SOL: IPRLE   =               5
 CCEQ_SOL: TRIPLET =     F
 CCEQ_SOL: LINQCC  =     F
 CCEQ_SOL: NREDH   =               3
 CCEQ_SOL: MAXRED  =             200
 CCEQ_SOL: MAXLE   =             100
 CCEQ_SOL: ISIDE   =               1
 CCEQ_SOL: ISTRVE  =               1
 CCEQ_SOL: NVEC    =               3
 CCEQ_SOL: NUPVEC  =               3
 CCEQ_SOL: NCCVAR  =            2889



 >>>>> COUPLED CLUSTER RESPONSE SOLVER <<<<<

    Iter  #Vectors  time (min)   residual
    --------------------------------------


 Time used in     CC_RHTR in total   :       0.40 seconds
 Time used in   CC part              :       0.00 seconds
 Time used in   Int. calc. & read    :       0.01 seconds
 Time used in   IO of vectors/I.M.   :       0.00 seconds
  


 Time used in     CC_RHTR in total   :       0.40 seconds
 Time used in   CC part              :       0.00 seconds
 Time used in   Int. calc. & read    :       0.01 seconds
 Time used in   IO of vectors/I.M.   :       0.00 seconds
  


 Time used in     CC_RHTR in total   :       0.40 seconds
 Time used in   CC part              :       0.00 seconds
 Time used in   Int. calc. & read    :       0.01 seconds
 Time used in   IO of vectors/I.M.   :       0.00 seconds
  

 REDUCED EIGENVALUES real part:

               Column   1
       1       0.57486721
       2       0.57486721
       3       0.63249784
    ==== End of matrix output ====
  
 ROOT:  1 RESIDUAL TOT: 3.06011D-01
 ROOT:  2 RESIDUAL TOT: 3.06168D-01
 ROOT:  3 RESIDUAL TOT: 3.21340D-01
      1       3         0.02     0.32E+00

 Lowest eigenvalues in this iteration: 

               Column   1
       1       0.57486721
       2       0.57486721
       3       0.63249784
    ==== End of matrix output ====
 Dimension of the reduced space:     6
 >>> TIME USED IN THIS MICRO ITERATION        1.20



 Time used in     CC_RHTR in total   :       0.40 seconds
 Time used in   CC part              :       0.00 seconds
 Time used in   Int. calc. & read    :       0.01 seconds
 Time used in   IO of vectors/I.M.   :       0.00 seconds
  


 Time used in     CC_RHTR in total   :       0.40 seconds
 Time used in   CC part              :       0.01 seconds
 Time used in   Int. calc. & read    :       0.01 seconds
 Time used in   IO of vectors/I.M.   :       0.00 seconds
  


 Time used in     CC_RHTR in total   :       0.40 seconds
 Time used in   CC part              :       0.01 seconds
 Time used in   Int. calc. & read    :       0.01 seconds
 Time used in   IO of vectors/I.M.   :       0.00 seconds
  

 REDUCED EIGENVALUES real part:

               Column   1
       1       0.49488148
       2       0.49488635
       3       0.55196620
    ==== End of matrix output ====
  
 ROOT:  1 RESIDUAL TOT: 5.67718D-02
 ROOT:  2 RESIDUAL TOT: 5.67731D-02
 ROOT:  3 RESIDUAL TOT: 8.61395D-02
      2       3         0.02     0.86E-01

 Lowest eigenvalues in this iteration: 

               Column   1
       1       0.49488148
       2       0.49488635
       3       0.55196620
    ==== End of matrix output ====
 Dimension of the reduced space:     9
 >>> TIME USED IN THIS MICRO ITERATION        1.20



 Time used in     CC_RHTR in total   :       0.40 seconds
 Time used in   CC part              :       0.00 seconds
 Time used in   Int. calc. & read    :       0.01 seconds
 Time used in   IO of vectors/I.M.   :       0.00 seconds
  


 Time used in     CC_RHTR in total   :       0.40 seconds
 Time used in   CC part              :       0.01 seconds
 Time used in   Int. calc. & read    :       0.01 seconds
 Time used in   IO of vectors/I.M.   :       0.00 seconds
  


 Time used in     CC_RHTR in total   :       0.40 seconds
 Time used in   CC part              :       0.00 seconds
 Time used in   Int. calc. & read    :       0.01 seconds
 Time used in   IO of vectors/I.M.   :       0.00 seconds
  

 REDUCED EIGENVALUES real part:

               Column   1
       1       0.49123332
       2       0.49123734
       3       0.54572945
    ==== End of matrix output ====
  
 ROOT:  1 RESIDUAL TOT: 4.26469D-02
 ROOT:  2 RESIDUAL TOT: 4.26371D-02
 ROOT:  3 RESIDUAL TOT: 4.75122D-02
      3       3         0.02     0.48E-01

 Lowest eigenvalues in this iteration: 

               Column   1
       1       0.49123332
       2       0.49123734
       3       0.54572945
    ==== End of matrix output ====
 Dimension of the reduced space:    12
 >>> TIME USED IN THIS MICRO ITERATION        1.20



 Time used in     CC_RHTR in total   :       0.40 seconds
 Time used in   CC part              :       0.00 seconds
 Time used in   Int. calc. & read    :       0.01 seconds
 Time used in   IO of vectors/I.M.   :       0.00 seconds
  


 Time used in     CC_RHTR in total   :       0.40 seconds
 Time used in   CC part              :       0.00 seconds
 Time used in   Int. calc. & read    :       0.01 seconds
 Time used in   IO of vectors/I.M.   :       0.00 seconds
  


 Time used in     CC_RHTR in total   :       0.40 seconds
 Time used in   CC part              :       0.00 seconds
 Time used in   Int. calc. & read    :       0.01 seconds
 Time used in   IO of vectors/I.M.   :       0.00 seconds
  

 REDUCED EIGENVALUES real part:

               Column   1
       1       0.49113064
       2       0.49113265
       3       0.54510713
    ==== End of matrix output ====
  
 ROOT:  1 RESIDUAL TOT: 2.04234D-02
 ROOT:  2 RESIDUAL TOT: 2.04176D-02
 ROOT:  3 RESIDUAL TOT: 4.30733D-02
      4       3         0.02     0.43E-01

 Lowest eigenvalues in this iteration: 

               Column   1
       1       0.49113064
       2       0.49113265
       3       0.54510713
    ==== End of matrix output ====
 Dimension of the reduced space:    15
 >>> TIME USED IN THIS MICRO ITERATION        1.21



 Time used in     CC_RHTR in total   :       0.40 seconds
 Time used in   CC part              :       0.01 seconds
 Time used in   Int. calc. & read    :       0.01 seconds
 Time used in   IO of vectors/I.M.   :       0.00 seconds
  


 Time used in     CC_RHTR in total   :       0.40 seconds
 Time used in   CC part              :       0.00 seconds
 Time used in   Int. calc. & read    :       0.02 seconds
 Time used in   IO of vectors/I.M.   :       0.00 seconds
  


 Time used in     CC_RHTR in total   :       0.39 seconds
 Time used in   CC part              :       0.00 seconds
 Time used in   Int. calc. & read    :       0.01 seconds
 Time used in   IO of vectors/I.M.   :       0.00 seconds
  

 REDUCED EIGENVALUES real part:

               Column   1
       1       0.49084853
       2       0.49084941
       3       0.54266820
    ==== End of matrix output ====
  
 ROOT:  1 RESIDUAL TOT: 1.71485D-02
 ROOT:  2 RESIDUAL TOT: 1.71476D-02
 ROOT:  3 RESIDUAL TOT: 3.06982D-02
      5       3         0.02     0.31E-01

 Lowest eigenvalues in this iteration: 

               Column   1
       1       0.49084853
       2       0.49084941
       3       0.54266820
    ==== End of matrix output ====
 Dimension of the reduced space:    18
 >>> TIME USED IN THIS MICRO ITERATION        1.20



 Time used in     CC_RHTR in total   :       0.40 seconds
[...]

 REDUCED EIGENVALUES real part:

               Column   1
       1       0.41686200
       2       0.48199287
       3       0.49068540
    ==== End of matrix output ====
  
 ROOT:  1 RESIDUAL TOT: 1.65622D-08
 ROOT:  2 RESIDUAL TOT: 7.79053D-09
 ROOT:  2 HAS CONVERGED. RESIDUAL TOT: 7.79053D-09
 ROOT:  3 RESIDUAL TOT: 2.61896D-08
     14       3         0.02     0.26E-07

 Lowest eigenvalues in this iteration: 

               Column   1
       1       0.41686200
       2       0.48199287
       3       0.49068540
    ==== End of matrix output ====
 Dimension of the reduced space:    44
 >>> TIME USED IN THIS MICRO ITERATION        1.21



 Time used in     CC_RHTR in total   :       0.40 seconds
 Time used in   CC part              :       0.01 seconds
 Time used in   Int. calc. & read    :       0.01 seconds
 Time used in   IO of vectors/I.M.   :       0.00 seconds
  


 Time used in     CC_RHTR in total   :       0.40 seconds
 Time used in   CC part              :       0.01 seconds
 Time used in   Int. calc. & read    :       0.01 seconds
 Time used in   IO of vectors/I.M.   :       0.00 seconds
  

 REDUCED EIGENVALUES real part:

               Column   1
       1       0.41686200
       2       0.48199287
       3       0.49068540
    ==== End of matrix output ====
  
 ROOT:  1 RESIDUAL TOT: 2.26339D-09
 ROOT:  1 HAS CONVERGED. RESIDUAL TOT: 2.26339D-09
 ROOT:  2 RESIDUAL TOT: 7.79053D-09
 ROOT:  2 HAS CONVERGED. RESIDUAL TOT: 7.79053D-09
 ROOT:  3 RESIDUAL TOT: 4.46440D-09
 ROOT:  3 HAS CONVERGED. RESIDUAL TOT: 4.46440D-09
     15       2         0.01     0.78E-08

 Lowest eigenvalues in this iteration: 

               Column   1
       1       0.41686200
       2       0.48199287
       3       0.49068540
    ==== End of matrix output ====
 Dimension of the reduced space:    44
 >>> TIME USED IN THIS MICRO ITERATION        0.81

    --------------------------------------
    converged in 15 iterations
    threshold:    0.10E-07


         Routine          Time (min)
         ---------------------------
         CC_TRDRV            0.29
         CCRED               0.00
         CCNEX               0.00
         ---------------------------
         Total time          0.29


 >>>> Total CPU  time used in CCEQ_SOLV:  17.68 seconds
 >>>> Total wall time used in CCEQ_SOLV:  18.58 seconds


 >>>>>>>>>>>>>>>>>>>>> <<<<<<<<<<<<<<<<<<<<<



  Final eigenvalues :
 =====================
 (convergence threshold:  1.00D-08)

    1   0.4168620036
    2   0.4819928675
    3   0.4906854040


 SYMMETRY CLASS NR.    4
 MULTIPLICITY          1


 CC2-R12/B  right excitation energies:
 ====================================
 (conversion factor used: 1 au = 27.2113957 eV)

 Excitation no.       Hartree               eV 
 --------------       -------               --
         1            0.4168620036       11.3433921434
         2            0.4819928675       13.1156931037
         3            0.4906854040       13.3522290555


 Total excited state energies for states of symmetry/spin    4    1
 Excitation no.       Energy (Hartree) 
 ------------------------------------- 
@@    4    1           -39.977888395326737
@@    4    2           -39.912757531471343
@@    4    3           -39.904064994921384


 Analysis of the Coupled Cluster Excitation Vector Number :  1
 -------------------------------------------------------------

          Excitation Energy :                            11.3434 eV


          CC_PRAM:Overall Contribution of the Different Components
          --------------------------------------------------------



          Single Excitation Contribution :              97.0302 %

          Double Excitation Contribution :               2.9698 %

          ||T1||/||T2||                  :               5.7159

          Norm of Total Amplitude Vector :               0.9999


 +=============================================================================+
 | symmetry|  orbital index  |   Excitation Numbers             |   Amplitude  |
 |  Index  |   a   b   i   j |      NAI      NBJ |     NAIBJ    |              |
 +=============================================================================+
 | 1   4   |   1       1     |       28          |              |    0.973307  |
 +-----------------------------------------------------------------------------+
 | 4 1 2 2 |   1   2   1   1 |       10       11 |          380 |   -0.024534  |
 | 4 1 2 2 |   2  10   1   1 |       11       19 |          677 |    0.020059  |
 | 1 1 3 2 |   3  10   1   1 |       21       19 |          687 |   -0.024534  |
 | 2 1 4 2 |   2  10   1   1 |       30       19 |          696 |   -0.027775  |
 | 4 4 2 3 |   1   1   1   1 |       10       20 |          713 |    0.020059  |
 | 4 3 2 4 |   1   2   1   1 |       10       30 |         1083 |   -0.027775  |
 | 2 3 4 4 |   1   1   1   1 |       29       29 |         1065 |   -0.025873  |
 | 4 2 1 2 |   1   1   1   1 |        1       11 |         1740 |   -0.032333  |
 | 4 3 1 3 |   1   1   1   1 |        1       20 |         2073 |   -0.032333  |
 | 4 3 1 3 |   1   9   1   1 |        1       28 |         2369 |   -0.034642  |
 | 3 3 2 3 |   2   9   1   1 |       11       28 |         2379 |   -0.042292  |
 | 3 3 2 3 |   3   9   1   1 |       12       28 |         2380 |   -0.018638  |
 | 3 3 2 3 |   4   9   1   1 |       13       28 |         2381 |    0.024294  |
 | 2 3 3 3 |   2   9   1   1 |       20       28 |         2388 |   -0.042292  |
 | 2 3 3 3 |   3   9   1   1 |       21       28 |         2389 |   -0.018638  |
 | 2 3 3 3 |   4   9   1   1 |       22       28 |         2390 |    0.024294  |
 | 1 3 4 3 |   2   9   1   1 |       29       28 |         2397 |   -0.063040  |
 | 1 3 4 3 |   4   9   1   1 |       31       28 |         2399 |    0.029544  |
 | 4 4 1 4 |   1   3   1   1 |        1       31 |         2480 |   -0.022882  |
 +=============================================================================+


          Norm of Printed Amplitude Vector :             0.9827

          Printed all single excitations greater than 0.098504

          Printed all double excitations greater than 0.017233


 Analysis of the Coupled Cluster Excitation Vector Number :  2
 -------------------------------------------------------------

          Excitation Energy :                            13.1157 eV


          CC_PRAM:Overall Contribution of the Different Components
          --------------------------------------------------------



          Single Excitation Contribution :              96.9910 %

          Double Excitation Contribution :               3.0090 %

          ||T1||/||T2||                  :               5.6774

          Norm of Total Amplitude Vector :               0.9999


 +=============================================================================+
 | symmetry|  orbital index  |   Excitation Numbers             |   Amplitude  |
 |  Index  |   a   b   i   j |      NAI      NBJ |     NAIBJ    |              |
 +=============================================================================+
 | 2   3   |   1       1     |       19          |              |    0.672409  |
 | 2   3   |   2       1     |       20          |              |   -0.143689  |
 | 2   3   |   3       1     |       21          |              |   -0.108950  |
 | 3   2   |   1       1     |       10          |              |   -0.672409  |
 | 3   2   |   2       1     |       11          |              |    0.143689  |
 | 3   2   |   3       1     |       12          |              |    0.108950  |
 +-----------------------------------------------------------------------------+
 | 1 2 3 1 |   3   1   1   1 |       21        1 |           21 |    0.023838  |
 | 2 2 4 1 |   2   1   1   1 |       30        1 |           30 |    0.021474  |
 | 3 1 1 2 |   1   2   1   1 |        1       11 |          371 |   -0.023838  |
 | 4 1 2 2 |   1   1   1   1 |       10       10 |          343 |    0.020564  |
 | 1 1 3 2 |   2  10   1   1 |       20       19 |          686 |   -0.020564  |
 | 2 1 4 2 |   1   2   1   1 |       29       11 |          399 |    0.018772  |
 | 3 4 1 3 |   1   4   1   1 |        1       23 |          815 |   -0.019427  |
 | 2 4 4 3 |   1   1   1   1 |       29       20 |          732 |   -0.018316  |
 | 3 3 1 4 |   1   2   1   1 |        1       30 |         1074 |   -0.021474  |
 | 4 3 2 4 |   2   1   1   1 |       11       29 |         1047 |    0.018316  |
 | 1 3 3 4 |   3   1   1   1 |       21       29 |         1057 |   -0.018772  |
 | 4 1 1 1 |   1  10   1   1 |        1       10 |         1703 |    0.018254  |
 | 3 1 2 1 |   2  10   1   1 |       11       10 |         1713 |    0.042979  |
 | 3 1 2 1 |   4  10   1   1 |       13       10 |         1715 |   -0.018626  |
 | 1 1 4 1 |   2  10   1   1 |       29       10 |         1731 |    0.025211  |
 | 4 2 1 2 |   1   9   1   1 |        1       19 |         2036 |   -0.018254  |
 | 3 2 2 2 |   2   1   1   1 |       11       11 |         1750 |   -0.024892  |
 | 2 2 3 2 |   2   1   1   1 |       20       11 |         1759 |    0.025151  |
 | 2 2 3 2 |   2   2   1   1 |       20       12 |         1796 |    0.021506  |
 | 2 2 3 2 |   2   9   1   1 |       20       19 |         2055 |   -0.042979  |
 | 2 2 3 2 |   4   9   1   1 |       22       19 |         2057 |    0.018626  |
 | 1 2 4 2 |   2   9   1   1 |       29       19 |         2064 |   -0.025211  |
 | 3 3 2 3 |   2   1   1   1 |       11       20 |         2083 |   -0.025151  |
 | 3 3 2 3 |   2   2   1   1 |       11       21 |         2120 |   -0.021506  |
 | 2 3 3 3 |   2   1   1   1 |       20       20 |         2092 |    0.024892  |
 | 3 4 2 4 |   2   1   1   1 |       11       29 |         2416 |    0.021840  |
 | 2 4 3 4 |   2   1   1   1 |       20       29 |         2425 |   -0.021840  |
 +=============================================================================+


          Norm of Printed Amplitude Vector :             0.9923

          Printed all single excitations greater than 0.098484

          Printed all double excitations greater than 0.017347


 Analysis of the Coupled Cluster Excitation Vector Number :  3
 -------------------------------------------------------------

          Excitation Energy :                            13.3522 eV


          CC_PRAM:Overall Contribution of the Different Components
          --------------------------------------------------------



          Single Excitation Contribution :              97.1584 %

          Double Excitation Contribution :               2.8416 %

          ||T1||/||T2||                  :               5.8473

          Norm of Total Amplitude Vector :               0.9999


 +=============================================================================+
 | symmetry|  orbital index  |   Excitation Numbers             |   Amplitude  |
 |  Index  |   a   b   i   j |      NAI      NBJ |     NAIBJ    |              |
 +=============================================================================+
 | 1   4   |   1       1     |       28          |              |   -0.106726  |
 | 2   3   |   1       1     |       19          |              |    0.686529  |
 | 3   2   |   1       1     |       10          |              |    0.686529  |
 +-----------------------------------------------------------------------------+
 | 3 2 1 1 |   1   1   1   1 |        1        1 |            1 |   -0.020187  |
 | 1 2 3 1 |   3   1   1   1 |       21        1 |           21 |   -0.019905  |
 | 2 2 4 1 |   2   1   1   1 |       30        1 |           30 |   -0.021910  |
 | 3 1 1 2 |   1   2   1   1 |        1       11 |          371 |   -0.019905  |
 | 4 1 2 2 |   1   1   1   1 |       10       10 |          343 |   -0.022235  |
 | 4 1 2 2 |   1   2   1   1 |       10       11 |          380 |    0.017338  |
 | 4 1 2 2 |   1  10   1   1 |       10       19 |          676 |   -0.018090  |
 | 1 1 3 2 |   2  10   1   1 |       20       19 |          686 |   -0.022235  |
 | 1 1 3 2 |   3  10   1   1 |       21       19 |          687 |    0.017338  |
 | 2 1 4 2 |   1   2   1   1 |       29       11 |          399 |   -0.021383  |
 | 3 4 1 3 |   1   4   1   1 |        1       23 |          815 |   -0.019588  |
 | 3 3 1 4 |   1   2   1   1 |        1       30 |         1074 |   -0.021910  |
 | 1 3 3 4 |   3   1   1   1 |       21       29 |         1057 |   -0.021383  |
 | 2 3 4 4 |   2   1   1   1 |       30       29 |         1066 |   -0.020288  |
 | 2 3 4 4 |   1   2   1   1 |       29       30 |         1102 |   -0.020288  |
 | 4 1 1 1 |   1  10   1   1 |        1       10 |         1703 |   -0.021970  |
 | 3 1 2 1 |   2  10   1   1 |       11       10 |         1713 |   -0.040523  |
 | 3 1 2 1 |   4  10   1   1 |       13       10 |         1715 |    0.018933  |
 | 2 1 3 1 |   2  10   1   1 |       20       10 |         1722 |   -0.030518  |
 | 1 1 4 1 |   2  10   1   1 |       29       10 |         1731 |   -0.025776  |
 | 4 2 1 2 |   1   9   1   1 |        1       19 |         2036 |   -0.021970  |
 | 3 2 2 2 |   2   9   1   1 |       11       19 |         2046 |   -0.030518  |
 | 2 2 3 2 |   2   2   1   1 |       20       12 |         1796 |   -0.016865  |
 | 2 2 3 2 |   2   9   1   1 |       20       19 |         2055 |   -0.040523  |
 | 2 2 3 2 |   4   9   1   1 |       22       19 |         2057 |    0.018933  |
 | 1 2 4 2 |   2   9   1   1 |       29       19 |         2064 |   -0.025776  |
 | 3 3 2 3 |   2   2   1   1 |       11       21 |         2120 |   -0.016865  |
 +=============================================================================+


          Norm of Printed Amplitude Vector :             0.9844

          Printed all single excitations greater than 0.098569

          Printed all double excitations greater than 0.016857


 *******************************************************************************

 --------------------------
 Symmetry class Nr.:     4
 Multiplicity      :     3
 --------------------------

 Length of Excitation vectors in this class is:      5545
 No Excitation Energies calculated in this symmetry class

 *******************************************************************

 Ground state energy is target 

 Ecorr =                    -40.39475039896018415675

 *******************************************************************
  

 *******************************************************************************
 *******************************************************************************
 *                                                                             *
 *                                                                             *
 *                   SUMMARY OF COUPLED CLUSTER CALCULATION                    *
 *                                                                             *
 *                                                                             *
 *******************************************************************************
 *******************************************************************************

                                                                                
                                                                                
            Total SCF   energy:                   -40.1917720926                
            Total MP2-R12/B energy:               -40.3935426249                
            Total CC2-R12/B energy:               -40.3947503990                
                                                                                
                                                                                
 +=============================================================================+
 |  sym. | Exci.  |        CC2-R12/B  Excitation energies            | ||T1||  |
 |(spin, |        +------------------------------------------------------------+
 | spat) |        |     Hartree    |       eV.      |     cm-1       |    %    |
 +=============================================================================+
 | ^1A   |    1   |     0.4905731  |      13.34917  |    107668.354  |  97.34  |
 | ^1A   |    2   |     0.4905731  |      13.34917  |    107668.354  |  97.34  |
 | ^1A   |    3   |     0.5420474  |      14.74986  |    118965.641  |  97.11  |
 +-----------------------------------------------------------------------------+
 | ^1B2  |    1   |     0.4168620  |      11.34339  |     91490.634  |  97.03  |
 | ^1B2  |    2   |     0.4819929  |      13.11569  |    105785.206  |  96.99  |
 | ^1B2  |    3   |     0.4906854  |      13.35223  |    107692.997  |  97.16  |
 +-----------------------------------------------------------------------------+
 | ^1B1  |    1   |     0.4168620  |      11.34339  |     91490.634  |  97.03  |
 | ^1B1  |    2   |     0.4819929  |      13.11569  |    105785.206  |  96.99  |
 | ^1B1  |    3   |     0.4906854  |      13.35223  |    107692.997  |  97.16  |
 +-----------------------------------------------------------------------------+
 | ^1B3  |    1   |     0.4168620  |      11.34339  |     91490.634  |  97.03  |
 | ^1B3  |    2   |     0.4819929  |      13.11569  |    105785.206  |  96.99  |
 | ^1B3  |    3   |     0.4906854  |      13.35223  |    107692.997  |  97.16  |
 +=============================================================================+
                                                                                
                                                                                
     Total energies in Hartree:                                                 
             1 ^1A        -39.9041772796                                        
             2 ^1A        -39.9041772796                                        
             3 ^1A        -39.8527030482                                        
             1 ^1B2       -39.9778883953                                        
             2 ^1B2       -39.9127575315                                        
             3 ^1B2       -39.9040649949                                        
             1 ^1B1       -39.9778883953                                        
             2 ^1B1       -39.9127575315                                        
             3 ^1B1       -39.9040649949                                        
             1 ^1B3       -39.9778883953                                        
             2 ^1B3       -39.9127575315                                        
             3 ^1B3       -39.9040649949                                        

  1 a.u. =        27.21138 eV.  
  1 a.u. =    219474.62934 cm-1.
  

 *******************************************************************************
 *******************************************************************************
 *                                                                             *
 *                                                                             *
 *                      END OF COUPLED CLUSTER CALCULATION                     *
 *                                                                             *
 *                                                                             *
 *******************************************************************************
 *******************************************************************************


 >>>> CPU and wall time for CC :      89.556      92.448

 
     Date and time (Linux)  : Sun Sep  8 21:12:18 2013
     Host name              : lpqlx131.ups-tlse.fr                    


                      .-------------------------------------.
                      | End of Coupled Cluster Section (CC) |
                      `-------------------------------------'

 >>>> Total CPU  time used in DALTON:  1 minute  31 seconds
 >>>> Total wall time used in DALTON:  1 minute  34 seconds

 
     Date and time (Linux)  : Sun Sep  8 21:12:18 2013
     Host name              : lpqlx131.ups-tlse.fr                    
