

     ************************************************************************
     *************** Dalton - An Electronic Structure Program ***************
     ************************************************************************

    This is output from DALTON (Release Dalton2013 patch 0)
   ----------------------------------------------------------------------------
    NOTE:
     
    Dalton is an experimental code for the evaluation of molecular
    properties using (MC)SCF, DFT, CI, and CC wave functions.
    The authors accept no responsibility for the performance of
    the code or for the correctness of the results.
     
    The code (in whole or part) is provided under a licence and
    is not to be reproduced for further distribution without
    the written permission of the authors or their representatives.
     
    See the home page "http://daltonprogram.org" for further information.
     
    If results obtained with this code are published,
    the appropriate citations would be both of:
     
       K. Aidas, C. Angeli, K. L. Bak, V. Bakken, R. Bast,
       L. Boman, O. Christiansen, R. Cimiraglia, S. Coriani,
       P. Dahle, E. K. Dalskov, U. Ekstroem, T. Enevoldsen,
       J. J. Eriksen, P. Ettenhuber, B. Fernandez, L. Ferrighi,
       H. Fliegl, L. Frediani, K. Hald, A. Halkier, C. Haettig,
       H. Heiberg, T. Helgaker, A. C. Hennum, H. Hettema,
       E. Hjertenaes, S. Hoest, I.-M. Hoeyvik, M. F. Iozzi,
       B. Jansik, H. J. Aa. Jensen, D. Jonsson, P. Joergensen,
       J. Kauczor, S. Kirpekar, T. Kjaergaard, W. Klopper,
       S. Knecht, R. Kobayashi, H. Koch, J. Kongsted, A. Krapp,
       K. Kristensen, A. Ligabue, O. B. Lutnaes, J. I. Melo,
       K. V. Mikkelsen, R. H. Myhre, C. Neiss, C. B. Nielsen,
       P. Norman, J. Olsen, J. M. H. Olsen, A. Osted,
       M. J. Packer, F. Pawlowski, T. B. Pedersen, P. F. Provasi,
       S. Reine, Z. Rinkevicius, T. A. Ruden, K. Ruud, V. Rybkin,
       P. Salek, C. C. M. Samson, A. Sanchez de Meras, T. Saue,
       S. P. A. Sauer, B. Schimmelpfennig, K. Sneskov,
       A. H. Steindal, K. O. Sylvester-Hvid, P. R. Taylor,
       A. M. Teale, E. I. Tellgren, D. P. Tew, A. J. Thorvaldsen,
       L. Thoegersen, O. Vahtras, M. A. Watson, D. J. D. Wilson,
       M. Ziolkowski and H. Agren.
       The Dalton quantum chemistry program system.
       WIREs Comput. Mol. Sci. 2013. doi: 10.1002/wcms.1172
    
    and
    
       Dalton, a Molecular Electronic Structure Program,
       Release DALTON2013.0 (2013), see http://daltonprogram.org
   ----------------------------------------------------------------------------

    Authors in alphabetical order (major contribution(s) in parenthesis):

  Kestutis Aidas,           Vilnius University,           Lithuania   (QM/MM)
  Celestino Angeli,         University of Ferrara,        Italy       (NEVPT2)
  Keld L. Bak,              UNI-C,                        Denmark     (AOSOPPA, non-adiabatic coupling, magnetic properties)
  Vebjoern Bakken,          University of Oslo,           Norway      (DALTON; geometry optimizer, symmetry detection)
  Radovan Bast,             KTH Stockholm                 Sweden      (DALTON installation and execution frameworks)
  Linus Boman,              NTNU,                         Norway      (Cholesky decomposition and subsystems)
  Ove Christiansen,         Aarhus University,            Denmark     (CC module)
  Renzo Cimiraglia,         University of Ferrara,        Italy       (NEVPT2)
  Sonia Coriani,            University of Trieste,        Italy       (CC module, MCD in RESPONS)
  Paal Dahle,               University of Oslo,           Norway      (Parallelization)
  Erik K. Dalskov,          UNI-C,                        Denmark     (SOPPA)
  Thomas Enevoldsen,        Univ. of Southern Denmark,    Denmark     (SOPPA)
  Janus J. Eriksen,         Aarhus University,            Denmark     (PE-MP2/SOPPA, TDA)
  Berta Fernandez,          U. of Santiago de Compostela, Spain       (doublet spin, ESR in RESPONS)
  Lara Ferrighi,            Aarhus University,            Denmark     (PCM Cubic response)
  Heike Fliegl,             University of Oslo,           Norway      (CCSD(R12))
  Luca Frediani,            UiT The Arctic U. of Norway,  Norway      (PCM)
  Bin Gao,                  UiT The Arctic U. of Norway,  Norway      (Gen1Int library)
  Christof Haettig,         Ruhr-University Bochum,       Germany     (CC module)
  Kasper Hald,              Aarhus University,            Denmark     (CC module)
  Asger Halkier,            Aarhus University,            Denmark     (CC module)
  Hanne Heiberg,            University of Oslo,           Norway      (geometry analysis, selected one-electron integrals)
  Trygve Helgaker,          University of Oslo,           Norway      (DALTON; ABACUS, ERI, DFT modules, London, and much more)
  Alf Christian Hennum,     University of Oslo,           Norway      (Parity violation)
  Hinne Hettema,            University of Auckland,       New Zealand (quadratic response in RESPONS; SIRIUS supersymmetry)
  Eirik Hjertenaes,         NTNU,                         Norway      (Cholesky decomposition)
  Maria Francesca Iozzi,    University of Oslo,           Norway      (RPA)
  Brano Jansik              Technical Univ. of Ostrava    Czech Rep.  (DFT cubic response)
  Hans Joergen Aa. Jensen,  Univ. of Southern Denmark,    Denmark     (DALTON; SIRIUS, RESPONS, ABACUS modules, London, and much more)
  Dan Jonsson,              UiT The Arctic U. of Norway,  Norway      (cubic response in RESPONS module)
  Poul Joergensen,          Aarhus University,            Denmark     (RESPONS, ABACUS, and CC modules)
  Joanna Kauczor,           Linkoeping University,        Sweden      (Complex polarization propagator (CPP) module)
  Sheela Kirpekar,          Univ. of Southern Denmark,    Denmark     (Mass-velocity & Darwin integrals)
  Wim Klopper,              KIT Karlsruhe,                Germany     (R12 code in CC, SIRIUS, and ABACUS modules)
  Stefan Knecht,            ETH Zurich,                   Switzerland (Parallel CI and MCSCF)
  Rika Kobayashi,           Australian National Univ.,    Australia   (DIIS in CC, London in MCSCF)
  Henrik Koch,              NTNU,                         Norway      (CC module, Cholesky decomposition)
  Jacob Kongsted,           Univ. of Southern Denmark,    Denmark     (Polarizable embedding, QM/MM)
  Andrea Ligabue,           University of Modena,         Italy       (CTOCD, AOSOPPA)
  Ola B. Lutnaes,           University of Oslo,           Norway      (DFT Hessian)
  Juan I. Melo,             University of Buenos Aires,   Argentina   (LRESC, Relativistic Effects on NMR Shieldings)
  Kurt V. Mikkelsen,        University of Copenhagen,     Denmark     (MC-SCRF and QM/MM)
  Rolf H. Myhre,            NTNU,                         Norway      (Cholesky, subsystems and ECC2)
  Christian Neiss,          Univ. Erlangen-Nuernberg,     Germany     (CCSD(R12))
  Christian B. Nielsen,     University of Copenhagen,     Denmark     (QM/MM)
  Patrick Norman,           Linkoeping University,        Sweden      (Cubic response and complex response in RESPONS)
  Jeppe Olsen,              Aarhus University,            Denmark     (SIRIUS CI/density modules)
  Jogvan Magnus H. Olsen,   Univ. of Southern Denmark,    Denmark     (Polarizable embedding, PE library, QM/MM)
  Anders Osted,             Copenhagen University,        Denmark     (QM/MM)
  Martin J. Packer,         University of Sheffield,      UK          (SOPPA)
  Filip Pawlowski,          Kazimierz Wielki University   Poland      (CC3)
  Thomas B. Pedersen,       University of Oslo,           Norway      (Cholesky decomposition)
  Patricio F. Provasi,      University of Northeastern,   Argentina   (Analysis of coupling constants in localized orbitals)
  Zilvinas Rinkevicius,     KTH Stockholm,                Sweden      (open-shell DFT, ESR)
  Elias Rudberg,            KTH Stockholm,                Sweden      (DFT grid and basis info)
  Torgeir A. Ruden,         University of Oslo,           Norway      (Numerical derivatives in ABACUS)
  Kenneth Ruud,             UiT The Arctic U. of Norway,  Norway      (DALTON; ABACUS magnetic properties and  much more)
  Pawel Salek,              KTH Stockholm,                Sweden      (DALTON; DFT code)
  Claire C. M. Samson       University of Karlsruhe       Germany     (Boys localization, r12 integrals in ERI)
  Alfredo Sanchez de Meras, University of Valencia,       Spain       (CC module, Cholesky decomposition)
  Trond Saue,               Paul Sabatier University,     France      (direct Fock matrix construction)
  Stephan P. A. Sauer,      University of Copenhagen,     Denmark     (SOPPA(CCSD), SOPPA prop., AOSOPPA, vibrational g-factors)
  Bernd Schimmelpfennig,    Forschungszentrum Karlsruhe,  Germany     (AMFI module)
  Kristian Sneskov,         Aarhus University,            Denmark     (QM/MM, PE-CC)
  Arnfinn H. Steindal,      UiT The Arctic U. of Norway,  Norway      (parallel QM/MM)
  K. O. Sylvester-Hvid,     University of Copenhagen,     Denmark     (MC-SCRF)
  Peter R. Taylor,          VLSCI/Univ. of Melbourne,     Australia   (Symmetry handling ABACUS, integral transformation)
  Andrew M. Teale,          University of Nottingham,     England     (DFT-AC, DFT-D)
  David P. Tew,             University of Bristol,        England     (CCSD(R12))
  Olav Vahtras,             KTH Stockholm,                Sweden      (triplet response, spin-orbit, ESR, TDDFT, open-shell DFT)
  David J. Wilson,          La Trobe University,          Australia   (DFT Hessian and DFT magnetizabilities)
  Hans Agren,               KTH Stockholm,                Sweden      (SIRIUS module, RESPONS, MC-SCRF solvation model)
 --------------------------------------------------------------------------------

     Date and time (Linux)  : Sun Sep  8 20:40:09 2013
     Host name              : lpqlx131.ups-tlse.fr                    

 * Work memory size             :    64000000 =  488.28 megabytes.

 * Directories for basis set searches:
   1) /home/bast/DALTON-2013.0-Source/build/test_hfmmpcm_1
   2) /home/bast/DALTON-2013.0-Source/build/basis


Compilation information
-----------------------

 Who compiled             | bast
 Host                     | lpqlx131.ups-tlse.fr
 System                   | Linux-3.8.5-201.fc18.x86_64
 CMake generator          | Unix Makefiles
 Processor                | x86_64
 64-bit integers          | OFF
 MPI                      | OFF
 Fortran compiler         | /usr/bin/gfortran
 Fortran compiler version | GNU Fortran (GCC) 4.7.2 20121109 (Red Hat 4.7.2-8)
 C compiler               | /usr/bin/gcc
 C compiler version       | gcc (GCC) 4.7.2 20121109 (Red Hat 4.7.2-8)
 C++ compiler             | /usr/bin/g++
 C++ compiler version     | g++ (GCC) 4.7.2 20121109 (Red Hat 4.7.2-8)
 Static linking           | OFF
 Last Git revision        | f34203295a86316e27f9e7b44f9b6769c4a046c0
 Configuration time       | 2013-09-08 20:31:27.952056


   Content of the .dal input file
 ----------------------------------

**DALTON                                          
.RUN PROPERTIES                                   
*PCM                                              
.SOLVNT                                           
WATER                                             
.NPCMMT                                           
0                                                 
.NESFP                                            
4                                                 
.ICESPH                                           
1                                                 
*PCMCAV                                           
.CENTER                                           
-1.588367    -.770650     .029109                 
-1.657083     .436069    -.009750                 
.975536    1.507219    -.082590                   
1.633705   -1.233280    -.078786                  
.RIN                                              
2.325                                             
1.750                                             
1.950                                             
1.950                                             
*QM3                                              
.QM3                                              
.PRINT                                            
 1                                                
.THRDIP                                           
 1.0D-12                                          
.MAXDIP                                           
 180                                              
.MMPCM                                            
.INTDIR                                           
**INTEGRALS                                       
.DIPLEN                                           
.NOSUP                                            
.PRINT                                            
 2                                                
**WAVE FUNCTIONS                                  
.HF                                               
*SCF INPUT                                        
.THRESHOLD                                        
 1.0D-08                                          
**PROPERTIES                                      
.EXCITA                                           
*EXCITA                                           
.NEXCIT                                           
 4                                                
.THRESH                                           
 1.0D-05                                          
.PRINT                                            
10                                                
**END OF DALTON INPUT                             


   Content of the .mol file
 ----------------------------

ATOMBASIS                                                                      
CH2O PLUS 2 WATERS                                                             
------------------------                                                       
    5    0         1 1.00D-12                                                  
        6.0   1    Basis=STO-3G                                                
C           -1.588367    -.770650     .029109 0 1                              
        8.0   1    Basis=STO-3G                                                
O           -1.657083     .436069    -.009750 0 2                              
        1.0   2    Basis=STO-3G                                                
H           -.620668   -1.294822      .054251 0 3                              
H           -2.508043   -1.382001     .040282 0 4                              
   -0.669     2   Basis=MM                                                     
O             .975536    1.507219    -.082590 1 1                              
O            1.633705   -1.233280    -.078786 2 1                              
    0.3345    4   Basis=MM                                                     
H             .023200    1.300096    -.088063 1 2                              
H            1.113831    2.040431     .704778 1 3                              
H            1.600739    -.258639    -.086953 2 2                              
H            2.303878   -1.461228     .570065 2 3                              


       *******************************************************************
       *********** Output from DALTON general input processing ***********
       *******************************************************************

 --------------------------------------------------------------------------------
   Overall default print level:    0
   Print level for DALTON.STAT:    1

    HERMIT 1- and 2-electron integral sections will be executed
    "Old" integral transformation used (limited to max 255 basis functions)
    Wave function sections will be executed (SIRIUS module)
    Static molecular property section will be executed (ABACUS module)
 --------------------------------------------------------------------------------

 ** LOOKING UP INTERNALLY STORED DATA FOR SOLVENT = WATER    **
 Optical and physical constants:
 EPS= 78.390; EPSINF=  1.776; RSOLV=  1.385 A; VMOL=  18.070 ML/MOL;
 TCE=2.57000D-04 1/K; STEN= 71.810 DYN/CM;  DSTEN=  0.6500; CMF=  1.2770


     -----------------------------------
     Input for PCM solvation calculation 
     -----------------------------------
     ICOMPCM =       0          SOLVNT=WATER        EPS   = 78.3900     EPSINF=  1.7760
     RSOLV =  1.3850

     ICESPH =       1     NESFP =       4
     OMEGA = 40.0000     RET   =  0.2000     FRO   =  0.7000

     IPRPCM=       0

     NON-EQ = F     NEQRSP =F
     POLYG          60

     INPUT FOR CAVITY DEFINITION 
     ---------------------------
     ATOM         COORDINATES           RADIUS 
     1   -1.5884   -0.7706    0.0291    2.3250
     2   -1.6571    0.4361   -0.0097    1.7500
     3    0.9755    1.5072   -0.0826    1.9500
     4    1.6337   -1.2333   -0.0788    1.9500


 Changes of defaults for *QM3   :
 --------------------------------

 +------------------+
 |  WORD: | CHANGE: |
 +------------------+
 |    QM3 |       T |
 | THDISC | 1.0D-12 |
 | MXDIIT |     180 |
 |  PRINT |       1 |
 +------------------+
  Settings for determination of induced dipoles:
  Iterative Method is used
  MM/PCM interface active
 +------------------+


    *************************************************************************
    *************** Output from MM potential input processing ***************
    *************************************************************************



 ------------------------------------------------------------------------
 | QM-sys type: | Systems:    | Model:  | Electric properties:          |
 ------------------------------------------------------------------------
 |          0   | [   0;   0] | SPC     |     No classical polarization |
 ------------------------------------------------------------------------


 ------------------------------------------------------------------------
 | MM-sys type: | Systems:    | Model:  | Electric properties:          |
 ------------------------------------------------------------------------
 |          1   | [   1;   2] | SPC_E01 | Isotropic polarizability:     |
 |              |             |         | alp( 1)=  9.5010              |
 ------------------------------------------------------------------------




   ****************************************************************************
   *************** Output of molecule and basis set information ***************
   ****************************************************************************


    The two title cards from your ".mol" input:
    ------------------------------------------------------------------------
 1: CH2O PLUS 2 WATERS                                                      
 2: ------------------------                                                
    ------------------------------------------------------------------------

  Coordinates are entered in Angstrom and converted to atomic units.
          - Conversion factor : 1 bohr = 0.52917721 A

  Atomic type no.    1
  --------------------
  Nuclear charge:   6.00000
  Number of symmetry independent centers:    1
  Number of basis sets to read;    2
  The basis set is "STO-3G" from the basis set library.
  Basis set file used for this atomic type with Z =   6 :
     "/home/bast/DALTON-2013.0-Source/build/basis/STO-3G"

  Atomic type no.    2
  --------------------
  Nuclear charge:   8.00000
  Number of symmetry independent centers:    1
  Number of basis sets to read;    2
  The basis set is "STO-3G" from the basis set library.
  Basis set file used for this atomic type with Z =   8 :
     "/home/bast/DALTON-2013.0-Source/build/basis/STO-3G"

  Atomic type no.    3
  --------------------
  Nuclear charge:   1.00000
  Number of symmetry independent centers:    2
  Number of basis sets to read;    2
  The basis set is "STO-3G" from the basis set library.
  Basis set file used for this atomic type with Z =   1 :
     "/home/bast/DALTON-2013.0-Source/build/basis/STO-3G"

  Atomic type no.    4
  --------------------
  Nuclear charge:  -0.66900
  Number of symmetry independent centers:    2
  Number of basis sets to read;    2
  This is an MM atom without basis functions.

  Atomic type no.    5
  --------------------
  Nuclear charge:   0.33450
  Number of symmetry independent centers:    4
  Number of basis sets to read;    2
  This is an MM atom without basis functions.


                         SYMGRP: Point group information
                         -------------------------------

Point group: C1 
PCMSPHGEN: SPHERE CENTERS FROM INPUT
 ********SPHERES IN PCMSPHGEN************
 INDEX        X        Y         Z        R
   1   -3.0015783979D+00   -1.4563173324D+00    5.5008033777D-02    2.3250000000D+00
   2   -3.1314328089D+00    8.2405092174D-01   -1.8424828380D-02    1.7500000000D+00
   3    1.8434957312D+00    2.8482309135D+00   -1.5607246933D-01    1.9500000000D+00
   4    3.0872547948D+00   -2.3305612661D+00   -1.4888395167D-01    1.9500000000D+00


                                 Isotopic Masses
                                 ---------------

                           C          12.000000
                           O          15.994915
                           H           1.007825
                           H           1.007825

                       Total mass:    30.010565 amu
                       Natural abundance:  98.633 %

 Center-of-mass coordinates (a.u.):   -3.067740   -0.312997    0.018175


  Atoms and basis sets
  --------------------

  Number of atom types :    6
  Total number of atoms:   12

  label    atoms   charge   prim   cont     basis
  ----------------------------------------------------------------------
  C           1    6.0000    15     5      [6s3p|2s1p]                                        
  O           1    8.0000    15     5      [6s3p|2s1p]                                        
  H           2    1.0000     3     1      [3s|1s]                                            
  O           2   -0.6690     0     0      Point Charge                                       
  H           4    0.3345     0     0      Point Charge                                       
  a           2    0.0000     0     0      Point Charge                                       
  ----------------------------------------------------------------------
  total:     12   16.0000    36    12
  ----------------------------------------------------------------------

  Threshold for neglecting AO integrals:  1.00D-12


  Cartesian Coordinates (a.u.)
  ----------------------------

  Total number of coordinates:   36
  C       :     1  x  -3.0015786160    2  y  -1.4563174382    3  z   0.0550080378
  O       :     4  x  -3.1314330364    5  y   0.8240509816    6  z  -0.0184248297
  H       :     7  x  -1.1728925345    8  y  -2.4468589606    9  z   0.1025195320
  H       :    10  x  -4.7395143797   11  y  -2.6116033945   12  z   0.0761219478


   Interatomic separations (in Angstrom):
   --------------------------------------

            C           O           H           H           O           O     
            ------      ------      ------      ------      ------      ------
 C     :    0.000000
 O     :    1.209298    0.000000
 H     :    1.100831    2.018474    0.000000
 H     :    1.104391    2.007988    1.889439    0.000000
 O     :    3.431437    2.843123    3.227697    4.527473    0.000000
 O     :    3.256903    3.690634    2.259133    4.146127    2.818428    0.000000
 H     :    2.626569    1.891038    2.677390    3.690164    0.974615    3.001967
 H     :    3.957345    3.280624    3.815178    5.027183    0.960931    3.406086
 H     :    3.232031    3.331964    2.455252    4.261481    1.873273    0.975233
 H     :    3.989875    4.430026    2.974344    4.841645    3.316946    0.960260
 a  1  :    3.408645    2.807232    3.219816    4.503294    0.065744    2.847367
 a  2  :    3.285589    3.703418    2.294418    4.182574    2.786761    0.065593

            H           H           H           H           a  1        a  2  
            ------      ------      ------      ------      ------      ------
 H     :    0.000000
 H     :    1.538236    0.000000
 H     :    2.217721    2.479847    0.000000
 H     :    3.641364    3.700807    1.540226    0.000000
 a  1  :    0.935667    0.923012    1.906635    3.343454    0.000000
 a  2  :    2.986623    3.363487    0.936414    0.922570    2.815774    0.000000


  Max    interatomic separation is    2.0185 Angstrom (    3.8144 Bohr)
  between atoms    3 and    2, "H     " and "O     ".

  Min HX interatomic separation is    1.1008 Angstrom (    2.0803 Bohr)

  Min YX interatomic separation is    1.2093 Angstrom (    2.2852 Bohr)

  Max QM+MM interatomic separation is    5.0272 Angstrom (    9.5000 Bohr)
  between the QM+MM centers    8 and    4, "H     " and "H     ".




 Principal moments of inertia (u*A**2) and principal axes
 --------------------------------------------------------

   IA       1.798871         -0.056827    0.997867   -0.032124
   IB      13.009178          0.998345    0.057081    0.007042
   IC      14.808049         -0.008861    0.031671    0.999459


 Rotational constants
 --------------------

 The molecule is planar.

               A                   B                   C

         280942.3015          38847.8806          34128.6681 MHz
            9.371226            1.295826            1.138410 cm-1


@  Nuclear repulsion energy :   31.249215315972 Hartree
      QM3 induced dipole vector converged in  13 iterations.
      Final norm2 of QM3 induced dipole moment vector:    0.020409711895445


    **************************************************************************
    ***************** The MM/MM classical interaction energy *****************
    **************************************************************************


 ------------------------------------------------------------------------
 |  Eelec = Sum_n,s[ (Q_n*Q_s)/|R_n - R_s| ]        |       -0.00626437 |
 |  Epol  = - 1/2*Sum_a[ Pind_a*E^site_a ]          |       -0.00096177 |
 |  Evdw  = Sum_a[ A_ma/|R_ma|^12 - B_ma/|R_ma|^6 ] |        0.00000000 |
 ------------------------------------------------------------------------
 |  E(MM/MM) = Eelec + Epol + Evdw                  |       -0.00722614 |
 ------------------------------------------------------------------------




     ************************************************************************
     *************** The "QM"/MM classical interaction energy ***************
     ************************************************************************


 ------------------------------------------------------------------------
 |  Eelec = Sum_n,s[ (Q_n*Q_s)/|R_n - R_s| ]        |        0.00000000 |
 |  Epol  = - 1/2*Sum_a[ Pind_a*E^(QMclassic)_a ]   |        0.00000000 |
 |  Evdw  = Sum_a[ A_ma/|R_ma|^12 - B_ma/|R_ma|^6 ] |        0.00000000 |
 ------------------------------------------------------------------------
 |  E("QM"/MM) = Eelec + Epol + Evdw                |        0.00000000 |
 ------------------------------------------------------------------------




                     .---------------------------------------.
                     | Starting in Integral Section (HERMIT) |
                     `---------------------------------------'



    *************************************************************************
    ****************** Output from HERMIT input processing ******************
    *************************************************************************


 Default print level:        2

 * Nuclear model: Point charge

 Calculation of one- and two-electron Hamiltonian integrals.

 The following one-electron property integrals are calculated as requested:
          - overlap integrals
          - dipole length integrals

 Center of mass  (bohr):     -3.067740315293     -0.312997395263      0.018174673399
 Operator center (bohr):      0.000000000000      0.000000000000      0.000000000000
 Gauge origin    (bohr):      0.000000000000      0.000000000000      0.000000000000
 Dipole origin   (bohr):      0.000000000000      0.000000000000      0.000000000000


     ************************************************************************
     ************************** Output from HERONE **************************
     ************************************************************************



     ************************************************************************
     ************************** Output from TWOINT **************************
     ************************************************************************


 Threshold for neglecting two-electron integrals:  1.00D-12
 Number of two-electron integrals written:        2907 ( 94.4% )
 Megabytes written:                              0.034


 MEMORY USED TO GENERATE CAVITY =    432202

 Tessera cut in pieces and removed.

 Total number of spheres =    4
 Sphere             Center  (X,Y,Z) (A)               Radius (A)      Area (A^2)
   1   -1.588366885   -0.770649944    0.029108998    2.790000000   65.586494941
   2   -1.657082880    0.436068968   -0.009749999    2.100000000   12.435482161
   3    0.975535929    1.507218891   -0.082589994    2.340000000   44.330972544
   4    1.633704881   -1.233279910   -0.078785994    2.340000000   43.788415084

 Total number of tesserae =     554
 Surface area =  166.14136473 (A^2)    Cavity volume =  171.52410842 (A^3)

          THE SOLUTE IS ENCLOSED IN ONE CAVITY

 ..... DONE GENERATION CAVITY .....

  ..... DONE GENERATING -Q-  MATRIX .....
 >>>  Time used in Q-MAT      is   1.70 seconds
 >>>> Total CPU  time used in HERMIT:   1.74 seconds
 >>>> Total wall time used in HERMIT:   1.75 seconds


                        .----------------------------------.
                        | End of Integral Section (HERMIT) |
                        `----------------------------------'



                   .--------------------------------------------.
                   | Starting in Wave Function Section (SIRIUS) |
                   `--------------------------------------------'


 *** Output from Huckel module :

     Using EWMO model:          F
     Using EHT  model:          T
     Number of Huckel orbitals each symmetry:   12

 Huckel EHT eigenvalues for symmetry :  1
          -20.705291     -11.377081      -1.496925      -0.962689      -0.743251
           -0.672270      -0.593413      -0.504635      -0.350830      -0.253214
           -0.198302      -0.193199

 **********************************************************************
 *SIRIUS* a direct, restricted step, second order MCSCF program       *
 **********************************************************************

 
     Date and time (Linux)  : Sun Sep  8 20:40:10 2013
     Host name              : lpqlx131.ups-tlse.fr                    

 Title lines from ".mol" input file:
     CH2O PLUS 2 WATERS                                                      
     ------------------------                                                

 Print level on unit LUPRI =   2 is   0
 Print level on unit LUW4  =   2 is   5

@    Restricted, closed shell Hartree-Fock calculation.

 Initial molecular orbitals are obtained according to
 ".MOSTART EHT   " input option

@    QM part is embedded in an environment :

@         Solvation model: PCM

@         Model: QM3

     Wave function specification
     ============================
@    For the wave function of type :      >>> HF <<<
@    Number of closed shell electrons          16
@    Number of electrons in active shells       0
@    Total charge of the molecule               0

@    Spin multiplicity and 2 M_S                1         0
     Total number of symmetries                 1
@    Reference state symmetry                   1

     Orbital specifications
     ======================
     Abelian symmetry species          All |    1
                                       --- |  ---
@    Occupied SCF orbitals               8 |    8
     Secondary orbitals                  4 |    4
     Total number of orbitals           12 |   12
     Number of basis functions          12 |   12

     Optimization information
     ========================
@    Number of configurations                 1
@    Number of orbital rotations             32
     ------------------------------------------
@    Total number of variables               33

     Maximum number of Fock   iterations      0
     Maximum number of DIIS   iterations     60
     Maximum number of QC-SCF iterations     60
     Threshold for SCF convergence     1.00D-08

          -------------------------------------
          ---- POLARISABLE CONTINUUM MODEL ----
          ----      UNIVERSITY OF PISA     ----
          -------------------------------------

 ESTIMATE OF NUCLEAR CHARGE       15.99699
 NUCLEAR APPARENT CHARGE -15.79638
 THEORETICAL -15.79589 NOT RENORMALIZED

 ..... DONE WITH INDUCED NUCLEAR CHARGES .....


 >>>>> DIIS optimization of Hartree-Fock <<<<<

 C1-DIIS algorithm; max error vectors =   10

 Iter      Total energy       Solvation energy    Error norm    Delta(E)
 -----------------------------------------------------------------------------
      QM3 induced Dipole vector converged in  14 iterations.
      Final norm2 of QM3 induced dipole moment vector:    5.412042470973047
      QM3 induced Dipole vector converged in  14 iterations.
      Final norm2 of QM3 induced dipole moment vector:    0.150551645812677
      QM3 induced Dipole vector converged in  13 iterations.
      Final norm2 of QM3 induced dipole moment vector:    0.075813565725633
      QM3 induced Dipole vector converged in  12 iterations.
      Final norm2 of QM3 induced dipole moment vector:    0.072542605833626
      QM3 induced Dipole vector converged in  10 iterations.
      Final norm2 of QM3 induced dipole moment vector:    0.072254407724905
 MMPCM converged for given density
 No. of iterations:            5
@  1  -112.136086570     -2.738743233740E-02    2.28648D+00   -1.12D+02
      Virial theorem: -V/T =      2.000081
@      MULPOP C       0.99; O      -0.72; H      -0.14; H      -0.14; 
 -----------------------------------------------------------------------------
      QM3 induced Dipole vector converged in  13 iterations.
      Final norm2 of QM3 induced dipole moment vector:    0.030266857804541
      QM3 induced Dipole vector converged in  13 iterations.
      Final norm2 of QM3 induced dipole moment vector:    0.050112803523036
      QM3 induced Dipole vector converged in  12 iterations.
      Final norm2 of QM3 induced dipole moment vector:    0.051861493492665
      QM3 induced Dipole vector converged in  10 iterations.
      Final norm2 of QM3 induced dipole moment vector:    0.052001478920042
 MMPCM converged for given density
 No. of iterations:            4
@  2  -112.324249034     -9.222059414906E-03    8.20732D-01   -1.88D-01
      Virial theorem: -V/T =      2.010892
@      MULPOP C      -0.36; O       0.14; H       0.12; H       0.10; 
 -----------------------------------------------------------------------------
      QM3 induced Dipole vector converged in  13 iterations.
      Final norm2 of QM3 induced dipole moment vector:    0.076625718625914
      QM3 induced Dipole vector converged in  12 iterations.
      Final norm2 of QM3 induced dipole moment vector:    0.063387238255147
      QM3 induced Dipole vector converged in  11 iterations.
      Final norm2 of QM3 induced dipole moment vector:    0.062450594641350
 MMPCM converged for given density
 No. of iterations:            3
@  3  -112.364682950     -1.636277228594E-02    1.85912D-01   -4.04D-02
      Virial theorem: -V/T =      2.007797
@      MULPOP C       0.18; O      -0.31; H       0.08; H       0.05; 
 -----------------------------------------------------------------------------
      QM3 induced Dipole vector converged in  12 iterations.
      Final norm2 of QM3 induced dipole moment vector:    0.057132369398727
      QM3 induced Dipole vector converged in  12 iterations.
      Final norm2 of QM3 induced dipole moment vector:    0.059765845454907
      QM3 induced Dipole vector converged in  11 iterations.
      Final norm2 of QM3 induced dipole moment vector:    0.059966148238755
 MMPCM converged for given density
 No. of iterations:            3
@  4  -112.367430321     -1.451520471122E-02    1.96606D-02   -2.75D-03
      Virial theorem: -V/T =      2.008330
@      MULPOP C       0.07; O      -0.22; H       0.09; H       0.06; 
 -----------------------------------------------------------------------------
      QM3 induced Dipole vector converged in   9 iterations.
      Final norm2 of QM3 induced dipole moment vector:    0.059994444277197
      QM3 induced Dipole vector converged in   8 iterations.
      Final norm2 of QM3 induced dipole moment vector:    0.059990813195095
 MMPCM converged for given density
 No. of iterations:            2
@  5  -112.367461386     -1.452342835774E-02    2.27134D-03   -3.11D-05
      Virial theorem: -V/T =      2.008256
@      MULPOP C       0.08; O      -0.23; H       0.09; H       0.06; 
 -----------------------------------------------------------------------------
      QM3 induced Dipole vector converged in   9 iterations.
      Final norm2 of QM3 induced dipole moment vector:    0.059969787270604
      QM3 induced Dipole vector converged in   9 iterations.
      Final norm2 of QM3 induced dipole moment vector:    0.059980524640454
 MMPCM converged for given density
 No. of iterations:            2
@  6  -112.367462168     -1.451688071216E-02    6.86425D-04   -7.83D-07
      Virial theorem: -V/T =      2.008257
@      MULPOP C       0.08; O      -0.23; H       0.09; H       0.06; 
 -----------------------------------------------------------------------------
      QM3 induced Dipole vector converged in   8 iterations.
      Final norm2 of QM3 induced dipole moment vector:    0.059974604260305
      QM3 induced Dipole vector converged in   9 iterations.
      Final norm2 of QM3 induced dipole moment vector:    0.059978211842337
 MMPCM converged for given density
 No. of iterations:            2
@  7  -112.367462255     -1.451462993156E-02    2.28531D-04   -8.72D-08
      Virial theorem: -V/T =      2.008258
@      MULPOP C       0.08; O      -0.23; H       0.09; H       0.06; 
 -----------------------------------------------------------------------------
      QM3 induced Dipole vector converged in   7 iterations.
      Final norm2 of QM3 induced dipole moment vector:    0.059976764925095
      QM3 induced Dipole vector converged in   8 iterations.
      Final norm2 of QM3 induced dipole moment vector:    0.059977647695200
 MMPCM converged for given density
 No. of iterations:            2
@  8  -112.367462264     -1.451402558677E-02    1.47097D-05   -8.30D-09
      Virial theorem: -V/T =      2.008259
@      MULPOP C       0.08; O      -0.23; H       0.09; H       0.06; 
 -----------------------------------------------------------------------------
      QM3 induced Dipole vector converged in   6 iterations.
      Final norm2 of QM3 induced dipole moment vector:    0.059977623367323
      QM3 induced Dipole vector converged in   7 iterations.
      Final norm2 of QM3 induced dipole moment vector:    0.059977669911930
 MMPCM converged for given density
 No. of iterations:            2
@  9  -112.367462265     -1.451398727582E-02    4.58769D-06   -8.25D-10
      Virial theorem: -V/T =      2.008259
@      MULPOP C       0.08; O      -0.23; H       0.09; H       0.06; 
 -----------------------------------------------------------------------------
      QM3 induced Dipole vector converged in   6 iterations.
      Final norm2 of QM3 induced dipole moment vector:    0.059977685458895
      QM3 induced Dipole vector converged in   4 iterations.
      Final norm2 of QM3 induced dipole moment vector:    0.059977683182312
 MMPCM converged for given density
 No. of iterations:            2
@ 10  -112.367462265     -1.451398816177E-02    2.55815D-06   -3.74D-10
      Virial theorem: -V/T =      2.008259
@      MULPOP C       0.08; O      -0.23; H       0.09; H       0.06; 
 -----------------------------------------------------------------------------
      QM3 induced Dipole vector converged in   5 iterations.
      Final norm2 of QM3 induced dipole moment vector:    0.059977696276541
      QM3 induced Dipole vector converged in   4 iterations.
      Final norm2 of QM3 induced dipole moment vector:    0.059977692720823
 MMPCM converged for given density
 No. of iterations:            2
@ 11  -112.367462265     -1.451398949856E-02    3.28831D-07   -4.63D-10
      Virial theorem: -V/T =      2.008259
@      MULPOP C       0.08; O      -0.23; H       0.09; H       0.06; 
 -----------------------------------------------------------------------------
      QM3 induced Dipole vector converged in   3 iterations.
      Final norm2 of QM3 induced dipole moment vector:    0.059977693238063
      QM3 induced Dipole vector converged in   3 iterations.
      Final norm2 of QM3 induced dipole moment vector:    0.059977692969081
 MMPCM converged for given density
 No. of iterations:            2
@ 12  -112.367462265     -1.451398940471E-02    3.16133D-08   -4.76D-11
      Virial theorem: -V/T =      2.008259
@      MULPOP C       0.08; O      -0.23; H       0.09; H       0.06; 
 -----------------------------------------------------------------------------
      QM3 induced Dipole vector converged in   4 iterations.
      Final norm2 of QM3 induced dipole moment vector:    0.059977693329602
      QM3 induced Dipole vector converged in   4 iterations.
      Final norm2 of QM3 induced dipole moment vector:    0.059977693154316
 MMPCM converged for given density
 No. of iterations:            2
@ 13  -112.367462265     -1.451398951911E-02    1.22711D-08   -9.52D-13
      Virial theorem: -V/T =      2.008259
@      MULPOP C       0.08; O      -0.23; H       0.09; H       0.06; 
 -----------------------------------------------------------------------------
      QM3 induced Dipole vector converged in   3 iterations.
      Final norm2 of QM3 induced dipole moment vector:    0.059977693196321
      QM3 induced Dipole vector converged in   2 iterations.
      Final norm2 of QM3 induced dipole moment vector:    0.059977693175072
 MMPCM converged for given density
 No. of iterations:            2
@ 14  -112.367462265     -1.451398952346E-02    3.22752D-09   -1.45D-12

@ *** DIIS converged in  14 iterations !
@     Converged SCF energy, gradient:   -112.367462265439    3.23D-09
    - total time used in SIRFCK :              0.00 seconds


 *** SCF orbital energy analysis ***
    (incl. solvent contribution)

 Only the five lowest virtual orbital energies printed in each symmetry.

 Number of electrons :   16
 Orbital occupations :    8

 Sym       Hartree-Fock orbital energies

  1    -20.30528845   -11.12705574    -1.34663542    -0.80263229    -0.63925268
        -0.55094727    -0.45086311    -0.35712770     0.28278697     0.62777662
         0.74965834     0.91959341

    E(LUMO) :     0.28278697 au (symmetry 1)
  - E(HOMO) :    -0.35712770 au (symmetry 1)
  ------------------------------------------
    gap     :     0.63991467 au

 >>> Writing SIRIFC interface file <<<

 >>>> CPU and wall time for SCF :      17.726      18.247


                       .-----------------------------------.
                       | >>> Final results from SIRIUS <<< |
                       `-----------------------------------'


@    Spin multiplicity:           1
@    Spatial symmetry:            1
@    Total charge of molecule:    0

     QM/MM/PCM calculation converged :

        Electrostatic energy:      -0.008690488440
        Polarization energy:       -0.000706367084
        van der Waals energy:       0.000000000000
        QM/MM/PCM energy:          -0.014513989523

@    Final HF energy:            -112.367462265439                 
@    Nuclear repulsion:            31.249215315972
@    Electronic energy:          -143.602163591888

@    Final gradient norm:           0.000000003228

 
     Date and time (Linux)  : Sun Sep  8 20:40:29 2013
     Host name              : lpqlx131.ups-tlse.fr                    

 (Only coefficients >0.0100 are printed.)

 Molecular orbitals for symmetry species  1
 ------------------------------------------

    Orbital         1        2        3        4        5        6        7
   1 C   :1s     0.0005   0.9926  -0.1229  -0.1876  -0.0031   0.0254   0.0001
   2 C   :1s    -0.0074   0.0329   0.2757   0.5865   0.0124  -0.0755  -0.0002
   3 C   :2px    0.0004  -0.0001  -0.0085   0.0072   0.5327   0.0136  -0.0055
   4 C   :2py   -0.0064   0.0009   0.1583  -0.2135   0.0156  -0.4533   0.0190
   5 C   :2pz    0.0002  -0.0000  -0.0050   0.0072   0.0048   0.0145   0.5976
   6 O   :1s     0.9943   0.0001  -0.2198   0.1019   0.0007  -0.0891  -0.0000
   7 O   :1s     0.0262  -0.0059   0.7687  -0.4465  -0.0008   0.4789   0.0001
   8 O   :2px    0.0004  -0.0001   0.0152   0.0005   0.4555  -0.0322  -0.0068
   9 O   :2py   -0.0057   0.0016  -0.1678  -0.1870   0.0337   0.6768   0.0218
  10 O   :2pz    0.0002  -0.0001   0.0055   0.0061   0.0033  -0.0218   0.6844
  11 H   :1s     0.0002  -0.0065   0.0305   0.2518   0.2884   0.1549  -0.0001
  12 H   :1s     0.0003  -0.0065   0.0310   0.2624  -0.2854   0.1745  -0.0001

    Orbital         8        9       10
   1 C   :1s     0.0007  -0.0000   0.2014
   2 C   :1s    -0.0041   0.0001  -1.2617
   3 C   :2px   -0.2012  -0.0075   0.0292
   4 C   :2py   -0.0027   0.0264   0.4871
   5 C   :2pz   -0.0016   0.8299  -0.0150
   6 O   :1s     0.0028   0.0000  -0.0222
   7 O   :1s    -0.0132  -0.0001   0.1203
   8 O   :2px    0.8639   0.0069  -0.0047
   9 O   :2py    0.0401  -0.0240  -0.1933
  10 O   :2pz    0.0070  -0.7599   0.0060
  11 H   :1s    -0.3534  -0.0004   0.8633
  12 H   :1s     0.3609   0.0000   0.9247



 >>>> Total CPU  time used in SIRIUS :     17.73 seconds
 >>>> Total wall time used in SIRIUS :     18.25 seconds

 
     Date and time (Linux)  : Sun Sep  8 20:40:29 2013
     Host name              : lpqlx131.ups-tlse.fr                    

 NOTE:    1 warnings have been issued.
 Check output, result, and error files for "WARNING".


                     .---------------------------------------.
                     | End of Wave Function Section (SIRIUS) |
                     `---------------------------------------'



        *****************************************************************
        ******** Output from **PROPE input processing for ABACUS ********
        *****************************************************************



 The following molecular properties will be calculated in this run:
 ------------------------------------------------------------------

 Default print level:        0

      Electronic excitation energies 
      Natural orbital connection is used
      for perturbation dependent basis sets.


 Changes of defaults for .EXCITA:
 --------------------------------

 Number of excitation energies:    4    0    0    0    0    0    0    0
 Print level          :   10
 Integral print level :    0
 Threshold            : 1.00E-05
 Maximum iterations   :   60

 Center of mass dipole origin  :   -3.067740   -0.312997    0.018175

 Center of mass gauge origin   :   -3.067740   -0.312997    0.018175


                 .------------------------------------------------.
                 | Starting in Static Property Section (ABACUS) - |
                 `------------------------------------------------'


 
     Date and time (Linux)  : Sun Sep  8 20:40:29 2013
     Host name              : lpqlx131.ups-tlse.fr                    
  <<<<<<<<<< Output from EXCITA >>>>>>>>>> 



 Perturbation symmetry ............ :       1
 Orbital variables         - NWOPPT :      32
 Configuration variables   - NCONST :       0
 Total number of variables - NVARPT :      32


 Perturbation symmetry ............ :       1
 Orbital variables         - NWOPPT :      32
 Configuration variables   - NCONST :       0
 Total number of variables - NVARPT :      32


  THIS IS OUTPUT FROM THE MCSCF AND SOPPA RESPONSE SOLVER
 ---------------------------------------------------------

 Symmetry of excitation operator     1
 Number of excitations:     4
 Convergence threshold:     1.00D-05

 Integral transformation: Total CPU and WALL times (sec)       0.002       0.002


   SCF energy         :     -112.367462265438732
 -- inactive part     :     -143.744198394210457
 -- nuclear repulsion :       31.249215315972382


 >>>>>>>>>> Symmetry of excitation/property operator    1

 Number of excitations:     4


 Perturbation symmetry.     KSYMOP:       1
 Perturbation spin symmetry.TRPLET:       F
 Orbital variables.         KZWOPT:      32
 Configuration variables.   KZCONF:       0
 Total number of variables. KZVAR :      32
  IN RSPLEX: MAXRM               400
  IN RSPLEX: LWRK ,LWRK1    63998662    63517462
  IN RSPLEX: THCPP         1.0000000000000001E-005



 <<< EXCITATION ENERGIES AND TRANSITION MOMENT CALCULATION (MCTDHF) >>>

 Operator symmetry =  1; triplet =   F

 KEXST2,JEXST2 :          28           4
 (I,(ISTART(I),STVAL(I)),I=1,KEXST2)
           1          29  0.64138898837128389     
           2          25  0.73512440223631803     
           3          21  0.83520855912367586     
           4          17  0.92351397358598486     
           5          30  0.98298318866617984     
           6          26   1.0767186025312141     
           7          13   1.0868935776563979     
           8          31   1.1058281641406826     
           9          22   1.1768027594185722     
          10          27   1.1995635780057168     
          11          18   1.2651081738808811     
          12          32   1.2781762068357181     
          13          23   1.2996477348930748     
          14          28   1.3719116207007522     
          15          19   1.3879531493553838     
          16          14   1.4284877779512939     
          17          24   1.4719957775881103     
          18          15   1.5513327534257966     
          19          20   1.5603011920504193     
          20           9   1.6308967140807320     
          21          16   1.7236807961208320     
          22          10   1.9724909143756280     
          23          11   2.0953358898501304     
          24          12   2.2676839325451659     
          25           5   11.411317029364254     
          26           6   11.752911229659150     
          27           7   11.875756205133651     
          28           8   12.048104247828688     
 KEXSTV,JEXSTV :           4           4
 (I, IEQUAL(I), I = 1,JEXSTV)
           1           1
           2           1
           3           1
           4           1

 RSPORT: b-vector, root no., norm**2:     1     1 1.00000D+00

 RSPORT: b-vector, root no., norm**2:     2     1 1.00000D+00

 RSPORT: b-vector, root no., norm**2:     3     1 1.00000D+00

 RSPORT: b-vector, root no., norm**2:     4     1 1.00000D+00
           0  START configuration VECTORS USING LOWEST DIAGONAL HESSIAN ELEMENTS
           4  START orbital VECTORS
 AFTER START ROUTINE BINMEM T

 ** RSPCTL MICROITERATION NUMBER    1

 TRIAL VECTORS FOR RESTART:    4

 ROOT:  1 RESIDUAL TOT: 6.62591D-02 CONF: 0.00000D+00 ORB: 6.62591D-02
          BNORM: 7.09728D-01 EIVAL: 1.60985D-01

 ROOT:  2 RESIDUAL TOT: 1.79213D-01 CONF: 0.00000D+00 ORB: 1.79213D-01
          BNORM: 7.08248D-01 EIVAL: 3.58083D-01

 ROOT:  3 RESIDUAL TOT: 4.05864D-02 CONF: 0.00000D+00 ORB: 4.05864D-02
          BNORM: 7.07264D-01 EIVAL: 4.94438D-01

 ROOT:  4 RESIDUAL TOT: 4.78728D-01 CONF: 0.00000D+00 ORB: 4.78728D-01
          BNORM: 7.29198D-01 EIVAL: 5.11099D-01

 RSPORT: b-vector, root no., norm**2:     1     1 5.95658D-04

 RSPORT: b-vector, root no., norm**2:     2     1 3.72891D-03

 RSPORT: b-vector, root no., norm**2:     3     1 2.05225D-06

 RSPORT: b-vector, root no., norm**2:     4     1 2.51434D-02

 RSPORT: b-vector, root no., norm**2:     1     1 1.00000D+00

 RSPORT: b-vector, root no., norm**2:     2     1 1.00000D+00

 RSPORT: b-vector, root no., norm**2:     3     1 1.00000D+00

 RSPORT: b-vector, root no., norm**2:     4     1 1.00000D+00

 NUMBER OF TRIAL VECTORS IN THIS LOAD    4   OFFSET FOR THIS LOAD    0
    4 NON-CONVERGED SOLUTION VECTORS THIS LOAD, TOTAL:    4
    4 LINEAR INDEPENDENT TRIAL VECTORS ADDED TO PREVIOUS    0

 ** RSPCTL MICROITERATION NUMBER    2

 TRIAL VECTORS FOR RESTART:    8

 ROOT:  1 RESIDUAL TOT: 7.22232D-04 CONF: 0.00000D+00 ORB: 7.22232D-04
          BNORM: 7.11573D-01 EIVAL: 1.58663D-01

 ROOT:  2 RESIDUAL TOT: 2.10773D-02 CONF: 0.00000D+00 ORB: 2.10773D-02
          BNORM: 7.14069D-01 EIVAL: 3.41779D-01

 ROOT:  3 RESIDUAL TOT: 5.14022D-02 CONF: 0.00000D+00 ORB: 5.14022D-02
          BNORM: 7.20557D-01 EIVAL: 4.21966D-01

 ROOT:  4 RESIDUAL TOT: 1.29587D-03 CONF: 0.00000D+00 ORB: 1.29587D-03
          BNORM: 7.07618D-01 EIVAL: 4.93521D-01

 RSPORT: b-vector, root no., norm**2:     1     1 2.65787D-08

 RSPORT: b-vector, root no., norm**2:     2     1 2.12518D-06

 RSPORT: b-vector, root no., norm**2:     3     1 4.12584D-04

 RSPORT: b-vector, root no., norm**2:     4     1 4.21667D-08

 RSPORT: b-vector, root no., norm**2:     1     1 1.00000D+00

 RSPORT: b-vector, root no., norm**2:     2     1 1.00000D+00

 RSPORT: b-vector, root no., norm**2:     3     1 1.00000D+00

 RSPORT: b-vector, root no., norm**2:     4     1 1.00000D+00

 NUMBER OF TRIAL VECTORS IN THIS LOAD    4   OFFSET FOR THIS LOAD    0
    4 NON-CONVERGED SOLUTION VECTORS THIS LOAD, TOTAL:    4
    4 LINEAR INDEPENDENT TRIAL VECTORS ADDED TO PREVIOUS    0

 ** RSPCTL MICROITERATION NUMBER    3

 TRIAL VECTORS FOR RESTART:   12

 ROOT:  1 RESIDUAL TOT: 8.99335D-05 CONF: 0.00000D+00 ORB: 8.99335D-05
          BNORM: 7.11573D-01 EIVAL: 1.58663D-01

 ROOT:  2 RESIDUAL TOT: 2.65501D-03 CONF: 0.00000D+00 ORB: 2.65501D-03
          BNORM: 7.13672D-01 EIVAL: 3.41715D-01

 ROOT:  3 RESIDUAL TOT: 1.11485D-02 CONF: 0.00000D+00 ORB: 1.11485D-02
          BNORM: 7.20515D-01 EIVAL: 4.20696D-01

 ROOT:  4 RESIDUAL TOT: 6.27451D-04 CONF: 0.00000D+00 ORB: 6.27451D-04
          BNORM: 7.07618D-01 EIVAL: 4.93520D-01

 RSPORT: b-vector, root no., norm**2:     1     1 2.39293D-11

 RSPORT: b-vector, root no., norm**2:     2     1 1.23484D-08

 RSPORT: b-vector, root no., norm**2:     3     1 1.25252D-05

 RSPORT: b-vector, root no., norm**2:     4     1 8.30597D-11

 RSPORT: b-vector, root no., norm**2:     1     1 1.00000D+00

 RSPORT: b-vector, root no., norm**2:     2     1 1.00000D+00

 RSPORT: b-vector, root no., norm**2:     3     1 1.00000D+00

 RSPORT: b-vector, root no., norm**2:     4     1 1.00000D+00

 NUMBER OF TRIAL VECTORS IN THIS LOAD    4   OFFSET FOR THIS LOAD    0
    4 NON-CONVERGED SOLUTION VECTORS THIS LOAD, TOTAL:    4
    4 LINEAR INDEPENDENT TRIAL VECTORS ADDED TO PREVIOUS    0

 ** RSPCTL MICROITERATION NUMBER    4

 TRIAL VECTORS FOR RESTART:   16

 ROOT:  1 RESIDUAL TOT: 6.76030D-07 CONF: 0.00000D+00 ORB: 6.76030D-07
          BNORM: 7.11573D-01 EIVAL: 1.58663D-01

 ROOT:  2 RESIDUAL TOT: 7.16598D-05 CONF: 0.00000D+00 ORB: 7.16598D-05
          BNORM: 7.13671D-01 EIVAL: 3.41714D-01

 ROOT:  3 RESIDUAL TOT: 2.26418D-03 CONF: 0.00000D+00 ORB: 2.26418D-03
          BNORM: 7.20553D-01 EIVAL: 4.20647D-01

 ROOT:  4 RESIDUAL TOT: 1.01950D-05 CONF: 0.00000D+00 ORB: 1.01950D-05
          BNORM: 7.07618D-01 EIVAL: 4.93520D-01

 RSPORT: b-vector, root no., norm**2:     1     1 4.23581D-10

 RSPORT: b-vector, root no., norm**2:     2     1 8.85158D-08

 RSPORT: b-vector, root no., norm**2:     3     1 1.89187D-12

 RSPORT: b-vector, root no., norm**2:     1     1 1.00000D+00

 RSPORT: b-vector, root no., norm**2:     2     1 1.00000D+00

 RSPORT: b-vector, root no., norm**2:     3     1 1.00000D+00

 NUMBER OF TRIAL VECTORS IN THIS LOAD    4   OFFSET FOR THIS LOAD    0
    3 NON-CONVERGED SOLUTION VECTORS THIS LOAD, TOTAL:    3
    3 LINEAR INDEPENDENT TRIAL VECTORS ADDED TO PREVIOUS    0

 ** RSPCTL MICROITERATION NUMBER    5

 TRIAL VECTORS FOR RESTART:   19

 ROOT:  1 RESIDUAL TOT: 4.12822D-07 CONF: 0.00000D+00 ORB: 4.12822D-07
          BNORM: 7.11573D-01 EIVAL: 1.58663D-01

 ROOT:  2 RESIDUAL TOT: 9.04485D-06 CONF: 0.00000D+00 ORB: 9.04485D-06
          BNORM: 7.13671D-01 EIVAL: 3.41714D-01

 ROOT:  3 RESIDUAL TOT: 2.77946D-04 CONF: 0.00000D+00 ORB: 2.77946D-04
          BNORM: 7.20555D-01 EIVAL: 4.20647D-01

 ROOT:  4 RESIDUAL TOT: 1.79973D-06 CONF: 0.00000D+00 ORB: 1.79973D-06
          BNORM: 7.07618D-01 EIVAL: 4.93520D-01

 RSPORT: b-vector, root no., norm**2:     1     1 5.94589D-12

 RSPORT: b-vector, root no., norm**2:     2     1 6.10922D-10

 RSPORT: b-vector, root no., norm**2:     1     1 1.00000D+00

 RSPORT: b-vector, root no., norm**2:     2     1 1.00000D+00

 NUMBER OF TRIAL VECTORS IN THIS LOAD    4   OFFSET FOR THIS LOAD    0
    2 NON-CONVERGED SOLUTION VECTORS THIS LOAD, TOTAL:    2
    2 LINEAR INDEPENDENT TRIAL VECTORS ADDED TO PREVIOUS    0

 ** RSPCTL MICROITERATION NUMBER    6

 TRIAL VECTORS FOR RESTART:   21

 ROOT:  1 RESIDUAL TOT: 3.80485D-07 CONF: 0.00000D+00 ORB: 3.80485D-07
          BNORM: 7.11573D-01 EIVAL: 1.58663D-01

 ROOT:  2 RESIDUAL TOT: 1.66192D-06 CONF: 0.00000D+00 ORB: 1.66192D-06
          BNORM: 7.13671D-01 EIVAL: 3.41714D-01

 ROOT:  3 RESIDUAL TOT: 1.66787D-05 CONF: 0.00000D+00 ORB: 1.66787D-05
          BNORM: 7.20555D-01 EIVAL: 4.20647D-01

 ROOT:  4 RESIDUAL TOT: 1.98574D-06 CONF: 0.00000D+00 ORB: 1.98574D-06
          BNORM: 7.07618D-01 EIVAL: 4.93520D-01

 RSPORT: b-vector, root no., norm**2:     1     1 1.20772D-11

 RSPORT: b-vector, root no., norm**2:     1     1 1.00000D+00

 NUMBER OF TRIAL VECTORS IN THIS LOAD    4   OFFSET FOR THIS LOAD    0
    1 NON-CONVERGED SOLUTION VECTORS THIS LOAD, TOTAL:    1
    1 LINEAR INDEPENDENT TRIAL VECTORS ADDED TO PREVIOUS    0

 ** RSPCTL MICROITERATION NUMBER    7

 TRIAL VECTORS FOR RESTART:   22

 ROOT:  1 RESIDUAL TOT: 3.37019D-07 CONF: 0.00000D+00 ORB: 3.37019D-07
          BNORM: 7.11573D-01 EIVAL: 1.58663D-01

 ROOT:  2 RESIDUAL TOT: 1.63855D-06 CONF: 0.00000D+00 ORB: 1.63855D-06
          BNORM: 7.13671D-01 EIVAL: 3.41714D-01

 ROOT:  3 RESIDUAL TOT: 4.62265D-06 CONF: 0.00000D+00 ORB: 4.62265D-06
          BNORM: 7.20555D-01 EIVAL: 4.20647D-01

 ROOT:  4 RESIDUAL TOT: 2.05227D-06 CONF: 0.00000D+00 ORB: 2.05227D-06
          BNORM: 7.07618D-01 EIVAL: 4.93520D-01

 NUMBER OF TRIAL VECTORS IN THIS LOAD    4   OFFSET FOR THIS LOAD    0
    0 NON-CONVERGED SOLUTION VECTORS THIS LOAD, TOTAL:    0
    0 LINEAR INDEPENDENT TRIAL VECTORS ADDED TO PREVIOUS    0

 *** THE REQUESTED    4 SOLUTION VECTORS CONVERGED

 Convergence of RSP solution vectors, threshold = 1.00D-05
 ---------------------------------------------------------------
 (dimension of paired reduced space:   44)
 RSP solution vector no.    1; norm of residual   4.74D-07
 RSP solution vector no.    2; norm of residual   2.30D-06
 RSP solution vector no.    3; norm of residual   6.42D-06
 RSP solution vector no.    4; norm of residual   2.90D-06

 *** RSPCTL MICROITERATIONS CONVERGED

 STATE NO:    1

 EXCITATION ENERGY :  0.15866291     au
                       4.3174374     eV
                       34822.484     cm-1
                       416.56941     kj / mole


 EIGENVECTOR FOR STATE NO.  1

     Orbital operator symmetry = 1
     (only elements abs greater than   10.00 % of max abs value)

      Index(r,s)      r      s        (r s) operator      (s r) operator
      ----------    -----  -----      --------------      --------------
          17         5(1)   9(1)       -0.1377024536       -0.0124028670
          29         8(1)   9(1)       -0.6958249574       -0.0424329648

       30 elements with absolute value less than 6.96D-02 not printed.

 The numbers in parenthesis give the orbital symmetry.

     Configuration operator symmetry = 1
     >> NO ELEMENTS <<

 STATE NO:    2

 EXCITATION ENERGY :  0.34171432     au
                       9.2985197     eV
                       74997.624     cm-1
                       897.17081     kj / mole


 EIGENVECTOR FOR STATE NO.  2

     Orbital operator symmetry = 1
     (only elements abs greater than   10.00 % of max abs value)

      Index(r,s)      r      s        (r s) operator      (s r) operator
      ----------    -----  -----      --------------      --------------
          21         6(1)   9(1)        0.7063982339        0.0286789154

       31 elements with absolute value less than 7.06D-02 not printed.

 The numbers in parenthesis give the orbital symmetry.

     Configuration operator symmetry = 1
     >> NO ELEMENTS <<

 STATE NO:    3

 EXCITATION ENERGY :  0.42064685     au
                       11.446383     eV
                       92321.311     cm-1
                       1104.4081     kj / mole


 EIGENVECTOR FOR STATE NO.  3

     Orbital operator symmetry = 1
     (only elements abs greater than   10.00 % of max abs value)

      Index(r,s)      r      s        (r s) operator      (s r) operator
      ----------    -----  -----      --------------      --------------
          24         6(1)  12(1)       -0.1517921763        0.0627691030
          25         7(1)   9(1)       -0.6867397502       -0.0534413763
          31         8(1)  11(1)        0.0819739461       -0.0255314527

       29 elements with absolute value less than 6.87D-02 not printed.

 The numbers in parenthesis give the orbital symmetry.

     Configuration operator symmetry = 1
     >> NO ELEMENTS <<

 STATE NO:    4

 EXCITATION ENERGY :  0.49351979     au
                       13.429357     eV
                       108315.07     cm-1
                       1295.7360     kj / mole


 EIGENVECTOR FOR STATE NO.  4

     Orbital operator symmetry = 1
     (only elements abs greater than   10.00 % of max abs value)

      Index(r,s)      r      s        (r s) operator      (s r) operator
      ----------    -----  -----      --------------      --------------
          17         5(1)   9(1)       -0.6935923240       -0.0115526232
          29         8(1)   9(1)        0.1363425342       -0.0029061561

       30 elements with absolute value less than 6.94D-02 not printed.

 The numbers in parenthesis give the orbital symmetry.

     Configuration operator symmetry = 1
     >> NO ELEMENTS <<


Time used in polarization propagator calculation is      4.06 CPU seconds for symmetry 1

 >>> Total time used in response solver is         4.06 CPU seconds.
 >>>  Time used in EXCITA     is   4.06 seconds


   ***************************************************************************
   ************************ FINAL RESULTS from ABACUS ************************
   ***************************************************************************


 
     Date and time (Linux)  : Sun Sep  8 20:40:33 2013
     Host name              : lpqlx131.ups-tlse.fr                    


                             Molecular geometry (au)
                             -----------------------

 C         -3.0015786160           -1.4563174382            0.0550080378
 O         -3.1314330364            0.8240509816           -0.0184248297
 H         -1.1728925345           -2.4468589606            0.1025195320
 H         -4.7395143797           -2.6116033945            0.0761219478





                        Molecular wave function and energy
                        ----------------------------------

     Spin multiplicity  1     State number       1     Total charge       0

     Total energy       -112.3674622654 au (Hartrees)
                         -3057.67418840 eV
                           -295020.7267 kJ/mol


                             Relativistic corrections
                             ------------------------

     Darwin correction:                          0.1684631456 au
     Mass-velocity correction:                  -0.2161962799 au

     Total relativistic correction:             -0.0477331343 au (0.0425%)
     Non-relativistic + relativistic energy:  -112.4151953997 au




                                  Dipole moment
                                  -------------

                 au               Debye          C m (/(10**-30)
              0.713624           1.813851           6.050357


                             Dipole moment components
                             ------------------------

                 au               Debye          C m (/(10**-30)

      x      0.07564743         0.19227657         0.64136561
      y     -0.70924195        -1.80271310        -6.01320363
      z      0.02264347         0.05755394         0.19197929


   Units:   1 a.u. =   2.54175 Debye 
            1 a.u. =   8.47835 (10**-30) C m (SI)




                Singlet electronic excitation energies
                --------------------------------------

               ========================================
                 Sym.   Mode   Frequency    Frequency
                ex. st.  No.      (au)         (eV)
               ----------------------------------------
                   1      1     0.158663     4.317437
                   1      2     0.341714     9.298520
                   1      3     0.420647    11.446383
                   1      4     0.493520    13.429357
               ========================================


   Interatomic separations (in Angstrom):
   --------------------------------------

            C           O           H           H           O           O     
            ------      ------      ------      ------      ------      ------
 C     :    0.000000
 O     :    1.209298    0.000000
 H     :    1.100831    2.018474    0.000000
 H     :    1.104391    2.007988    1.889439    0.000000
 O     :    3.431437    2.843123    3.227697    4.527473    0.000000
 O     :    3.256903    3.690634    2.259133    4.146127    2.818428    0.000000
 H     :    2.626569    1.891038    2.677390    3.690164    0.974615    3.001967
 H     :    3.957345    3.280624    3.815178    5.027183    0.960931    3.406086
 H     :    3.232031    3.331964    2.455252    4.261481    1.873273    0.975233
 H     :    3.989875    4.430026    2.974344    4.841645    3.316946    0.960260
 a  1  :    3.408645    2.807232    3.219816    4.503294    0.065744    2.847367
 a  2  :    3.285589    3.703418    2.294418    4.182574    2.786761    0.065593

            H           H           H           H           a  1        a  2  
            ------      ------      ------      ------      ------      ------
 H     :    0.000000
 H     :    1.538236    0.000000
 H     :    2.217721    2.479847    0.000000
 H     :    3.641364    3.700807    1.540226    0.000000
 a  1  :    0.935667    0.923012    1.906635    3.343454    0.000000
 a  2  :    2.986623    3.363487    0.936414    0.922570    2.815774    0.000000


  Max    interatomic separation is    2.0185 Angstrom (    3.8144 Bohr)
  between atoms    3 and    2, "H     " and "O     ".

  Min HX interatomic separation is    1.1008 Angstrom (    2.0803 Bohr)

  Min YX interatomic separation is    1.2093 Angstrom (    2.2852 Bohr)

  Max QM+MM interatomic separation is    5.0272 Angstrom (    9.5000 Bohr)
  between the QM+MM centers    8 and    4, "H     " and "H     ".




 CPU time statistics for ABACUS
 ------------------------------

 EXCITA     00:00:04     100 %

 TOTAL      00:00:04     100 %


 >>>> Total CPU  time used in ABACUS:   4.06 seconds
 >>>> Total wall time used in ABACUS:   4.08 seconds


                   .-------------------------------------------.
                   | End of Static Property Section (ABACUS) - |
                   `-------------------------------------------'

 >>>> Total CPU  time used in DALTON:  23.53 seconds
 >>>> Total wall time used in DALTON:  24.09 seconds

 
     Date and time (Linux)  : Sun Sep  8 20:40:33 2013
     Host name              : lpqlx131.ups-tlse.fr                    
