

     ************************************************************************
     *************** Dalton - An Electronic Structure Program ***************
     ************************************************************************

    This is output from DALTON (Release Dalton2013 patch 0)
   ----------------------------------------------------------------------------
    NOTE:
     
    Dalton is an experimental code for the evaluation of molecular
    properties using (MC)SCF, DFT, CI, and CC wave functions.
    The authors accept no responsibility for the performance of
    the code or for the correctness of the results.
     
    The code (in whole or part) is provided under a licence and
    is not to be reproduced for further distribution without
    the written permission of the authors or their representatives.
     
    See the home page "http://daltonprogram.org" for further information.
     
    If results obtained with this code are published,
    the appropriate citations would be both of:
     
       K. Aidas, C. Angeli, K. L. Bak, V. Bakken, R. Bast,
       L. Boman, O. Christiansen, R. Cimiraglia, S. Coriani,
       P. Dahle, E. K. Dalskov, U. Ekstroem, T. Enevoldsen,
       J. J. Eriksen, P. Ettenhuber, B. Fernandez, L. Ferrighi,
       H. Fliegl, L. Frediani, K. Hald, A. Halkier, C. Haettig,
       H. Heiberg, T. Helgaker, A. C. Hennum, H. Hettema,
       E. Hjertenaes, S. Hoest, I.-M. Hoeyvik, M. F. Iozzi,
       B. Jansik, H. J. Aa. Jensen, D. Jonsson, P. Joergensen,
       J. Kauczor, S. Kirpekar, T. Kjaergaard, W. Klopper,
       S. Knecht, R. Kobayashi, H. Koch, J. Kongsted, A. Krapp,
       K. Kristensen, A. Ligabue, O. B. Lutnaes, J. I. Melo,
       K. V. Mikkelsen, R. H. Myhre, C. Neiss, C. B. Nielsen,
       P. Norman, J. Olsen, J. M. H. Olsen, A. Osted,
       M. J. Packer, F. Pawlowski, T. B. Pedersen, P. F. Provasi,
       S. Reine, Z. Rinkevicius, T. A. Ruden, K. Ruud, V. Rybkin,
       P. Salek, C. C. M. Samson, A. Sanchez de Meras, T. Saue,
       S. P. A. Sauer, B. Schimmelpfennig, K. Sneskov,
       A. H. Steindal, K. O. Sylvester-Hvid, P. R. Taylor,
       A. M. Teale, E. I. Tellgren, D. P. Tew, A. J. Thorvaldsen,
       L. Thoegersen, O. Vahtras, M. A. Watson, D. J. D. Wilson,
       M. Ziolkowski and H. Agren.
       The Dalton quantum chemistry program system.
       WIREs Comput. Mol. Sci. 2013. doi: 10.1002/wcms.1172
    
    and
    
       Dalton, a Molecular Electronic Structure Program,
       Release DALTON2013.0 (2013), see http://daltonprogram.org
   ----------------------------------------------------------------------------

    Authors in alphabetical order (major contribution(s) in parenthesis):

  Kestutis Aidas,           Vilnius University,           Lithuania   (QM/MM)
  Celestino Angeli,         University of Ferrara,        Italy       (NEVPT2)
  Keld L. Bak,              UNI-C,                        Denmark     (AOSOPPA, non-adiabatic coupling, magnetic properties)
  Vebjoern Bakken,          University of Oslo,           Norway      (DALTON; geometry optimizer, symmetry detection)
  Radovan Bast,             KTH Stockholm                 Sweden      (DALTON installation and execution frameworks)
  Linus Boman,              NTNU,                         Norway      (Cholesky decomposition and subsystems)
  Ove Christiansen,         Aarhus University,            Denmark     (CC module)
  Renzo Cimiraglia,         University of Ferrara,        Italy       (NEVPT2)
  Sonia Coriani,            University of Trieste,        Italy       (CC module, MCD in RESPONS)
  Paal Dahle,               University of Oslo,           Norway      (Parallelization)
  Erik K. Dalskov,          UNI-C,                        Denmark     (SOPPA)
  Thomas Enevoldsen,        Univ. of Southern Denmark,    Denmark     (SOPPA)
  Janus J. Eriksen,         Aarhus University,            Denmark     (PE-MP2/SOPPA, TDA)
  Berta Fernandez,          U. of Santiago de Compostela, Spain       (doublet spin, ESR in RESPONS)
  Lara Ferrighi,            Aarhus University,            Denmark     (PCM Cubic response)
  Heike Fliegl,             University of Oslo,           Norway      (CCSD(R12))
  Luca Frediani,            UiT The Arctic U. of Norway,  Norway      (PCM)
  Bin Gao,                  UiT The Arctic U. of Norway,  Norway      (Gen1Int library)
  Christof Haettig,         Ruhr-University Bochum,       Germany     (CC module)
  Kasper Hald,              Aarhus University,            Denmark     (CC module)
  Asger Halkier,            Aarhus University,            Denmark     (CC module)
  Hanne Heiberg,            University of Oslo,           Norway      (geometry analysis, selected one-electron integrals)
  Trygve Helgaker,          University of Oslo,           Norway      (DALTON; ABACUS, ERI, DFT modules, London, and much more)
  Alf Christian Hennum,     University of Oslo,           Norway      (Parity violation)
  Hinne Hettema,            University of Auckland,       New Zealand (quadratic response in RESPONS; SIRIUS supersymmetry)
  Eirik Hjertenaes,         NTNU,                         Norway      (Cholesky decomposition)
  Maria Francesca Iozzi,    University of Oslo,           Norway      (RPA)
  Brano Jansik              Technical Univ. of Ostrava    Czech Rep.  (DFT cubic response)
  Hans Joergen Aa. Jensen,  Univ. of Southern Denmark,    Denmark     (DALTON; SIRIUS, RESPONS, ABACUS modules, London, and much more)
  Dan Jonsson,              UiT The Arctic U. of Norway,  Norway      (cubic response in RESPONS module)
  Poul Joergensen,          Aarhus University,            Denmark     (RESPONS, ABACUS, and CC modules)
  Joanna Kauczor,           Linkoeping University,        Sweden      (Complex polarization propagator (CPP) module)
  Sheela Kirpekar,          Univ. of Southern Denmark,    Denmark     (Mass-velocity & Darwin integrals)
  Wim Klopper,              KIT Karlsruhe,                Germany     (R12 code in CC, SIRIUS, and ABACUS modules)
  Stefan Knecht,            ETH Zurich,                   Switzerland (Parallel CI and MCSCF)
  Rika Kobayashi,           Australian National Univ.,    Australia   (DIIS in CC, London in MCSCF)
  Henrik Koch,              NTNU,                         Norway      (CC module, Cholesky decomposition)
  Jacob Kongsted,           Univ. of Southern Denmark,    Denmark     (Polarizable embedding, QM/MM)
  Andrea Ligabue,           University of Modena,         Italy       (CTOCD, AOSOPPA)
  Ola B. Lutnaes,           University of Oslo,           Norway      (DFT Hessian)
  Juan I. Melo,             University of Buenos Aires,   Argentina   (LRESC, Relativistic Effects on NMR Shieldings)
  Kurt V. Mikkelsen,        University of Copenhagen,     Denmark     (MC-SCRF and QM/MM)
  Rolf H. Myhre,            NTNU,                         Norway      (Cholesky, subsystems and ECC2)
  Christian Neiss,          Univ. Erlangen-Nuernberg,     Germany     (CCSD(R12))
  Christian B. Nielsen,     University of Copenhagen,     Denmark     (QM/MM)
  Patrick Norman,           Linkoeping University,        Sweden      (Cubic response and complex response in RESPONS)
  Jeppe Olsen,              Aarhus University,            Denmark     (SIRIUS CI/density modules)
  Jogvan Magnus H. Olsen,   Univ. of Southern Denmark,    Denmark     (Polarizable embedding, PE library, QM/MM)
  Anders Osted,             Copenhagen University,        Denmark     (QM/MM)
  Martin J. Packer,         University of Sheffield,      UK          (SOPPA)
  Filip Pawlowski,          Kazimierz Wielki University   Poland      (CC3)
  Thomas B. Pedersen,       University of Oslo,           Norway      (Cholesky decomposition)
  Patricio F. Provasi,      University of Northeastern,   Argentina   (Analysis of coupling constants in localized orbitals)
  Zilvinas Rinkevicius,     KTH Stockholm,                Sweden      (open-shell DFT, ESR)
  Elias Rudberg,            KTH Stockholm,                Sweden      (DFT grid and basis info)
  Torgeir A. Ruden,         University of Oslo,           Norway      (Numerical derivatives in ABACUS)
  Kenneth Ruud,             UiT The Arctic U. of Norway,  Norway      (DALTON; ABACUS magnetic properties and  much more)
  Pawel Salek,              KTH Stockholm,                Sweden      (DALTON; DFT code)
  Claire C. M. Samson       University of Karlsruhe       Germany     (Boys localization, r12 integrals in ERI)
  Alfredo Sanchez de Meras, University of Valencia,       Spain       (CC module, Cholesky decomposition)
  Trond Saue,               Paul Sabatier University,     France      (direct Fock matrix construction)
  Stephan P. A. Sauer,      University of Copenhagen,     Denmark     (SOPPA(CCSD), SOPPA prop., AOSOPPA, vibrational g-factors)
  Bernd Schimmelpfennig,    Forschungszentrum Karlsruhe,  Germany     (AMFI module)
  Kristian Sneskov,         Aarhus University,            Denmark     (QM/MM, PE-CC)
  Arnfinn H. Steindal,      UiT The Arctic U. of Norway,  Norway      (parallel QM/MM)
  K. O. Sylvester-Hvid,     University of Copenhagen,     Denmark     (MC-SCRF)
  Peter R. Taylor,          VLSCI/Univ. of Melbourne,     Australia   (Symmetry handling ABACUS, integral transformation)
  Andrew M. Teale,          University of Nottingham,     England     (DFT-AC, DFT-D)
  David P. Tew,             University of Bristol,        England     (CCSD(R12))
  Olav Vahtras,             KTH Stockholm,                Sweden      (triplet response, spin-orbit, ESR, TDDFT, open-shell DFT)
  David J. Wilson,          La Trobe University,          Australia   (DFT Hessian and DFT magnetizabilities)
  Hans Agren,               KTH Stockholm,                Sweden      (SIRIUS module, RESPONS, MC-SCRF solvation model)
 --------------------------------------------------------------------------------

     Date and time (Linux)  : Sun Sep  8 20:54:55 2013
     Host name              : lpqlx131.ups-tlse.fr                    

 * Work memory size             :    64000000 =  488.28 megabytes.

 * Directories for basis set searches:
   1) /home/bast/DALTON-2013.0-Source/build/test_dft_open_lr
   2) /home/bast/DALTON-2013.0-Source/build/basis


Compilation information
-----------------------

 Who compiled             | bast
 Host                     | lpqlx131.ups-tlse.fr
 System                   | Linux-3.8.5-201.fc18.x86_64
 CMake generator          | Unix Makefiles
 Processor                | x86_64
 64-bit integers          | OFF
 MPI                      | OFF
 Fortran compiler         | /usr/bin/gfortran
 Fortran compiler version | GNU Fortran (GCC) 4.7.2 20121109 (Red Hat 4.7.2-8)
 C compiler               | /usr/bin/gcc
 C compiler version       | gcc (GCC) 4.7.2 20121109 (Red Hat 4.7.2-8)
 C++ compiler             | /usr/bin/g++
 C++ compiler version     | g++ (GCC) 4.7.2 20121109 (Red Hat 4.7.2-8)
 Static linking           | OFF
 Last Git revision        | f34203295a86316e27f9e7b44f9b6769c4a046c0
 Configuration time       | 2013-09-08 20:31:27.952056


   Content of the .dal input file
 ----------------------------------

**DALTON INPUT                                    
.RUN RESPONSE                                     
.DIRECT                                           
**WAVE FUNCTIONS                                  
.DFT                                              
 B3LYP                                            
*SCF INP                                          
.THRESHOLD                                        
 1e-10                                            
**RESPONSE                                        
*LINEAR                                           
.DIPLEN                                           
.THCLR                                            
 1e-7                                             
**END OF DALTON INPUT                             
                                                  


   Content of the .mol file
 ----------------------------

BASIS                                                                          
aug-cc-pVDZ                                                                    
Water cation ( H2O+ )                                                          
aug-cc-pVDZ basis                                                              
    2  1 2  X  Z                                                               
        8.    1                                                                
O      .0000   -.2249  0.0000000000                                            
        1.    1                                                                
H     1.4523    .8996   .0000000000                                            
                                                                               


       *******************************************************************
       *********** Output from DALTON general input processing ***********
       *******************************************************************

 --------------------------------------------------------------------------------
   Overall default print level:    0
   Print level for DALTON.STAT:    1

    AO-direct calculation (in sections where implemented)
    HERMIT 1- and 2-electron integral sections will be executed
    "Old" integral transformation used (limited to max 255 basis functions)
    Wave function sections will be executed (SIRIUS module)
    Dynamic molecular response properties section will be executed (RESPONSE module)
 --------------------------------------------------------------------------------


   ****************************************************************************
   *************** Output of molecule and basis set information ***************
   ****************************************************************************


    The two title cards from your ".mol" input:
    ------------------------------------------------------------------------
 1: Water cation ( H2O+ )                                                   
 2: aug-cc-pVDZ basis                                                       
    ------------------------------------------------------------------------

  Atomic type no.    1
  --------------------
  Nuclear charge:   8.00000
  Number of symmetry independent centers:    1
  Number of basis sets to read;    2
  Basis set file used for this atomic type with Z =   8 :
     "/home/bast/DALTON-2013.0-Source/build/basis/aug-cc-pVDZ"

  Atomic type no.    2
  --------------------
  Nuclear charge:   1.00000
  Number of symmetry independent centers:    1
  Number of basis sets to read;    2
  Basis set file used for this atomic type with Z =   1 :
     "/home/bast/DALTON-2013.0-Source/build/basis/aug-cc-pVDZ"


                         SYMGRP: Point group information
                         -------------------------------

Point group: C2v

   * The point group was generated by:

      Reflection in the yz-plane
      Reflection in the xy-plane

   * Group multiplication table

        |  E   C2y  Oxy  Oyz
   -----+--------------------
     E  |  E   C2y  Oxy  Oyz
    C2y | C2y   E   Oyz  Oxy
    Oxy | Oxy  Oyz   E   C2y
    Oyz | Oyz  Oxy  C2y   E 

   * Character table

        |  E   C2y  Oxy  Oyz
   -----+--------------------
    A1  |   1    1    1    1
    B2  |   1   -1    1   -1
    B1  |   1   -1   -1    1
    A2  |   1    1   -1   -1

   * Direct product table

        | A1   B2   B1   A2 
   -----+--------------------
    A1  | A1   B2   B1   A2 
    B2  | B2   A1   A2   B1 
    B1  | B1   A2   A1   B2 
    A2  | A2   B1   B2   A1 


                                 Isotopic Masses
                                 ---------------

                           O          15.994915
                           H   _1      1.007825
                           H   _2      1.007825

                       Total mass:    18.010565 amu
                       Natural abundance:  99.730 %

 Center-of-mass coordinates (a.u.):    0.000000   -0.099052    0.000000


  Atoms and basis sets
  --------------------

  Number of atom types :    2
  Total number of atoms:    3

  Basis set used is "aug-cc-pVDZ" from the basis set library.

  label    atoms   charge   prim   cont     basis
  ----------------------------------------------------------------------
  O           1    8.0000    35    23      [10s5p2d|4s3p2d]                                   
  H           2    1.0000    11     9      [5s2p|3s2p]                                        
  ----------------------------------------------------------------------
  total:      3   10.0000    57    41
  ----------------------------------------------------------------------
  Spherical harmonic basis used.

  Threshold for neglecting AO integrals:  1.00D-12


  Cartesian Coordinates (a.u.)
  ----------------------------

  Total number of coordinates:    9
  O       :     1  x   0.0000000000    2  y  -0.2249000000    3  z   0.0000000000
  H   / 1 :     4  x   1.4523000000    5  y   0.8996000000    6  z   0.0000000000
  H   / 2 :     7  x  -1.4523000000    8  y   0.8996000000    9  z   0.0000000000


  Symmetry Coordinates
  --------------------

  Number of coordinates in each symmetry:     3    3    2    1

  Symmetry  A1  ( 1)

    1   O     y    2
    2   H     x    [  4  -    7 ]/2
    3   H     y    [  5  +    8 ]/2

  Symmetry  B2  ( 2)

    4   O     x    1
    5   H     x    [  4  +    7 ]/2
    6   H     y    [  5  -    8 ]/2

  Symmetry  B1  ( 3)

    7   O     z    3
    8   H     z    [  6  +    9 ]/2

  Symmetry  A2  ( 4)

    9   H     z    [  6  -    9 ]/2


   Interatomic separations (in Angstrom):
   --------------------------------------

            O           H   _1      H   _2
            ------      ------      ------
 O     :    0.000000
 H   _1:    0.971970    0.000000
 H   _2:    0.971970    1.537048    0.000000


  Max    interatomic separation is    1.5370 Angstrom (    2.9046 Bohr)
  between atoms    3 and    2, "H   _2" and "H   _1".

  Min HX interatomic separation is    0.9720 Angstrom (    1.8368 Bohr)


  Bond distances (Angstrom):
  --------------------------

                  atom 1     atom 2       distance
                  ------     ------       --------
  bond distance:  H   _1     O            0.971970
  bond distance:  H   _2     O            0.971970


  Bond angles (degrees):
  ----------------------

                  atom 1     atom 2     atom 3         angle
                  ------     ------     ------         -----
  bond angle:     H   _1     O          H   _2       104.500




 Principal moments of inertia (u*A**2) and principal axes
 --------------------------------------------------------

   IA       0.633856          1.000000    0.000000    0.000000
   IB       1.190502          0.000000    1.000000    0.000000
   IC       1.824358          0.000000    0.000000    1.000000


 Rotational constants
 --------------------

 The molecule is planar.

               A                   B                   C

         797308.3077         424509.2262         277017.4133 MHz
           26.595342           14.160104            9.240306 cm-1


@  Nuclear repulsion energy :    9.055287756882 Hartree


  Symmetry Orbitals
  -----------------

  Number of orbitals in each symmetry:          18   12    7    4


  Symmetry  A1 ( 1)

    1     O        1s         1
    2     O        1s         2
    3     O        1s         3
    4     O        1s         4
    5     O        2py        6
    6     O        2py        9
    7     O        2py       12
    8     O        3d0       16
    9     O        3d2+      18
   10     O        3d0       21
   11     O        3d2+      23
   12     H        1s        24 +   25
   13     H        1s        26 +   27
   14     H        1s        28 +   29
   15     H        2px       30 -   31
   16     H        2py       32 +   33
   17     H        2px       36 -   37
   18     H        2py       38 +   39


  Symmetry  B2 ( 2)

   19     O        2px        5
   20     O        2px        8
   21     O        2px       11
   22     O        3d2-      14
   23     O        3d2-      19
   24     H        1s        24 -   25
   25     H        1s        26 -   27
   26     H        1s        28 -   29
   27     H        2px       30 +   31
   28     H        2py       32 -   33
   29     H        2px       36 +   37
   30     H        2py       38 -   39


  Symmetry  B1 ( 3)

   31     O        2pz        7
   32     O        2pz       10
   33     O        2pz       13
   34     O        3d1-      15
   35     O        3d1-      20
   36     H        2pz       34 +   35
   37     H        2pz       40 +   41


  Symmetry  A2 ( 4)

   38     O        3d1+      17
   39     O        3d1+      22
   40     H        2pz       34 -   35
   41     H        2pz       40 -   41

  Symmetries of electric field:  B2 (2)  A1 (1)  B1 (3)

  Symmetries of magnetic field:  B1 (3)  A2 (4)  B2 (2)


                     .---------------------------------------.
                     | Starting in Integral Section (HERMIT) |
                     `---------------------------------------'



    *************************************************************************
    ****************** Output from HERMIT input processing ******************
    *************************************************************************



     ************************************************************************
     ************************** Output from HERINT **************************
     ************************************************************************

 >>>> Total CPU  time used in HERMIT:   0.01 seconds
 >>>> Total wall time used in HERMIT:   0.01 seconds


                        .----------------------------------.
                        | End of Integral Section (HERMIT) |
                        `----------------------------------'



                   .--------------------------------------------.
                   | Starting in Wave Function Section (SIRIUS) |
                   `--------------------------------------------'


 *** Output from Huckel module :

     Using EWMO model:          F
     Using EHT  model:          T
     Number of Huckel orbitals each symmetry:    4    2    1    0

 Huckel EHT eigenvalues for symmetry :  1
          -20.704227      -1.499405      -0.671093      -0.296838

 Huckel EHT eigenvalues for symmetry :  2
           -0.731017      -0.261120

 Huckel EHT eigenvalues for symmetry :  3
           -0.616200

 **********************************************************************
 *SIRIUS* a direct, restricted step, second order MCSCF program       *
 **********************************************************************

 
     Date and time (Linux)  : Sun Sep  8 20:54:55 2013
     Host name              : lpqlx131.ups-tlse.fr                    

 Title lines from ".mol" input file:
     Water cation ( H2O+ )                                                   
     aug-cc-pVDZ basis                                                       

 Print level on unit LUPRI =   2 is   0
 Print level on unit LUW4  =   2 is   5

@    Restricted, one open shell Kohn-Sham DFT calculation.

@    Time-dependent Kohn-Sham DFT calculation (TD-DFT).
 Fock matrices are calculated directly without use of integrals on disk.

 Initial molecular orbitals are obtained according to
 ".MOSTART EHT   " input option

     Wave function specification
     ============================
@    For the wave function of type :      >>> KS-DFT <<<
@    Number of closed shell electrons           8
@    Number of electrons in active shells       1
@    Total charge of the molecule               1

@    Spin multiplicity and 2 M_S                2         1
     Total number of symmetries                 4
@    Reference state symmetry                   3
 
     This is a DFT calculation of type: B3LYP
 Weighted mixed functional:
               HF exchange:    0.20000
                       VWN:    0.19000
                       LYP:    0.81000
                     Becke:    0.72000
                    Slater:    0.80000

     Orbital specifications
     ======================
     Abelian symmetry species          All |    1    2    3    4
                                       --- |  ---  ---  ---  ---
     Total number of orbitals           41 |   18   12    7    4
     Number of basis functions          41 |   18   12    7    4

      ** Automatic occupation of RKS orbitals **

      -- Initial occupation of symmetries is determined from extended Huckel guess.           
      -- Initial occupation of symmetries is :
@    Occupied SCF orbitals               4 |    3    1    0    0

@    plus one open shell SCF orbital of symmetry   3

     Maximum number of Fock   iterations      0
     Maximum number of DIIS   iterations     60
     Maximum number of QC-SCF iterations     60
     Threshold for SCF convergence     1.00D-10
 
     This is a DFT calculation of type: B3LYP
 Weighted mixed functional:
               HF exchange:    0.20000
                       VWN:    0.19000
                       LYP:    0.81000
                     Becke:    0.72000
                    Slater:    0.80000


 >>>>> DIIS optimization of Hartree-Fock <<<<<

 C1-DIIS algorithm; max error vectors =   10

 Automatic occupation of symmetries with   9 electrons.
 "sym." is the symmetry of the one open shell orbital in table below.

 Iter     Total energy    Error norm  Delta(E)  Sym.  Closed shell occupation
 -----------------------------------------------------------------------------
   1  Screening settings (-IFTHRS, DIFDEN)   -6    F
@  1  -75.5722226525       2.82D+00  -7.56D+01   3     3   1   0   0
      Virial theorem: -V/T =      2.028429
@      MULPOP O       0.62; H   _1  0.19; H   _2  0.19; 
 -----------------------------------------------------------------------------
   2  Screening settings (-IFTHRS, DIFDEN)   -7    F
@  2  -75.8033971475       1.68D+00  -2.31D-01   3     3   1   0   0
      Virial theorem: -V/T =      1.969406
@      MULPOP O       0.04; H   _1  0.48; H   _2  0.48; 
 -----------------------------------------------------------------------------
   3  Screening settings (-IFTHRS, DIFDEN)   -7    F
@  3  -75.9218336963       6.21D-01  -1.18D-01   3     3   1   0   0
      Virial theorem: -V/T =      2.015553
@      MULPOP O       0.51; H   _1  0.24; H   _2  0.24; 
 -----------------------------------------------------------------------------
   4  Screening settings (-IFTHRS, DIFDEN)   -7    F
@  4  -75.9404721730       7.79D-02  -1.86D-02   3     3   1   0   0
      Virial theorem: -V/T =      2.002848
@      MULPOP O       0.35; H   _1  0.33; H   _2  0.33; 
 -----------------------------------------------------------------------------
   5  Screening settings (-IFTHRS, DIFDEN)   -8    F
@  5  -75.9407966274       3.47D-03  -3.24D-04   3     3   1   0   0
      Virial theorem: -V/T =      2.003986
@      MULPOP O       0.37; H   _1  0.32; H   _2  0.32; 
 -----------------------------------------------------------------------------
   6  Screening settings (-IFTHRS, DIFDEN)  -10    F
@  6  -75.9407972536       1.07D-04  -6.26D-07   3     3   1   0   0
      Virial theorem: -V/T =      2.003923
@      MULPOP O       0.37; H   _1  0.32; H   _2  0.32; 
 -----------------------------------------------------------------------------
   7  Screening settings (-IFTHRS, DIFDEN)  -11    F
@  7  -75.9407972544       8.83D-06  -8.21D-10   3     3   1   0   0
      Virial theorem: -V/T =      2.003922
@      MULPOP O       0.37; H   _1  0.32; H   _2  0.32; 
 -----------------------------------------------------------------------------
   8  Screening settings (-IFTHRS, DIFDEN)  -12    F
@  8  -75.9407972545       6.99D-07  -5.88D-12   3     3   1   0   0
      Virial theorem: -V/T =      2.003922
@      MULPOP O       0.37; H   _1  0.32; H   _2  0.32; 
 -----------------------------------------------------------------------------
   9  Screening settings (-IFTHRS, DIFDEN)  -13    F
@  9  -75.9407972545       6.26D-08  -4.26D-14   3     3   1   0   0
      Virial theorem: -V/T =      2.003922
@      MULPOP O       0.37; H   _1  0.32; H   _2  0.32; 
 -----------------------------------------------------------------------------
  10  Screening settings (-IFTHRS, DIFDEN)  -14    F
@ 10  -75.9407972545       2.08D-09   1.42D-14   3     3   1   0   0
      Virial theorem: -V/T =      2.003922
@      MULPOP O       0.37; H   _1  0.32; H   _2  0.32; 
 -----------------------------------------------------------------------------
  11  Screening settings (-IFTHRS, DIFDEN)  -15    F
@ 11  -75.9407972545       2.31D-10  -2.84D-14   3     3   1   0   0
      Virial theorem: -V/T =      2.003922
@      MULPOP O       0.37; H   _1  0.32; H   _2  0.32; 
 -----------------------------------------------------------------------------
  12  Screening settings (-IFTHRS, DIFDEN)  -15    F
@ 12  -75.9407972545       8.53D-12   1.42D-14   3     3   1   0   0

@ *** DIIS converged in  12 iterations !
@     Converged SCF energy, gradient:    -75.940797254453    8.53D-12
    - total time used in SIRFCK :              0.00 seconds


 *** SCF orbital energy analysis ***

 Orbital energy analysis for an open-shell system.
 Orbital energies are not well-defined for open-shell systems
   here is used block diagonalization of the FD=FC+FV Fock matrix.
 NOTE that Koopmans' theorem is not fulfilled for this case.

 Only the five lowest virtual orbital energies printed in each symmetry.

 Number of electrons :    8
 Orbital occupations :    3    1    0    0

 Sym       Kohn-Sham orbital energies

  1    -19.69618470    -1.49501798    -0.85540401    -0.28936737    -0.11337363
        -0.08888748    -0.02851587     0.03494534

  2     -0.98988202    -0.21309420    -0.09136852    -0.02206060     0.19873517
         0.24362635

  3     -0.74252075    -0.11373512     0.05385000     0.54474309     0.78328425
         1.46119392

  4      0.00910668     0.59100058     1.37070118     2.83915367

    E(LUMO) :    -0.28936737 au (symmetry 1)
  - E(HOMO) :    -0.85540401 au (symmetry 1)
  ------------------------------------------
    gap     :     0.56603663 au

and E(SOMO) :    -0.74252075 au (symmetry 3)

 NOTE: MOLECULAR ORBITALS ARE NOT CANONICAL HARTREE-FOCK ORBITALS

 Largest off-diagonal Fock matrix element is  3.40D-02

 >>> Writing SIRIFC interface file <<<

 >>>> CPU and wall time for SCF :       8.488       9.539


                       .-----------------------------------.
                       | >>> Final results from SIRIUS <<< |
                       `-----------------------------------'


@    Spin multiplicity:           2
@    Spatial symmetry:            3
@    Total charge of molecule:    1

@    Final DFT energy:            -75.940797254453                 
@    Nuclear repulsion:             9.055287756882
@    Electronic energy:           -84.996085011335

@    Final gradient norm:           0.000000000009

 
     Date and time (Linux)  : Sun Sep  8 20:55:04 2013
     Host name              : lpqlx131.ups-tlse.fr                    

 (Only coefficients >0.0100 are printed.)

 Molecular orbitals for symmetry species  1
 ------------------------------------------

    Orbital         1        2        3        4        5
   1 O   :1s     1.0039   0.0043  -0.0029  -0.0252   0.0030
   2 O   :1s     0.0192   0.9423  -0.3400  -0.4427  -0.0788
   3 O   :1s    -0.0255  -0.1614  -0.1235  -0.2072  -0.2061
   4 O   :1s    -0.0100   0.0757  -0.0273   0.0589  -0.6410
   5 O   :2py    0.0027   0.1756   0.8925  -0.3743   0.3568
   6 O   :2py   -0.0042  -0.0823  -0.1188  -0.0138   0.0211
   7 O   :2py   -0.0015   0.0170   0.0202   0.0150  -1.0080
   8 O   :3d0   -0.0003  -0.0055  -0.0121  -0.0051  -0.0038
   9 O   :3d2+   0.0002   0.0004  -0.0144   0.0090  -0.0031
  10 O   :3d0    0.0005   0.0196   0.0026  -0.0234   0.0290
  11 O   :3d2+  -0.0004  -0.0046  -0.0261   0.0162   0.0073
  12 H   :1s     0.0013   0.3395   0.3394   0.3219  -0.0328
  13 H   :1s     0.0074  -0.2249  -0.1453   0.2559   0.3411
  14 H   :1s     0.0007  -0.0027   0.0014   0.1485   0.3471
  15 H   :2px    0.0005  -0.0385  -0.0300   0.0328  -0.0092
  16 H   :2py    0.0004  -0.0222   0.0002   0.0201  -0.0229
  17 H   :2px   -0.0026   0.0111  -0.0048   0.0523   0.0218
  18 H   :2py   -0.0024   0.0127   0.0045   0.0645  -0.1559

 Molecular orbitals for symmetry species  2
 ------------------------------------------

    Orbital         1        2        3
   1 O   :2px    0.8314  -0.5910  -0.1942
   2 O   :2px   -0.2185  -0.0299  -0.0228
   3 O   :2px    0.0125  -0.1087  -0.5174
   4 O   :3d2-   0.0274   0.0160   0.0279
   5 O   :3d2-  -0.0396   0.0499   0.0656
   6 H   :1s     0.5840   0.3911   0.4165
   7 H   :1s    -0.2503   0.4619   0.4056
   8 H   :1s    -0.0003   0.6063  -1.5049
   9 H   :2px   -0.0271   0.0259  -0.0014
  10 H   :2py   -0.0357   0.0343   0.0219
  11 H   :2px   -0.0094   0.1034   0.0549
  12 H   :2py   -0.0028   0.1290   0.2561

 Molecular orbitals for symmetry species  3
 ------------------------------------------

    Orbital         1        2        3
   1 O   :2pz    1.0491   0.3597  -0.1610
   2 O   :2pz   -0.0835   0.0776  -0.3330
   3 O   :2pz    0.0186  -0.9541  -1.4454
   4 O   :3d1-   0.0173   0.0062   0.0238
   5 O   :3d1-   0.0273  -0.0251   0.0740
   6 H   :2pz    0.0200  -0.0142   0.0251
   7 H   :2pz   -0.0034  -0.0988   1.0845

 Molecular orbitals for symmetry species  4
 ------------------------------------------

    Orbital         1        2
   1 O   :3d1+  -0.0357   0.0257
   2 O   :3d1+  -0.0246   1.1926
   3 H   :2pz   -0.0334   0.0503
   4 H   :2pz   -1.0101  -0.8640



 >>>> Total CPU  time used in SIRIUS :      8.49 seconds
 >>>> Total wall time used in SIRIUS :      9.54 seconds

 
     Date and time (Linux)  : Sun Sep  8 20:55:04 2013
     Host name              : lpqlx131.ups-tlse.fr                    


                     .---------------------------------------.
                     | End of Wave Function Section (SIRIUS) |
                     `---------------------------------------'



                 .------------------------------------------------.
                 | Starting in Dynamic Property Section (RESPONS) |
                 `------------------------------------------------'


 ------------------------------------------------------------------------------
  RESPONSE  -  an MCSCF, MC-srDFT, DFT, and SOPPA response property program
 ------------------------------------------------------------------------------


 <<<<<<<<<< OUTPUT FROM RESPONSE INPUT PROCESSING >>>>>>>>>>




 Linear Response calculation
 ---------------------------

 Print level                                    : IPRLR  =   2
 Maximum number of iterations                   : MAXITL =  60
 Threshold for relative convergence             : THCLR  = 1.000D-07
 Maximum iterations in optimal orbital algorithm: MAXITO =   5

  1 B-frequencies  0.000000D+00

    1 second order properties calculated with symmetry no.    1 and labels:

          YDIPLEN 

    1 second order properties calculated with symmetry no.    2 and labels:

          XDIPLEN 

    1 second order properties calculated with symmetry no.    3 and labels:

          ZDIPLEN 


 open shell SCF energy:      -75.940797254452534
 -- inactive part     :      -84.954087174110953
 --   active part     :       -0.041997837223616
 -- nuclear repulsion :        9.055287756882032


                    ******************************************
                    *** High-spin DFT response calculation ***
                    ******************************************



 >>>>>>>>>> Linear response calculation
 >>>>>>>>>> Symmetry of excitation/property operator(s)    1

 Number of excitations of this symmetry            0
 Number of response properties of this symmetry    1
 Number of C6/C8 properties of this symmetry       0


 Perturbation symmetry.     KSYMOP:       1
 Perturbation spin symmetry.TRPLET:       F
 Orbital variables.         KZWOPT:      62
 Configuration variables.   KZCONF:       0
 Total number of variables. KZVAR :      62


 RSPLR -- linear response calculation for symmetry  1
 RSPLR -- operator label : YDIPLEN 
 RSPLR -- operator spin  :   0
 RSPLR -- frequencies :   0.000000
 FREQ 2    0.0000000000000000     



 <<<  SOLVING SETS OF LINEAR EQUATIONS FOR LINEAR RESPONSE PROPERTIES >>>

 Operator symmetry =  1; triplet =   F


 *** THE REQUESTED    1 SOLUTION VECTORS CONVERGED

 Convergence of RSP solution vectors, threshold = 1.00D-07
 ---------------------------------------------------------------
 (dimension of paired reduced space:   16)
 RSP solution vector no.    1; norm of residual   1.38D-08

 *** RSPCTL MICROITERATIONS CONVERGED


           Final output of second order properties from linear response
           ------------------------------------------------------------


@ Spin symmetry of operators: singlet

 Note that minus the linear response function: - << A; B >>(omega) is printed.
 The results are of quadratic accuracy using Sellers formula.

@ FREQUENCY INDEPENDENT SECOND ORDER PROPERTIES

@ -<< YDIPLEN  ; YDIPLEN  >> =  5.082786933817D+00


 Time used in linear response calculation is      5.22 CPU seconds for symmetry 1


 >>>>>>>>>> Linear response calculation
 >>>>>>>>>> Symmetry of excitation/property operator(s)    2

 Number of excitations of this symmetry            0
 Number of response properties of this symmetry    1
 Number of C6/C8 properties of this symmetry       0


 Perturbation symmetry.     KSYMOP:       2
 Perturbation spin symmetry.TRPLET:       F
 Orbital variables.         KZWOPT:      52
 Configuration variables.   KZCONF:       0
 Total number of variables. KZVAR :      52


 RSPLR -- linear response calculation for symmetry  2
 RSPLR -- operator label : XDIPLEN 
 RSPLR -- operator spin  :   0
 RSPLR -- frequencies :   0.000000
 FREQ 2    0.0000000000000000     



 <<<  SOLVING SETS OF LINEAR EQUATIONS FOR LINEAR RESPONSE PROPERTIES >>>

 Operator symmetry =  2; triplet =   F


 *** THE REQUESTED    1 SOLUTION VECTORS CONVERGED

 Convergence of RSP solution vectors, threshold = 1.00D-07
 ---------------------------------------------------------------
 (dimension of paired reduced space:   14)
 RSP solution vector no.    1; norm of residual   5.88D-09

 *** RSPCTL MICROITERATIONS CONVERGED


           Final output of second order properties from linear response
           ------------------------------------------------------------


@ Spin symmetry of operators: singlet

 Note that minus the linear response function: - << A; B >>(omega) is printed.
 The results are of quadratic accuracy using Sellers formula.

@ FREQUENCY INDEPENDENT SECOND ORDER PROPERTIES

@ -<< XDIPLEN  ; XDIPLEN  >> =  5.956559483399D+00


 Time used in linear response calculation is      4.50 CPU seconds for symmetry 2


 >>>>>>>>>> Linear response calculation
 >>>>>>>>>> Symmetry of excitation/property operator(s)    3

 Number of excitations of this symmetry            0
 Number of response properties of this symmetry    1
 Number of C6/C8 properties of this symmetry       0


 Perturbation symmetry.     KSYMOP:       3
 Perturbation spin symmetry.TRPLET:       F
 Orbital variables.         KZWOPT:      40
 Configuration variables.   KZCONF:       0
 Total number of variables. KZVAR :      40


 RSPLR -- linear response calculation for symmetry  3
 RSPLR -- operator label : ZDIPLEN 
 RSPLR -- operator spin  :   0
 RSPLR -- frequencies :   0.000000
 FREQ 2    0.0000000000000000     



 <<<  SOLVING SETS OF LINEAR EQUATIONS FOR LINEAR RESPONSE PROPERTIES >>>

 Operator symmetry =  3; triplet =   F


 *** THE REQUESTED    1 SOLUTION VECTORS CONVERGED

 Convergence of RSP solution vectors, threshold = 1.00D-07
 ---------------------------------------------------------------
 (dimension of paired reduced space:   16)
 RSP solution vector no.    1; norm of residual   7.93D-08

 *** RSPCTL MICROITERATIONS CONVERGED


           Final output of second order properties from linear response
           ------------------------------------------------------------


@ Spin symmetry of operators: singlet

 Note that minus the linear response function: - << A; B >>(omega) is printed.
 The results are of quadratic accuracy using Sellers formula.

@ FREQUENCY INDEPENDENT SECOND ORDER PROPERTIES

@ -<< ZDIPLEN  ; ZDIPLEN  >> =  4.123394800879D+00


 Time used in linear response calculation is      4.91 CPU seconds for symmetry 3

 >>>> Total CPU  time used in RESPONSE:  14.63 seconds
 >>>> Total wall time used in RESPONSE:  15.20 seconds


                   .-------------------------------------------.
                   | End of Dynamic Property Section (RESPONS) |
                   `-------------------------------------------'

 >>>> Total CPU  time used in DALTON:  23.14 seconds
 >>>> Total wall time used in DALTON:  24.76 seconds

 
     Date and time (Linux)  : Sun Sep  8 20:55:19 2013
     Host name              : lpqlx131.ups-tlse.fr                    
