

     ************************************************************************
     *************** Dalton - An Electronic Structure Program ***************
     ************************************************************************

    This is output from DALTON release Dalton2017.alpha (2017)
         ( Web site: http://daltonprogram.org )

   ----------------------------------------------------------------------------

    NOTE:
     
    Dalton is an experimental code for the evaluation of molecular
    properties using (MC)SCF, DFT, CI, and CC wave functions.
    The authors accept no responsibility for the performance of
    the code or for the correctness of the results.
     
    The code (in whole or part) is provided under a licence and
    is not to be reproduced for further distribution without
    the written permission of the authors or their representatives.
     
    See the home page "http://daltonprogram.org" for further information.
     
    If results obtained with this code are published,
    the appropriate citations would be both of:
     
       K. Aidas, C. Angeli, K. L. Bak, V. Bakken, R. Bast,
       L. Boman, O. Christiansen, R. Cimiraglia, S. Coriani,
       P. Dahle, E. K. Dalskov, U. Ekstroem,
       T. Enevoldsen, J. J. Eriksen, P. Ettenhuber, B. Fernandez,
       L. Ferrighi, H. Fliegl, L. Frediani, K. Hald, A. Halkier,
       C. Haettig, H. Heiberg, T. Helgaker, A. C. Hennum,
       H. Hettema, E. Hjertenaes, S. Hoest, I.-M. Hoeyvik,
       M. F. Iozzi, B. Jansik, H. J. Aa. Jensen, D. Jonsson,
       P. Joergensen, J. Kauczor, S. Kirpekar,
       T. Kjaergaard, W. Klopper, S. Knecht, R. Kobayashi, H. Koch,
       J. Kongsted, A. Krapp, K. Kristensen, A. Ligabue,
       O. B. Lutnaes, J. I. Melo, K. V. Mikkelsen, R. H. Myhre,
       C. Neiss, C. B. Nielsen, P. Norman, J. Olsen,
       J. M. H. Olsen, A. Osted, M. J. Packer, F. Pawlowski,
       T. B. Pedersen, P. F. Provasi, S. Reine, Z. Rinkevicius,
       T. A. Ruden, K. Ruud, V. Rybkin, P. Salek, C. C. M. Samson,
       A. Sanchez de Meras, T. Saue, S. P. A. Sauer,
       B. Schimmelpfennig, K. Sneskov, A. H. Steindal,
       K. O. Sylvester-Hvid, P. R. Taylor, A. M. Teale,
       E. I. Tellgren, D. P. Tew, A. J. Thorvaldsen, L. Thoegersen,
       O. Vahtras, M. A. Watson, D. J. D. Wilson, M. Ziolkowski
       and H. Agren,
       "The Dalton quantum chemistry program system",
       WIREs Comput. Mol. Sci. 2014, 4:269–284 (doi: 10.1002/wcms.1172)
     
    and
     
       Dalton, a Molecular Electronic Structure Program,
       Release Dalton2017.alpha (2017), see http://daltonprogram.org
   ----------------------------------------------------------------------------

    Authors in alphabetical order (major contribution(s) in parenthesis):

  Kestutis Aidas,           Vilnius University,           Lithuania   (QM/MM)
  Celestino Angeli,         University of Ferrara,        Italy       (NEVPT2)
  Keld L. Bak,              UNI-C,                        Denmark     (AOSOPPA, non-adiabatic coupling, magnetic properties)
  Vebjoern Bakken,          University of Oslo,           Norway      (DALTON; geometry optimizer, symmetry detection)
  Radovan Bast,             UiT The Arctic U. of Norway,  Norway      (DALTON installation and execution frameworks)
  Pablo Baudin,             University of Valencia,       Spain       (Cholesky excitation energies)
  Linus Boman,              NTNU,                         Norway      (Cholesky decomposition and subsystems)
  Ove Christiansen,         Aarhus University,            Denmark     (CC module)
  Renzo Cimiraglia,         University of Ferrara,        Italy       (NEVPT2)
  Sonia Coriani,            University of Trieste,        Italy       (CC module, MCD in RESPONS)
  Janusz Cukras,            University of Trieste,        Italy       (MChD in RESPONS)
  Paal Dahle,               University of Oslo,           Norway      (Parallelization)
  Erik K. Dalskov,          UNI-C,                        Denmark     (SOPPA)
  Thomas Enevoldsen,        Univ. of Southern Denmark,    Denmark     (SOPPA)
  Janus J. Eriksen,         Aarhus University,            Denmark     (Polarizable embedding model, TDA)
  Rasmus Faber,             University of Copenhagen,     Denmark     (Vib.avg. NMR with SOPPA, parallel AO-SOPPA)
  Berta Fernandez,          U. of Santiago de Compostela, Spain       (doublet spin, ESR in RESPONS)
  Lara Ferrighi,            Aarhus University,            Denmark     (PCM Cubic response)
  Heike Fliegl,             University of Oslo,           Norway      (CCSD(R12))
  Luca Frediani,            UiT The Arctic U. of Norway,  Norway      (PCM)
  Bin Gao,                  UiT The Arctic U. of Norway,  Norway      (Gen1Int library)
  Christof Haettig,         Ruhr-University Bochum,       Germany     (CC module)
  Kasper Hald,              Aarhus University,            Denmark     (CC module)
  Asger Halkier,            Aarhus University,            Denmark     (CC module)
  Frederik Beyer Hansen,    University of Copenhagen,     Denmark     (Parallel AO-SOPPA)
  Erik D. Hedegaard,        Univ. of Southern Denmark,    Denmark     (Polarizable embedding model, QM/MM)
  Hanne Heiberg,            University of Oslo,           Norway      (geometry analysis, selected one-electron integrals)
  Trygve Helgaker,          University of Oslo,           Norway      (DALTON; ABACUS, ERI, DFT modules, London, and much more)
  Alf Christian Hennum,     University of Oslo,           Norway      (Parity violation)
  Hinne Hettema,            University of Auckland,       New Zealand (quadratic response in RESPONS; SIRIUS supersymmetry)
  Eirik Hjertenaes,         NTNU,                         Norway      (Cholesky decomposition)
  Pi A. B. Haase,           University of Copenhagen,     Denmark     (Triplet AO-SOPPA)
  Maria Francesca Iozzi,    University of Oslo,           Norway      (RPA)
  Brano Jansik              Technical Univ. of Ostrava    Czech Rep.  (DFT cubic response)
  Hans Joergen Aa. Jensen,  Univ. of Southern Denmark,    Denmark     (DALTON; SIRIUS, RESPONS, ABACUS modules, London, and much more)
  Dan Jonsson,              UiT The Arctic U. of Norway,  Norway      (cubic response in RESPONS module)
  Poul Joergensen,          Aarhus University,            Denmark     (RESPONS, ABACUS, and CC modules)
  Maciej Kaminski,          University of Warsaw,         Poland      (CPPh in RESPONS)
  Joanna Kauczor,           Linkoeping University,        Sweden      (Complex polarization propagator (CPP) module)
  Sheela Kirpekar,          Univ. of Southern Denmark,    Denmark     (Mass-velocity & Darwin integrals)
  Wim Klopper,              KIT Karlsruhe,                Germany     (R12 code in CC, SIRIUS, and ABACUS modules)
  Stefan Knecht,            ETH Zurich,                   Switzerland (Parallel CI and MCSCF)
  Rika Kobayashi,           Australian National Univ.,    Australia   (DIIS in CC, London in MCSCF)
  Henrik Koch,              NTNU,                         Norway      (CC module, Cholesky decomposition)
  Jacob Kongsted,           Univ. of Southern Denmark,    Denmark     (Polarizable embedding model, QM/MM)
  Andrea Ligabue,           University of Modena,         Italy       (CTOCD, AOSOPPA)
  Nanna H. List             Univ. of Southern Denmark,    Denmark     (Polarizable embedding model)
  Ola B. Lutnaes,           University of Oslo,           Norway      (DFT Hessian)
  Juan I. Melo,             University of Buenos Aires,   Argentina   (LRESC, Relativistic Effects on NMR Shieldings)
  Kurt V. Mikkelsen,        University of Copenhagen,     Denmark     (MC-SCRF and QM/MM)
  Rolf H. Myhre,            NTNU,                         Norway      (Cholesky, subsystems and ECC2)
  Christian Neiss,          Univ. Erlangen-Nuernberg,     Germany     (CCSD(R12))
  Christian B. Nielsen,     University of Copenhagen,     Denmark     (QM/MM)
  Patrick Norman,           Linkoeping University,        Sweden      (Cubic response and complex frequency response in RESPONS)
  Jeppe Olsen,              Aarhus University,            Denmark     (SIRIUS CI/density modules)
  Jogvan Magnus H. Olsen,   Univ. of Southern Denmark,    Denmark     (Polarizable embedding model, QM/MM)
  Anders Osted,             Copenhagen University,        Denmark     (QM/MM)
  Martin J. Packer,         University of Sheffield,      UK          (SOPPA)
  Filip Pawlowski,          Kazimierz Wielki University,  Poland      (CC3)
  Morten N. Pedersen,       Univ. of Southern Denmark,    Denmark     (Polarizable embedding model)
  Thomas B. Pedersen,       University of Oslo,           Norway      (Cholesky decomposition)
  Patricio F. Provasi,      University of Northeastern,   Argentina   (Analysis of coupling constants in localized orbitals)
  Zilvinas Rinkevicius,     KTH Stockholm,                Sweden      (open-shell DFT, ESR)
  Elias Rudberg,            KTH Stockholm,                Sweden      (DFT grid and basis info)
  Torgeir A. Ruden,         University of Oslo,           Norway      (Numerical derivatives in ABACUS)
  Kenneth Ruud,             UiT The Arctic U. of Norway,  Norway      (DALTON; ABACUS magnetic properties and much more)
  Pawel Salek,              KTH Stockholm,                Sweden      (DALTON; DFT code)
  Claire C. M. Samson       University of Karlsruhe       Germany     (Boys localization, r12 integrals in ERI)
  Alfredo Sanchez de Meras, University of Valencia,       Spain       (CC module, Cholesky decomposition)
  Trond Saue,               Paul Sabatier University,     France      (direct Fock matrix construction)
  Stephan P. A. Sauer,      University of Copenhagen,     Denmark     (SOPPA(CCSD), SOPPA prop., AOSOPPA, vibrational g-factors)
  Bernd Schimmelpfennig,    Forschungszentrum Karlsruhe,  Germany     (AMFI module)
  Kristian Sneskov,         Aarhus University,            Denmark     (Polarizable embedding model, QM/MM)
  Arnfinn H. Steindal,      UiT The Arctic U. of Norway,  Norway      (parallel QM/MM, Polarizable embedding model)
  Casper Steinmann,         Univ. of Southern Denmark,    Denmark     (QFIT, Polarizable embedding model)
  K. O. Sylvester-Hvid,     University of Copenhagen,     Denmark     (MC-SCRF)
  Peter R. Taylor,          VLSCI/Univ. of Melbourne,     Australia   (Symmetry handling ABACUS, integral transformation)
  Andrew M. Teale,          University of Nottingham,     England     (DFT-AC, DFT-D)
  David P. Tew,             University of Bristol,        England     (CCSD(R12))
  Olav Vahtras,             KTH Stockholm,                Sweden      (triplet response, spin-orbit, ESR, TDDFT, open-shell DFT)
  David J. Wilson,          La Trobe University,          Australia   (DFT Hessian and DFT magnetizabilities)
  Hans Agren,               KTH Stockholm,                Sweden      (SIRIUS module, RESPONS, MC-SCRF solvation model)
 --------------------------------------------------------------------------------

     Date and time (Linux)  : Thu Mar 22 14:59:08 2018
     Host name              : adm-101499                              

 * Work memory size             :    64000000 =  488.28 megabytes.

 * Directories for basis set searches:
   1) /home/NAT-SDU/dalibor/dalton/dalton/DALTON/test/cc2mm_spc_exci
   2) /home/NAT-SDU/dalibor/dalton/dalton/build/basis


Compilation information
-----------------------

 Who compiled             | dalibor
 Host                     | adm-101499
 System                   | Linux-4.4.0-75-generic
 CMake generator          | Unix Makefiles
 Processor                | x86_64
 64-bit integers          | OFF
 MPI                      | ON
 Fortran compiler         | /usr/bin/mpif90
 Fortran compiler version | GNU Fortran (Ubuntu 5.4.0-6ubuntu1~16.04.9) 5.4.0 
                          | 20160609
 C compiler               | /usr/bin/mpicc
 C compiler version       | gcc (Ubuntu 5.4.0-6ubuntu1~16.04.9) 5.4.0 20160609
 C++ compiler             | /usr/bin/mpicxx
 C++ compiler version     | unknown
 BLAS                     | /usr/lib/libblas.so
 LAPACK                   | /usr/lib/liblapack.so
 Static linking           | OFF
 Last Git revision        | 984eb062da25b587ece56079816e618e1efda2f3
 Git branch               | cc_dalibor
 Configuration time       | 2018-03-22 14:17:13.352905

 * Sequential calculation.


   Content of the .dal input file
 ----------------------------------

**DALTON
.RUN WAVEFUNCTION
*QM3
.QM3
.THRDIP
 1.0D-9
.MAXDIP
 80
**INTEGRALS
.DIPLEN
.NUCPOT
.NELFLD
**WAVE FUNCTIONS
.CC
*SCF INPUT
.THRESH
1.0D-10
*CC INP
.CC2
.FREEZE
 6 0
.THRLEQ
 1.0D-09
.THRENR
 1.0D-09
.MAX IT
 150
.MAXRED
 250
.MXLRV
 200
*CCSLV
.CCMM
.ETOLSL
 1.0D-08
.TTOLSL
 1.0D-08
.LTOLSL
 1.0D-08
.MXSLIT
 200
*CCFOP
.DIPMOM
.NONREL
*CCEXCI
.NCCEXCI
 4
*CCLRSD
.DIPOLE
**END OF


   Content of the .mol file
 ----------------------------

ATOMBASIS
The Alanine zwitter ion micro solvated by 9 water molecules:
------------------------------------------------------------
    6    0         1 1.00D-15
        8.0   2    Bas=STO-3G
O         -0.535052   -1.049239    1.439280 0 1
O         -1.690722    0.868759    1.230476 0 2
        7.0   1    Bas=STO-3G
N          0.979949    0.887748   -0.447468 0 3
        6.0   3    Bas=STO-3G
C          0.716909    0.948281    1.040486 0 4
C         -0.622273    0.202228    1.279580 0 5
C          0.727240    2.396469    1.508740 0 6
        1.0   7    Bas=STO-3G
H          1.523271    0.378290    1.507999 0 7
H         -0.053285    2.973117    1.003943 0 8
H          0.537206    2.439982    2.585183 0 9
H          1.700364    2.861447    1.316727 0 10
H          0.849881   -0.097082   -0.776576 0 11
H          1.988137    1.127307   -0.664389 0 12
H          0.333048    1.516821   -0.980800 0 13
   -0.8340    9    Bas=MM
O        -1.770350   -2.391881   -1.595783 1 1
O        -3.109854    2.454522   -0.538636 2 1
O        -0.775857    2.529871   -1.917205 3 1
O        -3.437579   -0.384443   -0.418053 4 1
O         0.755009   -1.889071   -0.816915 5 1
O         3.456239   -1.758465   -1.038230 6 1
O        -2.668612   -2.685616    1.028629 7 1
O         3.670963    1.117386   -0.977135 8 1
O         3.884408   -0.356039    1.305153 9 1
    0.4170   18    Bas=MM
H        -2.044856   -2.852711   -0.773158 1 2
H        -2.249438   -1.541978   -1.481445 1 3
H        -2.612599    2.181714    0.263113 2 2
H        -3.569730    1.622300   -0.766070 2 3
H        -1.686600    2.504299   -1.513508 3 2
H        -0.527321    3.465821   -1.903363 3 3
H        -2.837130   -0.031695    0.289116 4 2
H        -3.800875   -1.181581    0.008998 4 3
H         0.488698   -1.855071    0.131375 5 2
H        -0.101507   -2.132535   -1.275101 5 3
H         2.493337   -1.986469   -1.060704 6 2
H         3.929366   -2.537608   -1.366655 6 3
H        -1.937918   -2.065641    1.304088 7 2
H        -2.648266   -3.405036    1.677042 7 3
H         3.988723    0.875445   -0.076166 8 2
H         3.763338    0.259400   -1.437031 8 3
H         4.626413   -0.576312    1.888538 9 2
H         3.828102   -1.084600    0.645628 9 3


       *******************************************************************
       *********** Output from DALTON general input processing ***********
       *******************************************************************

 --------------------------------------------------------------------------------
   Overall default print level:    0
   Print level for DALTON.STAT:    1

    HERMIT 1- and 2-electron integral sections will be executed
    "Old" integral transformation used (limited to max 255 basis functions)
    Wave function sections will be executed (SIRIUS module)
 --------------------------------------------------------------------------------


 Changes of defaults for *QM3   :
 --------------------------------

 +------------------+
 |  WORD: | CHANGE: |
 +------------------+
 |    QM3 |       T |
 |  PRINT |       0 |
 +------------------+
  Settings for determination of induced dipoles:
  Iterative Method is used
 +------------------+


    *************************************************************************
    *************** Output from MM potential input processing ***************
    *************************************************************************



 ------------------------------------------------------------------------
 | QM-sys type: | Systems:    | Model:  | Electric properties:          |
 ------------------------------------------------------------------------
 |          0   | [   0;   0] | SPC     |     No classical polarization |
 ------------------------------------------------------------------------


 ------------------------------------------------------------------------
 | MM-sys type: | Systems:    | Model:  | Electric properties:          |
 ------------------------------------------------------------------------
 |          1   | [   1;   9] | SPC     | No polarization in this model!|
 ------------------------------------------------------------------------




   ****************************************************************************
   *************** Output of molecule and basis set information ***************
   ****************************************************************************


    The two title cards from your ".mol" input:
    ------------------------------------------------------------------------
 1: The Alanine zwitter ion micro solvated by 9 water molecules:            
 2: ------------------------------------------------------------            
    ------------------------------------------------------------------------



@ INFO - deprecated old .mol fixed format input has been detected:
    6    0         1 1.00D-15                                                   
@ INFO - this input format may not be supported in future releases.




  Coordinates are entered in Angstrom and converted to atomic units.
          - Conversion factor : 1 bohr = 0.52917721 A

  Atomic type no.    1
  --------------------
  Nuclear charge:   8.00000
  Number of symmetry independent centers:    2
  Number of basis sets to read;    2
  The basis set is "STO-3G" from the basis set library.
  Basis set file used for this atomic type with Z =   8 :
     "/home/NAT-SDU/dalibor/dalton/dalton/build/basis/STO-3G"

  Atomic type no.    2
  --------------------
  Nuclear charge:   7.00000
  Number of symmetry independent centers:    1
  Number of basis sets to read;    2
  The basis set is "STO-3G" from the basis set library.
  Basis set file used for this atomic type with Z =   7 :
     "/home/NAT-SDU/dalibor/dalton/dalton/build/basis/STO-3G"

  Atomic type no.    3
  --------------------
  Nuclear charge:   6.00000
  Number of symmetry independent centers:    3
  Number of basis sets to read;    2
  The basis set is "STO-3G" from the basis set library.
  Basis set file used for this atomic type with Z =   6 :
     "/home/NAT-SDU/dalibor/dalton/dalton/build/basis/STO-3G"

  Atomic type no.    4
  --------------------
  Nuclear charge:   1.00000
  Number of symmetry independent centers:    7
  Number of basis sets to read;    2
  The basis set is "STO-3G" from the basis set library.
  Basis set file used for this atomic type with Z =   1 :
     "/home/NAT-SDU/dalibor/dalton/dalton/build/basis/STO-3G"

  Atomic type no.    5
  --------------------
  Nuclear charge:  -0.83400
  Number of symmetry independent centers:    9
  Number of basis sets to read;    2
  This is an MM atom without basis functions.

  Atomic type no.    6
  --------------------
  Nuclear charge:   0.41700
  Number of symmetry independent centers:   18
  Number of basis sets to read;    2
  This is an MM atom without basis functions.


                         SYMGRP: Point group information
                         -------------------------------

@    Point group: C1 


                                 Isotopic Masses
                                 ---------------

                           O          15.994915
                           O          15.994915
                           N          14.003074
                           C          12.000000
                           C          12.000000
                           C          12.000000
                           H           1.007825
                           H           1.007825
                           H           1.007825
                           H           1.007825
                           H           1.007825
                           H           1.007825
                           H           1.007825

                       Total mass:    89.047679 amu
                       Natural abundance:  95.816 %

 Center-of-mass coordinates (a.u.):   -0.107886    1.345352    1.833657


  Atoms and basis sets
  --------------------

  Number of atom types :    7
  Total number of atoms:   40

  label    atoms   charge   prim   cont     basis
  ----------------------------------------------------------------------
  O           2    8.0000    15     5      [6s3p|2s1p]                                        
  N           1    7.0000    15     5      [6s3p|2s1p]                                        
  C           3    6.0000    15     5      [6s3p|2s1p]                                        
  H           7    1.0000     3     1      [3s|1s]                                            
  O           9   -0.8340     0     0      Point Charge                                       
  H          18    0.4170     0     0      Point Charge                                       
  H           0    0.4170     0     0      Point Charge                                       
  ----------------------------------------------------------------------
  total:     40   48.0000   111    37
  ----------------------------------------------------------------------

  Threshold for neglecting AO integrals:  1.00D-15

  Max    interatomic separation is    4.5062 Angstrom (    8.5154 Bohr)
  between atoms   10 and    1, "H     " and "O     ".

  Min HX interatomic separation is    1.0465 Angstrom (    1.9776 Bohr)

  Min YX interatomic separation is    1.2603 Angstrom (    2.3815 Bohr)

  Max QM+MM interatomic separation is    8.8914 Angstrom (   16.8024 Bohr)
  between the QM+MM centers   39 and   26, "H     " and "H     ".




 Principal moments of inertia (u*A**2) and principal axes
 --------------------------------------------------------

   IA     102.090783          0.675989    0.690219   -0.258140
   IB     171.740182          0.486276   -0.681014   -0.547499
   IC     213.697975          0.553691   -0.244576    0.795995


 Rotational constants
 --------------------

               A                   B                   C

           4950.2902           2942.6952           2364.9218 MHz
            0.165124            0.098158            0.078885 cm-1


@  Nuclear repulsion energy :  247.309428835122 Hartree

All MM models are SPC


    **************************************************************************
    ***************** The MM/MM classical interaction energy *****************
    **************************************************************************


 ------------------------------------------------------------------------
 |  Eelec = Sum_n,s[ (Q_n*Q_s)/|R_n - R_s| ]        |       -0.08417171 |
 |  Epol  = - 1/2*Sum_a[ Pind_a*E^site_a ]          |        0.00000000 |
 |  Evdw  = Sum_a[ A_ma/|R_ma|^12 - B_ma/|R_ma|^6 ] |        0.02847728 |
 ------------------------------------------------------------------------
 |  E(MM/MM) = Eelec + Epol + Evdw                  |       -0.05569443 |
 ------------------------------------------------------------------------




     ************************************************************************
     *************** The "QM"/MM classical interaction energy ***************
     ************************************************************************


 ------------------------------------------------------------------------
 |  Eelec = Sum_n,s[ (Q_n*Q_s)/|R_n - R_s| ]        |        0.00000000 |
 |  Epol  = - 1/2*Sum_a[ Pind_a*E^(QMclassic)_a ]   |        0.00000000 |
 |  Evdw  = Sum_a[ A_ma/|R_ma|^12 - B_ma/|R_ma|^6 ] |       -0.00143016 |
 ------------------------------------------------------------------------
 |  E("QM"/MM) = Eelec + Epol + Evdw                |       -0.00143016 |
 ------------------------------------------------------------------------




                     .---------------------------------------.
                     | Starting in Integral Section (HERMIT) |
                     `---------------------------------------'



 ***************************************************************************************
 ****************** Output from **INTEGRALS input processing (HERMIT) ******************
 ***************************************************************************************



    *************************************************************************
    ****************** Output from HERMIT input processing ******************
    *************************************************************************


 Default print level:        1

 * Nuclear model: Point charge

 Calculation of one- and two-electron Hamiltonian integrals.

 The following one-electron property integrals are calculated as requested:
          - overlap integrals
          - dipole length integrals
          - Electric field at the nuclei
          - Potential energy at the nuclei

 Center of mass  (bohr):     -0.107886085051      1.345352330632      1.833657006313
 Operator center (bohr):      0.000000000000      0.000000000000      0.000000000000
 Gauge origin    (bohr):      0.000000000000      0.000000000000      0.000000000000
 Dipole origin   (bohr):      0.000000000000      0.000000000000      0.000000000000


     ************************************************************************
     ************************** Output from HERINT **************************
     ************************************************************************



                      Nuclear contribution to dipole moments
                      --------------------------------------

                 au               Debye          C m (/(10**-30)

      x      1.63145537         4.14674565        13.83205461
      y     70.39635351       178.92967161       596.84514013
      z     85.39803695       217.06014510       724.03470903



 Threshold for neglecting two-electron integrals:  1.00D-15
 HERMIT - Number of two-electron integrals written:      239888 ( 96.9% )
 HERMIT - Megabytes written:                              2.748

  Time used in TWOINT     is       0.76 seconds
  Total CPU  time used in HERMIT:   0.87 seconds
  Total wall time used in HERMIT:   0.87 seconds


                        .----------------------------------.
                        | End of Integral Section (HERMIT) |
                        `----------------------------------'



                   .--------------------------------------------.
                   | Starting in Wave Function Section (SIRIUS) |
                   `--------------------------------------------'

NCCEXCI for singlet:    4

 *** Output from Huckel module :

     Using EWMO model:          F
     Using EHT  model:          T
     Number of Huckel orbitals each symmetry:   37

 Huckel EHT eigenvalues for symmetry :  1
          -20.704864     -20.698285     -15.708012     -11.393257     -11.379694
          -11.368631      -1.686957      -1.496605      -1.385983      -1.231951
           -0.959413      -0.826910      -0.739899      -0.723673      -0.711065
           -0.627273      -0.625103      -0.604459      -0.591917      -0.580145
           -0.556003      -0.513460      -0.475052      -0.438464      -0.324987
           -0.273652      -0.269575      -0.245607      -0.242315      -0.237904
           -0.223407      -0.210955      -0.204257      -0.202014      -0.196853
           -0.189159      -0.181842

 **********************************************************************
 *SIRIUS* a direct, restricted step, second order MCSCF program       *
 **********************************************************************

 
     Date and time (Linux)  : Thu Mar 22 14:59:09 2018
     Host name              : adm-101499                              

 Title lines from ".mol" input file:
     The Alanine zwitter ion micro solvated by 9 water molecules:            
     ------------------------------------------------------------            

 Print level on unit LUPRI =   2 is   0
 Print level on unit LUW4  =   2 is   5

@    (Integral direct) CC calculation.

@    This is a combination run starting with
@              a restricted, closed shell Hartree-Fock calculation


 Initial molecular orbitals are obtained according to
 ".MOSTART EHT   " input option

@    QM part is embedded in an environment :

@         Model: QM3

     Wave function specification
     ============================

     For the specification of the Coupled Cluster: see later.

@    Wave function type        --- CC ---
@    Number of closed shell electrons          48
@    Number of electrons in active shells       0
@    Total charge of the molecule               0

@    Spin multiplicity and 2 M_S                1         0
@    Total number of symmetries                 1 (point group: C1 )
@    Reference state symmetry                   1 (irrep name : A  )

     Orbital specifications
     ======================
@    Abelian symmetry species          All |    1
@                                          |  A  
                                       --- |  ---
@    Occupied SCF orbitals              24 |   24
@    Secondary orbitals                 13 |   13
@    Total number of orbitals           37 |   37
@    Number of basis functions          37 |   37

     Optimization information
     ========================
@    Number of configurations                 1
@    Number of orbital rotations            312
     ------------------------------------------
@    Total number of variables              313

     Maximum number of Fock   iterations      0
     Maximum number of DIIS   iterations     60
     Maximum number of QC-SCF iterations     60
     Threshold for SCF convergence     1.00D-10


 Changes of defaults for CC:
 ---------------------------


 -Implicit frozen core calculation
 -Excitation energies calculated
 -One-photon absorption strengths will be calculated
 -Oscillator strengths calculated
 -Dipole moment calculated
  


 ***********************************************
 ***** DIIS acceleration of SCF iterations *****
 ***********************************************

 C1-DIIS algorithm; max error vectors =    8

 Iter      Total energy       Solvation energy    Error norm    Delta(E)
 -----------------------------------------------------------------------------

Calculating AOSUPINT
     (Precalculated AO two-electron integrals are transformed to P-supermatrix elements.
      Threshold for discarding integrals :  1.00D-15 )
@  1  -317.720531435       0.00000000000        4.10280D+00   -3.18D+02
      Virial theorem: -V/T =      2.002965
@    MULPOP   O      -1.05; O      -1.04; N       0.53; C       0.53; C       1.00; C       0.35; H      -0.15; H      -0.12; H      -0.11; H      -0.12; 
@             H       0.06; H       0.06; H       0.06; 
   1  Level shift: doubly occupied orbital energies shifted by -2.00D-01
 -----------------------------------------------------------------------------
@  2  -318.486745782       0.00000000000        7.39889D-01   -7.66D-01
      Virial theorem: -V/T =      2.008477
@    MULPOP   O      -0.39; O      -0.38; N      -0.48; C      -0.03; C      -0.05; C      -0.18; H       0.14; H       0.09; H       0.10; H       0.08; 
@             H       0.36; H       0.37; H       0.37; 
   2  Level shift: doubly occupied orbital energies shifted by -5.00D-02
 -----------------------------------------------------------------------------
@  3  -318.528127213       0.00000000000        2.13557D-01   -4.14D-02
      Virial theorem: -V/T =      2.008660
@    MULPOP   O      -0.56; O      -0.54; N      -0.33; C       0.06; C       0.30; C      -0.19; H       0.09; H       0.07; H       0.08; H       0.06; 
@             H       0.31; H       0.32; H       0.33; 
   3  Level shift: doubly occupied orbital energies shifted by -2.50D-02
 -----------------------------------------------------------------------------
@  4  -318.532298902       0.00000000000        5.06100D-02   -4.17D-03
      Virial theorem: -V/T =      2.008568
@    MULPOP   O      -0.51; O      -0.50; N      -0.36; C       0.03; C       0.22; C      -0.18; H       0.10; H       0.07; H       0.08; H       0.06; 
@             H       0.32; H       0.33; H       0.34; 
 -----------------------------------------------------------------------------
@  5  -318.532638741       0.00000000000        1.32672D-02   -3.40D-04
      Virial theorem: -V/T =      2.008424
@    MULPOP   O      -0.52; O      -0.50; N      -0.37; C       0.03; C       0.23; C      -0.18; H       0.10; H       0.07; H       0.08; H       0.06; 
@             H       0.32; H       0.33; H       0.34; 
 -----------------------------------------------------------------------------
@  6  -318.532658706       0.00000000000        4.33199D-03   -2.00D-05
      Virial theorem: -V/T =      2.008443
@    MULPOP   O      -0.52; O      -0.50; N      -0.37; C       0.03; C       0.23; C      -0.18; H       0.10; H       0.07; H       0.08; H       0.06; 
@             H       0.32; H       0.33; H       0.34; 
 -----------------------------------------------------------------------------
@  7  -318.532662065       0.00000000000        1.10974D-03   -3.36D-06
      Virial theorem: -V/T =      2.008437
@    MULPOP   O      -0.52; O      -0.50; N      -0.37; C       0.03; C       0.23; C      -0.18; H       0.10; H       0.07; H       0.08; H       0.06; 
@             H       0.32; H       0.33; H       0.34; 
 -----------------------------------------------------------------------------
@  8  -318.532662270       0.00000000000        3.57631D-04   -2.05D-07
      Virial theorem: -V/T =      2.008436
@    MULPOP   O      -0.52; O      -0.50; N      -0.37; C       0.03; C       0.23; C      -0.18; H       0.10; H       0.07; H       0.08; H       0.06; 
@             H       0.32; H       0.33; H       0.34; 
 -----------------------------------------------------------------------------
@  9  -318.532662300       0.00000000000        1.41450D-04   -2.98D-08
      Virial theorem: -V/T =      2.008436
@    MULPOP   O      -0.52; O      -0.50; N      -0.37; C       0.03; C       0.23; C      -0.18; H       0.10; H       0.07; H       0.08; H       0.06; 
@             H       0.32; H       0.33; H       0.34; 
 -----------------------------------------------------------------------------
@ 10  -318.532662303       0.00000000000        4.53779D-05   -2.85D-09
      Virial theorem: -V/T =      2.008436
@    MULPOP   O      -0.52; O      -0.50; N      -0.37; C       0.03; C       0.23; C      -0.18; H       0.10; H       0.07; H       0.08; H       0.06; 
@             H       0.32; H       0.33; H       0.34; 
 -----------------------------------------------------------------------------
@ 11  -318.532662303       0.00000000000        2.61413D-05   -6.12D-10
      Virial theorem: -V/T =      2.008436
@    MULPOP   O      -0.52; O      -0.50; N      -0.37; C       0.03; C       0.23; C      -0.18; H       0.10; H       0.07; H       0.08; H       0.06; 
@             H       0.32; H       0.33; H       0.34; 
 -----------------------------------------------------------------------------
@ 12  -318.532662304       0.00000000000        4.99365D-06   -2.14D-10
      Virial theorem: -V/T =      2.008436
@    MULPOP   O      -0.52; O      -0.50; N      -0.37; C       0.03; C       0.23; C      -0.18; H       0.10; H       0.07; H       0.08; H       0.06; 
@             H       0.32; H       0.33; H       0.34; 
 -----------------------------------------------------------------------------
@ 13  -318.532662304       0.00000000000        1.48677D-06   -9.66D-12
      Virial theorem: -V/T =      2.008436
@    MULPOP   O      -0.52; O      -0.50; N      -0.37; C       0.03; C       0.23; C      -0.18; H       0.10; H       0.07; H       0.08; H       0.06; 
@             H       0.32; H       0.33; H       0.34; 
 -----------------------------------------------------------------------------
@ 14  -318.532662304       0.00000000000        7.42469D-07    5.68D-13
      Virial theorem: -V/T =      2.008436
@    MULPOP   O      -0.52; O      -0.50; N      -0.37; C       0.03; C       0.23; C      -0.18; H       0.10; H       0.07; H       0.08; H       0.06; 
@             H       0.32; H       0.33; H       0.34; 
 -----------------------------------------------------------------------------
@ 15  -318.532662304       0.00000000000        3.36586D-07   -1.02D-12
      Virial theorem: -V/T =      2.008436
@    MULPOP   O      -0.52; O      -0.50; N      -0.37; C       0.03; C       0.23; C      -0.18; H       0.10; H       0.07; H       0.08; H       0.06; 
@             H       0.32; H       0.33; H       0.34; 
 -----------------------------------------------------------------------------
@ 16  -318.532662304       0.00000000000        7.31246D-08    0.00D+00
      Virial theorem: -V/T =      2.008436
@    MULPOP   O      -0.52; O      -0.50; N      -0.37; C       0.03; C       0.23; C      -0.18; H       0.10; H       0.07; H       0.08; H       0.06; 
@             H       0.32; H       0.33; H       0.34; 
 -----------------------------------------------------------------------------
@ 17  -318.532662304       0.00000000000        2.40098D-08   -4.55D-13
      Virial theorem: -V/T =      2.008436
@    MULPOP   O      -0.52; O      -0.50; N      -0.37; C       0.03; C       0.23; C      -0.18; H       0.10; H       0.07; H       0.08; H       0.06; 
@             H       0.32; H       0.33; H       0.34; 
 -----------------------------------------------------------------------------
@ 18  -318.532662304       0.00000000000        1.06173D-08    1.14D-12
      Virial theorem: -V/T =      2.008436
@    MULPOP   O      -0.52; O      -0.50; N      -0.37; C       0.03; C       0.23; C      -0.18; H       0.10; H       0.07; H       0.08; H       0.06; 
@             H       0.32; H       0.33; H       0.34; 
 -----------------------------------------------------------------------------
@ 19  -318.532662304       0.00000000000        3.89127D-09   -2.27D-13
      Virial theorem: -V/T =      2.008436
@    MULPOP   O      -0.52; O      -0.50; N      -0.37; C       0.03; C       0.23; C      -0.18; H       0.10; H       0.07; H       0.08; H       0.06; 
@             H       0.32; H       0.33; H       0.34; 
 -----------------------------------------------------------------------------
@ 20  -318.532662304       0.00000000000        1.60616D-09    2.27D-13
      Virial theorem: -V/T =      2.008436
@    MULPOP   O      -0.52; O      -0.50; N      -0.37; C       0.03; C       0.23; C      -0.18; H       0.10; H       0.07; H       0.08; H       0.06; 
@             H       0.32; H       0.33; H       0.34; 
 -----------------------------------------------------------------------------
@ 21  -318.532662304       0.00000000000        3.91289D-10   -2.27D-13
      Virial theorem: -V/T =      2.008436
@    MULPOP   O      -0.52; O      -0.50; N      -0.37; C       0.03; C       0.23; C      -0.18; H       0.10; H       0.07; H       0.08; H       0.06; 
@             H       0.32; H       0.33; H       0.34; 
 -----------------------------------------------------------------------------
@ 22  -318.532662304       0.00000000000        1.71267D-10   -4.55D-13
      Virial theorem: -V/T =      2.008436
@    MULPOP   O      -0.52; O      -0.50; N      -0.37; C       0.03; C       0.23; C      -0.18; H       0.10; H       0.07; H       0.08; H       0.06; 
@             H       0.32; H       0.33; H       0.34; 
 -----------------------------------------------------------------------------
@ 23  -318.532662304       0.00000000000        4.04379D-11   -1.14D-12

@ *** DIIS converged in  23 iterations !
@     Converged SCF energy, gradient:   -318.532662303677    4.04D-11
    - total time used in SIRFCK :              0.00 seconds


 *** SCF orbital energy analysis ***
    (incl. solvent contribution)

 Number of electrons :   48
 Orbital occupations :   24

 Sym       Hartree-Fock orbital energies

1 A     -20.03050881   -20.02266842   -15.56354921   -11.10468124   -11.06099478
        -11.05692796    -1.28525953    -1.22824454    -1.11656883    -0.99749686
         -0.84643391    -0.74477095    -0.72920191    -0.64521789    -0.60418246
         -0.53796249    -0.52044325    -0.50391618    -0.46769924    -0.40947223
         -0.40108710    -0.22657531    -0.22349304    -0.16942664     0.38211044
          0.50007273     0.52358392     0.53977027     0.54896987     0.63076056
          0.67133238     0.69361421     0.72259093     0.74751926     0.76403917
          0.95505517     1.10172907

    E(LUMO) :     0.38211044 au (symmetry 1)
  - E(HOMO) :    -0.16942664 au (symmetry 1)
  ------------------------------------------
    gap     :     0.55153708 au

 --- Writing SIRIFC interface file

 CPU and wall time for SCF :       0.072       0.073


                       .-----------------------------------.
                       | --- Final results from SIRIUS --- |
                       `-----------------------------------'


@    Spin multiplicity:           1
@    Spatial symmetry:            1 ( irrep  A   in C1  )
@    Total charge of molecule:    0

     QM/MM "QM3" calculation converged :

        Electrostatic energy:       0.000000000000
        Polarization energy:        0.000000000000
        van der Waals energy:      -0.001430158869
        Total QM/MM energy:         0.000000000000

@    Final HF energy:            -318.532662303677                 
@    Nuclear repulsion:           247.309428835122
@    Electronic energy:          -565.842091138799

@    Final gradient norm:           0.000000000040

 
     Date and time (Linux)  : Thu Mar 22 14:59:09 2018
     Host name              : adm-101499                              

File label for MO orbitals:  22Mar18   FOCKDIIS

 (Only coefficients > 0.0100 are printed.)

 Molecular orbitals for symmetry species 1  (A  )
 ------------------------------------------------

    Orbital         1        2        3        4        5        6        7
   1 O   :1s     0.0025   0.9942  -0.0000  -0.0000   0.0000   0.0002  -0.0381
   2 O   :1s     0.0002   0.0259   0.0001   0.0003  -0.0000  -0.0054   0.1293
   4 O   :2py    0.0001   0.0051   0.0000   0.0001  -0.0000  -0.0019   0.0305
   6 O   :1s     0.9942  -0.0025  -0.0000  -0.0000  -0.0000   0.0002  -0.0374
   7 O   :1s     0.0260   0.0001   0.0001   0.0002   0.0001  -0.0054   0.1272
   8 O   :2px    0.0044  -0.0002   0.0000   0.0001   0.0000  -0.0015   0.0271
   9 O   :2py   -0.0028  -0.0005   0.0000  -0.0000  -0.0000   0.0010  -0.0160
  11 N   :1s    -0.0000  -0.0000   0.9933   0.0005   0.0000   0.0000  -0.2090
  12 N   :1s     0.0000   0.0001   0.0325  -0.0050   0.0002   0.0003   0.7212
  16 C   :1s    -0.0000  -0.0000   0.0005   0.9920   0.0036   0.0045  -0.0789
  17 C   :1s     0.0003   0.0003  -0.0044   0.0362  -0.0057  -0.0054   0.1883
  20 C   :2pz    0.0000   0.0001   0.0037  -0.0006  -0.0013  -0.0006  -0.0626
  21 C   :1s     0.0006   0.0006   0.0000  -0.0034  -0.0068   0.9926  -0.0518
  22 C   :1s    -0.0067  -0.0066   0.0002  -0.0057  -0.0001   0.0318   0.1217
  26 C   :1s    -0.0000   0.0000  -0.0000  -0.0027   0.9919   0.0069  -0.0212
  27 C   :1s     0.0000  -0.0000   0.0002  -0.0059   0.0377   0.0004   0.0517
  29 C   :2py    0.0001   0.0000  -0.0001   0.0040   0.0000   0.0001  -0.0195
  30 C   :2pz    0.0000  -0.0000  -0.0001   0.0014   0.0001  -0.0000  -0.0117
  31 H   :1s    -0.0000  -0.0002   0.0004  -0.0070   0.0001  -0.0001   0.0282
  35 H   :1s     0.0000  -0.0000  -0.0059  -0.0003  -0.0001  -0.0005   0.0992
  36 H   :1s     0.0000   0.0000  -0.0057  -0.0003   0.0000  -0.0001   0.0926
  37 H   :1s    -0.0000  -0.0000  -0.0058  -0.0003  -0.0001  -0.0002   0.0950

    Orbital         8        9       10       11       12       13       14
   1 O   :1s    -0.1371  -0.1691   0.0220   0.0420   0.0128  -0.0168   0.0416
   2 O   :1s     0.4742   0.6029  -0.0824  -0.1684  -0.0535   0.0710  -0.1836
   3 O   :2px   -0.0127   0.0082   0.0159   0.0385   0.0158  -0.0220   0.0658
   4 O   :2py    0.0979   0.0738  -0.0023   0.0196   0.0167  -0.0166   0.0924
   5 O   :2pz   -0.0194  -0.0201   0.0027  -0.0070  -0.0122   0.0130   0.0258
   6 O   :1s    -0.1394   0.1664   0.0358   0.0221   0.0264  -0.0084   0.0405
   7 O   :1s     0.4819  -0.5929  -0.1332  -0.0883  -0.1108   0.0350  -0.1779
   8 O   :2px    0.0842  -0.0708   0.0038   0.0252   0.0388  -0.0157   0.1067
   9 O   :2py   -0.0604   0.0297   0.0213   0.0120   0.0137  -0.0065   0.0194
  10 O   :2pz   -0.0027   0.0089   0.0017  -0.0066  -0.0145   0.0036   0.0346
  11 N   :1s     0.0745   0.0005   0.0553   0.0225  -0.0012  -0.0043   0.0178
  12 N   :1s    -0.2633  -0.0019  -0.2123  -0.0911   0.0055   0.0218  -0.0854
  13 N   :2px   -0.0098   0.0026  -0.0259  -0.0552  -0.5836   0.1142   0.2070
  14 N   :2py   -0.0007  -0.0072   0.0379  -0.1042   0.1610   0.6141   0.1342
  15 N   :2pz    0.0171   0.0005   0.1684   0.2722  -0.1079   0.1292  -0.4777
  16 C   :1s    -0.0083   0.0010  -0.1458  -0.1277   0.0013  -0.0229  -0.0211
  17 C   :1s     0.0258  -0.0030   0.4177   0.4022  -0.0013   0.0783   0.0694
  18 C   :2px   -0.0399   0.0078   0.0090  -0.0075  -0.2064   0.0745  -0.1596
  19 C   :2py   -0.0190  -0.0189   0.0782  -0.1676   0.0230   0.1080  -0.0829
  20 C   :2pz    0.0296   0.0013   0.0428  -0.0405  -0.0405  -0.0625   0.3235
  21 C   :1s    -0.1446  -0.0007  -0.0096  -0.0397  -0.0302   0.0171  -0.0795
  22 C   :1s     0.3548   0.0025   0.0233   0.1125   0.0947  -0.0532   0.2567
  23 C   :2px   -0.0680   0.1366   0.0861   0.1223   0.0707  -0.0446   0.1559
  24 C   :2py   -0.0391  -0.2266   0.0402   0.0729   0.0437  -0.0194   0.0973
  25 C   :2pz    0.0002   0.0242  -0.0070  -0.0341  -0.0402   0.0206   0.0533
  26 C   :1s    -0.0025   0.0087  -0.1669   0.1364   0.0043   0.0402   0.0097
  27 C   :1s     0.0064  -0.0225   0.4627  -0.4086  -0.0123  -0.1274  -0.0324
  28 C   :2px   -0.0042   0.0047   0.0051  -0.0067  -0.0655   0.0264  -0.0780
  29 C   :2py   -0.0031   0.0042  -0.0592  -0.1096   0.0003  -0.0783  -0.1026
  30 C   :2pz    0.0018   0.0020  -0.0230  -0.0219  -0.0251  -0.0935   0.1378
  31 H   :1s     0.0048   0.0081   0.1000   0.1518  -0.1148   0.0066   0.0835
  32 H   :1s     0.0036  -0.0093   0.1093  -0.1509   0.0380  -0.0528  -0.0592
  33 H   :1s     0.0028  -0.0052   0.1094  -0.1387  -0.0125  -0.1060   0.0967
  34 H   :1s    -0.0003  -0.0033   0.1134  -0.1545  -0.0439  -0.0368  -0.1130
  35 H   :1s    -0.0365   0.0051  -0.0761  -0.0089  -0.0220  -0.3924  -0.0326
  36 H   :1s    -0.0405  -0.0003  -0.0580  -0.0864  -0.2922   0.1472   0.1964
  37 H   :1s    -0.0377  -0.0039  -0.0570  -0.1057   0.3051   0.1502   0.1029

    Orbital        15       16       17       18       19       20       21
   1 O   :1s     0.0256   0.0687  -0.0034   0.0044  -0.0643  -0.0163   0.0618
   2 O   :1s    -0.1147  -0.3285   0.0178  -0.0203   0.3269   0.0833  -0.3380
   3 O   :2px    0.0240   0.0153  -0.0039  -0.1454   0.2723   0.0512   0.1618
   4 O   :2py    0.0704   0.2270  -0.0078   0.0225  -0.2911  -0.0168   0.4412
   5 O   :2pz   -0.0322  -0.0509   0.0256   0.0002  -0.0484   0.4428   0.0098
   6 O   :1s     0.0474   0.0402   0.0079   0.0528  -0.0546  -0.0000  -0.0665
   7 O   :1s    -0.2149  -0.1904  -0.0388  -0.2646   0.2756  -0.0053   0.3607
   8 O   :2px    0.1309   0.1031   0.0361   0.1649  -0.0710   0.0865  -0.4666
   9 O   :2py    0.0088  -0.1232   0.0064  -0.1393   0.3582   0.1123   0.0881
  10 O   :2pz   -0.0219  -0.0169   0.0182   0.0202  -0.1180   0.4288   0.0421
  11 N   :1s    -0.0074   0.0001   0.0257  -0.0075   0.0039  -0.0195  -0.0036
  12 N   :1s     0.0385   0.0010  -0.1246   0.0389  -0.0191   0.0983   0.0192
  13 N   :2px    0.2478  -0.0007   0.0349   0.0232   0.0698  -0.0480   0.0096
  14 N   :2py   -0.0062   0.0906  -0.1292  -0.0987   0.0162  -0.0168  -0.0195
  15 N   :2pz    0.2135   0.0253  -0.2712   0.0697  -0.0209   0.1333   0.0254
  16 C   :1s     0.0288   0.0322  -0.0274  -0.0041  -0.0046   0.0115  -0.0012
  17 C   :1s    -0.0930  -0.1153   0.0968   0.0237   0.0158  -0.0406   0.0083
  18 C   :2px   -0.3286  -0.0242  -0.0103  -0.1410  -0.2497  -0.0435  -0.0878
  19 C   :2py    0.0098  -0.2456   0.1854   0.3812  -0.0253  -0.0428   0.1447
  20 C   :2pz   -0.1973  -0.0661   0.1527  -0.0472  -0.0272  -0.0500  -0.0197
  21 C   :1s    -0.0706  -0.0943  -0.0058  -0.0392   0.0527  -0.0011   0.0008
  22 C   :1s     0.2372   0.3272   0.0203   0.1427  -0.1882   0.0008  -0.0009
  23 C   :2px    0.0924   0.0306  -0.0009  -0.1535   0.3140   0.0470   0.2523
  24 C   :2py    0.0762  -0.0535   0.0343   0.0450   0.2113   0.1597  -0.3850
  25 C   :2pz   -0.0669  -0.0564   0.0391  -0.0056  -0.1360   0.5680   0.1163
  26 C   :1s    -0.0071   0.0027  -0.0025  -0.0112   0.0033   0.0089  -0.0136
  27 C   :1s     0.0261  -0.0109   0.0130   0.0454  -0.0106  -0.0343   0.0540
  28 C   :2px   -0.2480   0.3800   0.0956   0.2153   0.2252   0.0478   0.0108
  29 C   :2py    0.1339   0.2809  -0.0914  -0.3656  -0.0020   0.0860  -0.1466
  30 C   :2pz   -0.1227  -0.0051  -0.5289   0.1083   0.0401   0.0138  -0.0219
  31 H   :1s    -0.2979   0.0114   0.0213  -0.2964  -0.1569  -0.0598  -0.1710
  32 H   :1s     0.2477  -0.1165   0.1226  -0.3686  -0.1785  -0.0170  -0.0623
  33 H   :1s    -0.0471  -0.0583  -0.4823   0.0707  -0.0072   0.0026  -0.0016
  34 H   :1s    -0.1020   0.4167   0.1364   0.0355   0.2014   0.0752  -0.0318
  35 H   :1s    -0.0570  -0.0742   0.1348   0.0712  -0.0143  -0.0157   0.0219
  36 H   :1s     0.1521   0.0270   0.0099  -0.0004   0.0701  -0.0440   0.0023
  37 H   :1s    -0.1752   0.0325  -0.0022  -0.1014  -0.0337  -0.0217  -0.0365

    Orbital        22       23       24       25       26       27       28
   1 O   :1s     0.0046   0.0100  -0.0044   0.0011   0.0040  -0.0062  -0.0035
   2 O   :1s    -0.0271  -0.0609   0.0195  -0.0042  -0.0196   0.0314   0.0224
   3 O   :2px    0.7688  -0.4578   0.0849  -0.0284  -0.0306   0.0681   0.0248
   4 O   :2py    0.1801   0.2643   0.0792  -0.0635  -0.0422   0.0646   0.0546
   5 O   :2pz   -0.1107   0.0047   0.7032  -0.4969  -0.1423   0.0139  -0.0274
   7 O   :1s    -0.0590   0.0259  -0.0226  -0.0066  -0.0203   0.0183  -0.0090
   8 O   :2px    0.4197   0.3182  -0.0026  -0.0200  -0.0424   0.0704  -0.0051
   9 O   :2py    0.1345   0.7676  -0.1186  -0.0762  -0.0267   0.0305   0.0225
  10 O   :2pz   -0.0120  -0.1508  -0.6951  -0.5031  -0.1576   0.0331  -0.0358
  11 N   :1s    -0.0058  -0.0021  -0.0014  -0.0808   0.1755  -0.0071  -0.0027
  12 N   :1s     0.0284   0.0108   0.0084   0.5033  -1.1791   0.0326   0.0161
  13 N   :2px   -0.0348  -0.0133   0.0013   0.0102  -0.0237  -0.6084  -0.5688
  14 N   :2py   -0.0027  -0.0112  -0.0196   0.0285   0.0481  -0.5150   0.6126
  15 N   :2pz    0.0605   0.0183   0.0031   0.2775   0.3561   0.3219  -0.1322
  16 C   :1s     0.0526   0.0175   0.0026   0.0312  -0.0080   0.0471   0.0005
  17 C   :1s    -0.2390  -0.0808  -0.0124  -0.1432   0.0267  -0.2627  -0.0171
  18 C   :2px    0.3396   0.1366   0.0078  -0.0214   0.0524  -0.2582  -0.2508
  19 C   :2py    0.1858   0.0523   0.0151   0.0217   0.0543  -0.1331   0.2815
  20 C   :2pz   -0.0574  -0.0145  -0.0027   0.4294  -0.2235   0.3229  -0.0292
  21 C   :1s    -0.0184  -0.0077  -0.0006  -0.0061  -0.0109   0.0394   0.0174
  22 C   :1s     0.0798   0.0345   0.0025   0.0268   0.0657  -0.2133  -0.0944
  23 C   :2px   -0.0729   0.0185  -0.0085   0.0511   0.0496  -0.1835  -0.0957
  24 C   :2py   -0.0136  -0.0775   0.0083   0.1021   0.0654  -0.1090  -0.0108
  25 C   :2pz   -0.0040  -0.0012  -0.0066   0.6575   0.2937  -0.0596   0.0544
  26 C   :1s    -0.0083   0.0040  -0.0009   0.0103   0.0233  -0.0126   0.0263
  27 C   :1s     0.0356  -0.0185   0.0026  -0.0555  -0.1310   0.0630  -0.1488
  28 C   :2px   -0.0291   0.0071  -0.0010  -0.0134   0.0128  -0.1160  -0.1611
  29 C   :2py   -0.0818  -0.0136   0.0003   0.0564   0.0140  -0.2418   0.2553
  30 C   :2pz   -0.0085   0.0130   0.0053   0.0545  -0.0665   0.1163  -0.0171
  31 H   :1s     0.0558   0.0451   0.0079  -0.1086   0.0053   0.1241   0.4093
  32 H   :1s     0.0224   0.0122   0.0033   0.0552  -0.0180   0.0710  -0.1771
  33 H   :1s     0.0268   0.0092   0.0049  -0.1082   0.1729  -0.2164   0.0568
  34 H   :1s    -0.0875  -0.0083  -0.0100   0.0683  -0.0055   0.2122   0.1101
  35 H   :1s     0.0454   0.0050  -0.0091  -0.0758   0.6871  -0.5722   0.5083
  36 H   :1s    -0.0688  -0.0259  -0.0024  -0.2366   0.5829   0.8446   0.3780
  37 H   :1s     0.0145   0.0142   0.0014  -0.0998   0.6834   0.0803  -0.8961

    Orbital        29       30       31       32       33       34
   1 O   :1s    -0.0039  -0.0169  -0.0155   0.0031   0.0017  -0.0165
   2 O   :1s     0.0237   0.1022   0.0958  -0.0121  -0.0066   0.0979
   3 O   :2px    0.0088   0.0949   0.0639  -0.0548  -0.0195   0.0836
   4 O   :2py    0.0128   0.1822   0.1402  -0.0303  -0.0181   0.1547
   5 O   :2pz   -0.2133  -0.0327  -0.0013   0.0394  -0.0126  -0.0006
   6 O   :1s    -0.0015  -0.0054   0.0028   0.0252   0.0159  -0.0178
   7 O   :1s     0.0097   0.0276  -0.0228  -0.1568  -0.0964   0.1074
   8 O   :2px    0.0153   0.0863  -0.0198  -0.2711  -0.1430   0.1935
   9 O   :2py   -0.0243   0.0332   0.0242   0.0279  -0.0060  -0.0060
  10 O   :2pz   -0.2015  -0.0094   0.0286   0.0598  -0.0097   0.0191
  11 N   :1s     0.0235   0.0019   0.0284  -0.0356  -0.0023  -0.0077
  12 N   :1s    -0.1287  -0.0178  -0.1921   0.2398   0.0208   0.0519
  13 N   :2px   -0.1613   0.4552   0.0323   0.0278   0.0222   0.0462
  14 N   :2py   -0.4086  -0.0745  -0.1891  -0.3352  -0.0133   0.0042
  15 N   :2pz   -0.6778   0.0693  -0.1049   0.2410  -0.1569   0.0697
  16 C   :1s    -0.0804  -0.0177  -0.1600   0.1054   0.0180  -0.0941
  17 C   :1s     0.4363   0.0811   0.9581  -0.6393  -0.1289   0.5755
  18 C   :2px    0.0518  -0.6071   0.0562  -0.0132   0.0975  -0.4029
  19 C   :2py    0.0014   0.0550   0.6033   0.7619   0.2470  -0.0976
  20 C   :2pz   -0.7137  -0.0945   0.1525   0.1588  -0.2698   0.3688
  21 C   :1s     0.0129   0.0833   0.0301  -0.0921  -0.0412   0.1013
  22 C   :1s    -0.0770  -0.4833  -0.1736   0.5411   0.2470  -0.6071
  23 C   :2px   -0.0309  -0.3530  -0.1527   0.2544   0.0944  -0.3290
  24 C   :2py    0.0351  -0.1256   0.0193   0.2860   0.1419  -0.2169
  25 C   :2pz    0.3911   0.0463  -0.0482  -0.1740   0.0118  -0.0149
  26 C   :1s    -0.0017   0.0185   0.0659   0.0445   0.1850   0.1242
  27 C   :1s     0.0106  -0.1141  -0.3795  -0.2732  -1.1829  -0.7880
  28 C   :2px   -0.0238  -0.6373   0.0650   0.0912  -0.0601   0.5474
  29 C   :2py    0.1190   0.0502   0.7214   0.4288  -0.5719   0.1028
  30 C   :2pz   -0.2321  -0.0473   0.7040  -0.3556   0.3212  -0.5087
  31 H   :1s     0.0416   0.4831  -0.2696   0.6239   0.1779  -0.1890
  32 H   :1s    -0.2278  -0.5042   0.1841  -0.2024   0.8645   0.4098
  33 H   :1s     0.2920  -0.0164  -0.4932   0.4486   0.2129   0.8492
  34 H   :1s    -0.1006   0.6273  -0.0342  -0.1983   0.7988  -0.2106
  35 H   :1s    -0.5829   0.0262  -0.0781  -0.2882  -0.0445   0.0225
  36 H   :1s     0.2085  -0.3859   0.0740  -0.0202  -0.0822  -0.0217
  37 H   :1s    -0.1263   0.3577   0.1545   0.1967  -0.0938   0.0037

  Total CPU  time used in SIRIUS :   0.09 seconds
  Total wall time used in SIRIUS :   0.09 seconds

 
     Date and time (Linux)  : Thu Mar 22 14:59:09 2018
     Host name              : adm-101499                              

 NOTE:    1 informational messages have been issued.
 Check output, result, and error files for "INFO".

 NOTE:    1 warnings have been issued.
 Check output, result, and error files for "WARNING".


                     .---------------------------------------.
                     | End of Wave Function Section (SIRIUS) |
                     `---------------------------------------'



                    .------------------------------------------.
                    | Starting in Coupled Cluster Section (CC) |
                    `------------------------------------------'

  

 *******************************************************************************
 *******************************************************************************
 *                                                                             *
 *                                                                             *
 *                    START OF COUPLED CLUSTER CALCULATION                     *
 *                                                                             *
 *                                                                             *
 *******************************************************************************
 *******************************************************************************


  I am freezing!
 Freezing HF-orbital   1 of symmetry   1 and with orbital energy  -20.0305
 Freezing HF-orbital   2 of symmetry   1 and with orbital energy  -20.0227
 Freezing HF-orbital   3 of symmetry   1 and with orbital energy  -15.5635
 Freezing HF-orbital   4 of symmetry   1 and with orbital energy  -11.1047
 Freezing HF-orbital   5 of symmetry   1 and with orbital energy  -11.0610
 Freezing HF-orbital   6 of symmetry   1 and with orbital energy  -11.0569
 In total frozen-core per symmetry-class:  6
 


 CCR12 ANSATZ =   0

 CCR12 APPROX =   0

   

 *******************************************************************
 *                                                                 *
 *----------                                             >---------*
 *---------- OUTPUT FROM COUPLED CLUSTER ENERGY PROGRAM  >---------*
 *----------                                             >---------*
 *                                                                 *
 *******************************************************************


             The Direct Coupled Cluster Energy Program
             -----------------------------------------


          Number of t1 amplitudes                 :       234
          Number of t2 amplitudes                 :     27495
          Total number of amplitudes in ccsd      :     27729

 Iter.  1: Coupled cluster MP2   energy :    -318.8454733304584465
 Iter.  1: Coupled cluster CC2   energy :    -318.8444052708939580
 Iter.  2: Coupled cluster CC2   energy :    -318.8536074302997463
 Iter.  3: Coupled cluster CC2   energy :    -318.8564170924301493
 Iter.  4: Coupled cluster CC2   energy :    -318.8565481561985848
 Iter.  5: Coupled cluster CC2   energy :    -318.8565779526334154
 Iter.  6: Coupled cluster CC2   energy :    -318.8565817220158465
 Iter.  7: Coupled cluster CC2   energy :    -318.8565828823627157
 Iter.  8: Coupled cluster CC2   energy :    -318.8565832894859113
 Iter.  9: Coupled cluster CC2   energy :    -318.8565832530653665
 Iter. 10: Coupled cluster CC2   energy :    -318.8565833208157301
 Iter. 11: Coupled cluster CC2   energy :    -318.8565833228246902
 Iter. 12: Coupled cluster CC2   energy :    -318.8565833056846373
 Iter. 13: Coupled cluster CC2   energy :    -318.8565833192740797
 Iter. 14: Coupled cluster CC2   energy :    -318.8565833136151468
 Iter. 15: Coupled cluster CC2   energy :    -318.8565833151870379
 Iter. 16: Coupled cluster CC2   energy :    -318.8565833154591473

 CC2   energy converged to within   0.10D-08 is         -318.856583315459
 Final 2-norm of the CC vector function:  8.00856248D-09
  Change in norm^2 of T-amplitudes in this solvent it.:   9.1611556862639429E-002




                   +--------------------------------------------+
                   ! Calculating singlet intermediates for CCLR !
                   +--------------------------------------------+



            E-intermediates calculated 
            Fock-intermediate calculated 


   

 *******************************************************************
 *                                                                 *
 *---- OUTPUT FROM COUPLED CLUSTER RESPONSE  -------------*
 *                                                                 *
 *----------    CALCULATION OF FIRST ORDER PROPERTIES    >---------*
 *                                                                 *
 *******************************************************************



                         +-------------------------------+
                         ! Coupled Cluster model is: CC2 !
                         +-------------------------------+

 RPA: call cceq_str
 RPA: exit cceq_str
  Change in norm^2 of L-amplitudes in this ccmm it.:  0.56167008394337747     
 Total <Lambda|H|CC> energy:   -318.85658331543272     
            The singles contribution is:             0.0000000002
            The doubles contribution is:            -0.0000000002
 CCFOP: call CC_D1AO to recalc the 1e Density
   

 *****************************************************************
 **** Output from Coupled Cluster/Molecular Mechanics program ****
 *****************************************************************


                         +-------------------------------+
                         ! Coupled Cluster model is: CC2 !
                         +-------------------------------+



 E(QM/MM) contribution in iteration  0:           -0.1569602883
 CC energy in the  current CCMM iteration:      -318.0255104156
 CC energy in the previous CCMM iteration:         0.0000000000
 Change in Total energy in this CCMM it.:         -0.318026E+03


 *****************************************************************
 ******* End of Coupled Cluster/Molecular Mechanics program ******
 *****************************************************************
  


             +--------------------------------------------------------+
             ! Unrelaxed  CC2    First-order one-electron properties: !
             +--------------------------------------------------------+



                            +-------------------------+
                            !  Electric Dipole Moment !
                            +-------------------------+



                          Total Molecular Dipole Moment
                          -----------------------------

                 au               Debye          C m (/(10**-30)

      x      3.45113313         8.77190489        29.25992518
      y      1.63839196         4.16437671        13.89086551
      z     -2.89031691        -7.34645232       -24.50512723


   

 *******************************************************************
 *                                                                 *
 *----------                                             >---------*
 *---------- OUTPUT FROM COUPLED CLUSTER ENERGY PROGRAM  >---------*
 *----------                                             >---------*
 *                                                                 *
 *******************************************************************


             The Direct Coupled Cluster Energy Program
             -----------------------------------------


          Number of t1 amplitudes                 :       234
          Number of t2 amplitudes                 :     27495
          Total number of amplitudes in ccsd      :     27729

 Iter.  1: Coupled cluster RSTAR energy :    -318.8565833154591473
 Iter.  1: Coupled cluster CC2   energy :    -318.8565833152621849

 CC2   energy converged to within   0.10D-08 is         -318.856583315262
 Final 2-norm of the CC vector function:  2.97346673D-09
  Change in norm^2 of T-amplitudes in this solvent it.:  -2.9679764201873127E-010




                   +--------------------------------------------+
                   ! Calculating singlet intermediates for CCLR !
                   +--------------------------------------------+



            E-intermediates calculated 
            Fock-intermediate calculated 


   

 *******************************************************************
 *                                                                 *
 *---- OUTPUT FROM COUPLED CLUSTER RESPONSE  -------------*
 *                                                                 *
 *----------    CALCULATION OF FIRST ORDER PROPERTIES    >---------*
 *                                                                 *
 *******************************************************************



                         +-------------------------------+
                         ! Coupled Cluster model is: CC2 !
                         +-------------------------------+

 RPA: call cceq_str
 Vector nr.  1 of symmetry  1 found on file - RESTART SUCCESS
 Start vector is a CC2       L0  vector
 RPA: exit cceq_str
  Change in norm^2 of L-amplitudes in this ccmm it.:  -1.4174106333086911E-011
 Total <Lambda|H|CC> energy:   -318.85658331485735     
            The singles contribution is:             0.0000000001
            The doubles contribution is:             0.0000000003
 CCFOP: call CC_D1AO to recalc the 1e Density
   

 *****************************************************************
 **** Output from Coupled Cluster/Molecular Mechanics program ****
 *****************************************************************


                         +-------------------------------+
                         ! Coupled Cluster model is: CC2 !
                         +-------------------------------+



 E(QM/MM) contribution in iteration  1:           -0.1569602884
 CC energy in the  current CCMM iteration:      -318.0255104150
 CC energy in the previous CCMM iteration:      -318.0255104156
 Change in Total energy in this CCMM it.:          0.575369E-09




 ------------------------------------------------------------------------
            | --- The MM/MM classical interaction energy            --- |
 ------------------------------------------------------------------------
 |  Eelec = Sum_n,s[ (Q_n*Q_s)/|R_n - R_s| ]        |       -0.08417171 |
 ------------------------------------------------------------------------
 |  Epol  = - 1/2*Sum_a[ MYind_a*E^site_a ]         |        0.00000000 |
 ------------------------------------------------------------------------
 |  Evdw  = Sum_a[ A_ma/|R_ma|^12 - B_ma/|R_ma|^6 ] |        0.02847728 |
 ------------------------------------------------------------------------
 |**************************************************|*******************|
 ------------------------------------------------------------------------
 |  E(MM/MM) = Eelec + Epol + Evdw                  |       -0.05569443 |
 ------------------------------------------------------------------------


 +======================================================================+
 |---------------Final output from CC2/MM energy program ---------------|
 +======================================================================+
 |      Eelec      |      Epol       |      Evdw       |    E(QM/MM)    |
 +----------------------------------------------------------------------+
 |   -0.1555301295 |    0.0000000000 |   -0.0014301589 |  -0.1569602884 |
 +----------------------------------------------------------------------+
 +======================================================================+
 +----------------------------------------------------------------------+
 |  <L|H(vac)|CC>  | <H(qm)+H(qmmm)> | Delta E(mm/mm)  | E_rep          |
 +----------------------------------------------------------------------+
 | -317.8685501266 | -318.0255104150 |    0.0000000000 |   0.0000000000 |
 +======================================================================+



  CCMM equations are converged in   1 outer iterations
  CCMM equations are converged in  38 inner iterations
 *****************************************************************
 ******* End of Coupled Cluster/Molecular Mechanics program ******
 *****************************************************************
  


             +--------------------------------------------------------+
             ! Unrelaxed  CC2    First-order one-electron properties: !
             +--------------------------------------------------------+



                            +-------------------------+
                            !  Electric Dipole Moment !
                            +-------------------------+



                          Total Molecular Dipole Moment
                          -----------------------------

                 au               Debye          C m (/(10**-30)

      x      3.45113313         8.77190489        29.25992518
      y      1.63839196         4.16437672        13.89086553
      z     -2.89031691        -7.34645232       -24.50512723


   

 *******************************************************************
 *                                                                 *
 *---------- OUTPUT FROM COUPLED CLUSTER LINEAR RESPONSE >---------*
 *                                                                 *
 *----------     CALCULATION OF EXCITATION ENERGIES      >---------*
 *                                                                 *
 *******************************************************************



                            +--------------------------+
                            !  CC2 Excitation Energies !
                            +--------------------------+


 --------------------------
 Symmetry class Nr.:     1
 Multiplicity      :     1
 --------------------------

 Length of Excitation vectors in this class is:     27729
 Converging for  4 roots.
 Vector nr.  1 of type RE  and symmetry  1 was not found on file.
 Start vector guessed from diagonal
 ... selected element no.222
 Vector nr.  2 of type RE  and symmetry  1 was not found on file.
 Start vector guessed from diagonal
 ... selected element no.209
 Vector nr.  3 of type RE  and symmetry  1 was not found on file.
 Start vector guessed from diagonal
 ... selected element no.196
 Vector nr.  4 of type RE  and symmetry  1 was not found on file.
 Start vector guessed from diagonal
 ... selected element no.223


 SYMMETRY CLASS NR.    1
 MULTIPLICITY          1


 CC2        right excitation energies:
 ====================================
 (conversion factor used: 1 au = 27.2113957 eV)

 Excitation no.       Hartree               eV 
 --------------       -------               --
         1            0.1983800685        5.3981962638
         2            0.2235710253        6.0836770663
         3            0.3016063248        8.2071255837
         4            0.3609290210        9.8213782630


 Total excited state energies for states of symmetry/spin    1    1
 Excitation no.       Energy (Hartree) 
 ------------------------------------- 
@@    1    1          -318.658203246346659
@@    1    2          -318.633012289607166
@@    1    3          -318.554976990079979
@@    1    4          -318.495654293857058


 Analysis of the Coupled Cluster Excitation Vector Number :  1
 -------------------------------------------------------------

          Excitation Energy :                             5.3982 eV


          CC_PRAM:Overall Contribution of the Different Components
          --------------------------------------------------------



          Single Excitation Contribution :              93.6242 %

          Double Excitation Contribution :               6.3758 %

          ||T1||/||T2||                  :               3.8320

          Norm of Total Amplitude Vector :               1.0000


 +=============================================================================+
 | symmetry|  orbital index  |   Excitation Numbers             |   Amplitude  |
 |  Index  |   a   b   i   j |      NAI      NBJ |     NAIBJ    |              |
 +=============================================================================+
 | 1   1   |   1      16     |      196          |              |   -0.269307  |
 | 1   1   |   1      17     |      209          |              |    0.907992  |
 +-----------------------------------------------------------------------------+
 | 1 1 1 1 |   1   1  18  13 |      222      157 |        24688 |    0.088336  |
 | 1 1 1 1 |   1   1  17  14 |      209      170 |        21906 |   -0.069540  |
 | 1 1 1 1 |   1   1  18  16 |      222      196 |        24727 |    0.126271  |
 +=============================================================================+


          Norm of Printed Amplitude Vector :             0.9621

          Printed all single excitations greater than 0.193519

          Printed all double excitations greater than 0.050501


 Analysis of the Coupled Cluster Excitation Vector Number :  2
 -------------------------------------------------------------

          Excitation Energy :                             6.0837 eV


          CC_PRAM:Overall Contribution of the Different Components
          --------------------------------------------------------



          Single Excitation Contribution :              93.5528 %

          Double Excitation Contribution :               6.4472 %

          ||T1||/||T2||                  :               3.8093

          Norm of Total Amplitude Vector :               1.0000


 +=============================================================================+
 | symmetry|  orbital index  |   Excitation Numbers             |   Amplitude  |
 |  Index  |   a   b   i   j |      NAI      NBJ |     NAIBJ    |              |
 +=============================================================================+
 | 1   1   |   1      16     |      196          |              |    0.906672  |
 | 1   1   |   1      17     |      209          |              |    0.272294  |
 +-----------------------------------------------------------------------------+
 | 1 1 1 1 |   1   1  18  15 |      222      183 |        24714 |   -0.082420  |
 | 1 1 1 1 |   1   1  18  16 |      222      196 |        24727 |   -0.057607  |
 | 1 1 1 1 |   1   1  18  17 |      222      209 |        24740 |    0.140203  |
 +=============================================================================+


          Norm of Printed Amplitude Vector :             0.9623

          Printed all single excitations greater than 0.193445

          Printed all double excitations greater than 0.050783


 Analysis of the Coupled Cluster Excitation Vector Number :  3
 -------------------------------------------------------------

          Excitation Energy :                             8.2071 eV


          CC_PRAM:Overall Contribution of the Different Components
          --------------------------------------------------------



          Single Excitation Contribution :              92.1056 %

          Double Excitation Contribution :               7.8944 %

          ||T1||/||T2||                  :               3.4157

          Norm of Total Amplitude Vector :               1.0000


 +=============================================================================+
 | symmetry|  orbital index  |   Excitation Numbers             |   Amplitude  |
 |  Index  |   a   b   i   j |      NAI      NBJ |     NAIBJ    |              |
 +=============================================================================+
 | 1   1   |   1      18     |      222          |              |    0.909469  |
 +-----------------------------------------------------------------------------+
 | 1 1 1 1 |   1   1  18  14 |      222      170 |        24701 |   -0.216579  |
 +=============================================================================+


          Norm of Printed Amplitude Vector :             0.9349

          Printed all single excitations greater than 0.191943

          Printed all double excitations greater than 0.056194


 Analysis of the Coupled Cluster Excitation Vector Number :  4
 -------------------------------------------------------------

          Excitation Energy :                             9.8214 eV


          CC_PRAM:Overall Contribution of the Different Components
          --------------------------------------------------------



          Single Excitation Contribution :              90.8484 %

          Double Excitation Contribution :               9.1516 %

          ||T1||/||T2||                  :               3.1507

          Norm of Total Amplitude Vector :               1.0000


 +=============================================================================+
 | symmetry|  orbital index  |   Excitation Numbers             |   Amplitude  |
 |  Index  |   a   b   i   j |      NAI      NBJ |     NAIBJ    |              |
 +=============================================================================+
 | 1   1   |   2      17     |      210          |              |   -0.544144  |
 | 1   1   |   3      17     |      211          |              |    0.464025  |
 | 1   1   |   5      17     |      213          |              |   -0.586159  |
 +-----------------------------------------------------------------------------+
 | 1 1 1 1 |   1   2  18  16 |      222      197 |        24728 |   -0.064532  |
 | 1 1 1 1 |   1   5  18  16 |      222      200 |        24731 |   -0.064596  |
 +=============================================================================+


          Norm of Printed Amplitude Vector :             0.9292

          Printed all single excitations greater than 0.190629

          Printed all double excitations greater than 0.060503

 --------------------------
 Symmetry class Nr.:     1
 Multiplicity      :     3
 --------------------------

 Length of Excitation vectors in this class is:     55224
 No Excitation Energies calculated in this symmetry class
   

 *******************************************************************
 *                                                                 *
 *---------- OUTPUT FROM COUPLED CLUSTER LINEAR RESPONSE >---------*
 *                                                                 *
 *----------     CALCULATION OF EXCITATION ENERGIES      >---------*
 *                                                                 *
 *******************************************************************



                            +--------------------------+
                            !  CC2 Excitation Energies !
                            +--------------------------+


 --------------------------
 Symmetry class Nr.:     1
 Multiplicity      :     1
 --------------------------

 Length of Excitation vectors in this class is:     27729
 Converging for  4 roots.
 Vector nr.  1 of type LE  and symmetry  1 was not found on file.
Try to use right eigenvector as start for a left eigenvector.
 Vector nr.  1 of symmetry  1 found on file - RESTART SUCCESS
 Start vector is a  CC2       RE vector
 Vector nr.  2 of type LE  and symmetry  1 was not found on file.
Try to use right eigenvector as start for a left eigenvector.
 Vector nr.  2 of symmetry  1 found on file - RESTART SUCCESS
 Start vector is a  CC2       RE vector
 Vector nr.  3 of type LE  and symmetry  1 was not found on file.
Try to use right eigenvector as start for a left eigenvector.
 Vector nr.  3 of symmetry  1 found on file - RESTART SUCCESS
 Start vector is a  CC2       RE vector
 Vector nr.  4 of type LE  and symmetry  1 was not found on file.
Try to use right eigenvector as start for a left eigenvector.
 Vector nr.  4 of symmetry  1 found on file - RESTART SUCCESS
 Start vector is a  CC2       RE vector


 SYMMETRY CLASS NR.    1
[...]
                       -----------------------------




                       +------------------------------------+
                       ! REQUESTED EFFECTIVE FOCK MATRICES: !
                       +------------------------------------+

                       Index   Oper. Label  Symmetry
                       -----------------------------
                       -----------------------------




                        +----------------------------------+
                        ! REQUESTED FIRST ORDER M-VECTORS: !
                        +----------------------------------+

               Index   State Symmetry  Frequency
               --------------------------------------------------
                  1             1    1     1.983801D-01
                  2             2    1     2.235710D-01
                  3             3    1     3.016063D-01
                  4             4    1     3.609290D-01
               --------------------------------------------------


      

    *******************************************************************
    *          SOLVING COUPLED CLUSTER RESPONSE EQUATIONS             *
    *******************************************************************



 
 +======================================================================+
 !                     RHS & ETA VECTORS TO COMPUTE:                    !
 +======================================================================+
 | TYPE | # VEC. |  NEEDED FOR:                                         |
 +----------------------------------------------------------------------+
 +======================================================================+



 +======================================================================+
 !                       LINEAR EQUATIONS TO SOLVE:                     !
 +======================================================================+
 | TYPE | # VEC. |  EQUATION:                                           |
 +----------------------------------------------------------------------+
 |  M1  |    4   |  first-order ground - excited state multipliers      |
 +======================================================================+



 +======================================================================+
 !                F MATRIX TRANSFORMATIONS TO COMPUTE:                  !
 +======================================================================+
 | TYPE | # VEC. |  TRANSFORMED:                                        |
 +----------------------------------------------------------------------+
 |  FR  |    4   |  right eigenvectors (RE)                             |
 +======================================================================+





 Testing R1 list: 

 List nr.  Label     Symmetry      Frequency      T1-norm        T2-norm


 Testing L1 list: 

 List nr.  Label     Symmetry      Frequency      T1-norm        T2-norm
  Solvent 1-order response equations converged in           0  solvent iterations
 RPA: call cceq_str
 Vector nr.  1 of type M1  and symmetry  1 was not found on file.
 Vector nr.  2 of type M1  and symmetry  1 was not found on file.
 Vector nr.  3 of type M1  and symmetry  1 was not found on file.
 Vector nr.  4 of type M1  and symmetry  1 was not found on file.
 RPA: exit cceq_str

 Solution of CC response equations completed.


 *******************************************************************
 *                                                                 *
 *--------  OUTPUT FROM COUPLED CLUSTER LINEAR RESPONSE   ---------*
 *                                                                 *
 *--------      CALCULATION OF SECOND ORDER RESIDUES      ---------*
 *                                                                 *
 *******************************************************************



                  +---------------------------------------------+
                  ! CC_SOPR: Calculation of CC2        Residues !
                  +---------------------------------------------+



 CC2   Right transition moments in atomic units:
 -----------------------------------------------

  1       0.198380  <XDIPLEN |f> =       0.00993213
  2       0.223571  <XDIPLEN |f> =      -0.02646581
  3       0.301606  <XDIPLEN |f> =      -0.51364859
  4       0.360929  <XDIPLEN |f> =      -0.09766766
  1       0.198380  <YDIPLEN |f> =      -0.01440353
  2       0.223571  <YDIPLEN |f> =      -0.02017398
  3       0.301606  <YDIPLEN |f> =       0.83830636
  4       0.360929  <YDIPLEN |f> =       0.06351150
  1       0.198380  <ZDIPLEN |f> =       0.00486123
  2       0.223571  <ZDIPLEN |f> =      -0.08642523
  3       0.301606  <ZDIPLEN |f> =      -0.10116578
  4       0.360929  <ZDIPLEN |f> =      -0.04991131


 CC2   Left  transition moments in atomic units:
 -----------------------------------------------

  1       0.198380  <f|XDIPLEN > =       0.00621785
  2       0.223571  <f|XDIPLEN > =      -0.01751360
  3       0.301606  <f|XDIPLEN > =      -0.33650186
  4       0.360929  <f|XDIPLEN > =      -0.05175228
  1       0.198380  <f|YDIPLEN > =      -0.00965977
  2       0.223571  <f|YDIPLEN > =      -0.00787432
  3       0.301606  <f|YDIPLEN > =       0.55737493
  4       0.360929  <f|YDIPLEN > =       0.03348607
  1       0.198380  <f|ZDIPLEN > =       0.00253116
  2       0.223571  <f|ZDIPLEN > =      -0.04698326
  3       0.301606  <f|ZDIPLEN > =      -0.06547564
  4       0.360929  <f|ZDIPLEN > =      -0.02767418


 CC2   linear response residue property in atomic units:
 -------------------------------------------------------

 RES{<<XDIPLEN ,XDIPLEN >>( 0.198380)} =     0.00006176 (   0.00785853)
 RES{<<XDIPLEN ,XDIPLEN >>( 0.223571)} =     0.00046351 (   0.02152932)
 RES{<<XDIPLEN ,XDIPLEN >>( 0.301606)} =     0.17284371 (   0.41574476)
 RES{<<XDIPLEN ,XDIPLEN >>( 0.360929)} =     0.00505452 (   0.07109517)
 RES{<<XDIPLEN ,YDIPLEN >>( 0.198380)} =    -0.00009275 (  -0.00963071)
 RES{<<XDIPLEN ,YDIPLEN >>( 0.223571)} =     0.00028086 (   0.01675887)
 RES{<<XDIPLEN ,YDIPLEN >>( 0.301606)} =    -0.28419325 (  -0.53309779)
 RES{<<XDIPLEN ,YDIPLEN >>( 0.360929)} =    -0.00327869 (  -0.05725981)
 RES{<<XDIPLEN ,ZDIPLEN >>( 0.198380)} =     0.00002768 (   0.00526147)
 RES{<<XDIPLEN ,ZDIPLEN >>( 0.223571)} =     0.00137853 (   0.03712860)
 RES{<<XDIPLEN ,ZDIPLEN >>( 0.301606)} =     0.03383697 (   0.18394829)
 RES{<<XDIPLEN ,ZDIPLEN >>( 0.360929)} =     0.00264295 (   0.05140961)
 RES{<<YDIPLEN ,XDIPLEN >>( 0.198380)} =    -0.00009275 (  -0.00963071)
 RES{<<YDIPLEN ,XDIPLEN >>( 0.223571)} =     0.00028086 (   0.01675887)
 RES{<<YDIPLEN ,XDIPLEN >>( 0.301606)} =    -0.28419325 (  -0.53309779)
 RES{<<YDIPLEN ,XDIPLEN >>( 0.360929)} =    -0.00327869 (  -0.05725981)
 RES{<<YDIPLEN ,YDIPLEN >>( 0.198380)} =     0.00013913 (   0.01179554)
 RES{<<YDIPLEN ,YDIPLEN >>( 0.223571)} =     0.00015886 (   0.01260382)
 RES{<<YDIPLEN ,YDIPLEN >>( 0.301606)} =     0.46725095 (   0.68355757)
 RES{<<YDIPLEN ,YDIPLEN >>( 0.360929)} =     0.00212675 (   0.04611671)
 RES{<<YDIPLEN ,ZDIPLEN >>( 0.198380)} =    -0.00004171 (  -0.00645817)
 RES{<<YDIPLEN ,ZDIPLEN >>( 0.223571)} =     0.00081419 (   0.02853401)
 RES{<<YDIPLEN ,ZDIPLEN >>( 0.301606)} =    -0.05563796 (  -0.23587700)
 RES{<<YDIPLEN ,ZDIPLEN >>( 0.360929)} =    -0.00171448 (  -0.04140629)
 RES{<<ZDIPLEN ,XDIPLEN >>( 0.198380)} =     0.00002768 (   0.00526147)
 RES{<<ZDIPLEN ,XDIPLEN >>( 0.223571)} =     0.00137853 (   0.03712860)
 RES{<<ZDIPLEN ,XDIPLEN >>( 0.301606)} =     0.03383697 (   0.18394829)
 RES{<<ZDIPLEN ,XDIPLEN >>( 0.360929)} =     0.00264295 (   0.05140961)
 RES{<<ZDIPLEN ,YDIPLEN >>( 0.198380)} =    -0.00004171 (  -0.00645817)
 RES{<<ZDIPLEN ,YDIPLEN >>( 0.223571)} =     0.00081419 (   0.02853401)
 RES{<<ZDIPLEN ,YDIPLEN >>( 0.301606)} =    -0.05563796 (  -0.23587700)
 RES{<<ZDIPLEN ,YDIPLEN >>( 0.360929)} =    -0.00171448 (  -0.04140629)
 RES{<<ZDIPLEN ,ZDIPLEN >>( 0.198380)} =     0.00001230 (   0.00350778)
 RES{<<ZDIPLEN ,ZDIPLEN >>( 0.223571)} =     0.00406054 (   0.06372235)
 RES{<<ZDIPLEN ,ZDIPLEN >>( 0.301606)} =     0.00662389 (   0.08138731)
 RES{<<ZDIPLEN ,ZDIPLEN >>( 0.360929)} =     0.00138125 (   0.03716523)


 CC2   Transition strength matrix for state nr.  1 of symmetry 1
 CC2   excitation energy: 0.19838007

 Gauge: length

               Column   1     Column   2     Column   3
       1     6.175652E-05  -9.275052E-05   2.768310E-05
       2    -9.275052E-05   1.391347E-04  -4.170797E-05
       3     2.768310E-05  -4.170797E-05   1.230454E-05
    ==== End of matrix output ====

 Principal values of diagonalized transition strength matrix:

             a.u.               
 1      -0.00000021
 2       0.00000000
 3       0.00021340

 Principal axis of diagonalized transition strength matrix:


               Column   1     Column   2     Column   3
       1       0.29519807     0.78954685    -0.53802775
       2       0.44893886     0.38246199     0.80757459
       3       0.84339315    -0.47993603    -0.24155623
    ==== End of matrix output ====


 CC2    oscillator strength matrix for state nr.  1 of symmetry 1
 CC2   excitation energy: 0.19838007


               Column   1     Column   2     Column   3
       1     8.167508E-06  -1.226657E-05   3.661184E-06
       2    -1.226657E-05   1.840103E-05  -5.516020E-06
       3     3.661184E-06  -5.516020E-06   1.627317E-06
    ==== End of matrix output ====

 Principal values of diagonalized oscillator strength matrix:

             a.u.               
 1      -0.00000003
 2      -0.00000000
 3       0.00002822

 Principal axis of diagonalized oscillator strength matrix:


               Column   1     Column   2     Column   3
       1       0.29519807     0.78954685    -0.53802775
       2       0.44893886     0.38246199     0.80757459
       3       0.84339315    -0.47993603    -0.24155623
    ==== End of matrix output ====


 CC2   Transition strength matrix for state nr.  2 of symmetry 1
 CC2   excitation energy: 0.22357103

 Gauge: length

               Column   1     Column   2     Column   3
       1       0.00046351     0.00028086     0.00137853
       2       0.00028086     0.00015886     0.00081419
       3       0.00137853     0.00081419     0.00406054
    ==== End of matrix output ====

 Principal values of diagonalized transition strength matrix:

             a.u.               
 1      -0.00000882
 2      -0.00000000
 3       0.00469172

 Principal axis of diagonalized transition strength matrix:


               Column   1     Column   2     Column   3
       1      -0.68443843     0.65716844     0.31571138
       2       0.72385735     0.66421921     0.18666382
       3       0.08703199    -0.35628990     0.93031336
    ==== End of matrix output ====


 CC2    oscillator strength matrix for state nr.  2 of symmetry 1
 CC2   excitation energy: 0.22357103


               Column   1     Column   2     Column   3
       1     6.908516E-05   4.186138E-05   2.054667E-04
       2     4.186138E-05   2.367712E-05   1.213528E-04
       3     2.054667E-04   1.213528E-04   6.052125E-04
    ==== End of matrix output ====

 Principal values of diagonalized oscillator strength matrix:

             a.u.               
 1      -0.00000131
 2      -0.00000000
 3       0.00069929

 Principal axis of diagonalized oscillator strength matrix:


               Column   1     Column   2     Column   3
       1      -0.68443843     0.65716844     0.31571138
       2       0.72385735     0.66421921     0.18666382
       3       0.08703199    -0.35628990     0.93031336
    ==== End of matrix output ====


 CC2   Transition strength matrix for state nr.  3 of symmetry 1
 CC2   excitation energy: 0.30160632

 Gauge: length

               Column   1     Column   2     Column   3
       1       0.17284371    -0.28419325     0.03383697
       2      -0.28419325     0.46725095    -0.05563796
       3       0.03383697    -0.05563796     0.00662389
    ==== End of matrix output ====

 Principal values of diagonalized transition strength matrix:

             a.u.               
 1      -0.00000776
 2       0.00000000
 3       0.64672631

 Principal axis of diagonalized transition strength matrix:


               Column   1     Column   2     Column   3
       1       0.78796954    -0.33442059    -0.51697861
       2       0.51874710    -0.09171608     0.84999389
       3       0.33167070     0.93795044    -0.10121023
    ==== End of matrix output ====


 CC2    oscillator strength matrix for state nr.  3 of symmetry 1
 CC2   excitation energy: 0.30160632


               Column   1     Column   2     Column   3
       1       0.03475384    -0.05714299     0.00680363
       2      -0.05714299     0.09395056    -0.01118717
       3       0.00680363    -0.01118717     0.00133187
    ==== End of matrix output ====

 Principal values of diagonalized oscillator strength matrix:

             a.u.               
 1      -0.00000156
 2       0.00000000
 3       0.13003783

 Principal axis of diagonalized oscillator strength matrix:


               Column   1     Column   2     Column   3
       1       0.78796954    -0.33442059    -0.51697861
       2       0.51874710    -0.09171608     0.84999389
       3       0.33167070     0.93795044    -0.10121023
    ==== End of matrix output ====


 CC2   Transition strength matrix for state nr.  4 of symmetry 1
 CC2   excitation energy: 0.36092902

 Gauge: length

               Column   1     Column   2     Column   3
       1       0.00505452    -0.00327869     0.00264295
       2      -0.00327869     0.00212675    -0.00171448
       3       0.00264295    -0.00171448     0.00138125
    ==== End of matrix output ====

 Principal values of diagonalized transition strength matrix:

             a.u.               
 1      -0.00000064
 2      -0.00000000
 3       0.00856317

 Principal axis of diagonalized transition strength matrix:


               Column   1     Column   2     Column   3
       1      -0.26914186     0.58077043     0.76828924
       2       0.31787856     0.80658881    -0.49836504
       3       0.90912919    -0.11009178     0.40170128
    ==== End of matrix output ====


 CC2    oscillator strength matrix for state nr.  4 of symmetry 1
 CC2   excitation energy: 0.36092902


               Column   1     Column   2     Column   3
       1       0.00121622    -0.00078892     0.00063594
       2      -0.00078892     0.00051174    -0.00041254
       3       0.00063594    -0.00041254     0.00033236
    ==== End of matrix output ====

 Principal values of diagonalized oscillator strength matrix:

             a.u.               
 1      -0.00000016
 2      -0.00000000
 3       0.00206047

 Principal axis of diagonalized oscillator strength matrix:


               Column   1     Column   2     Column   3
       1      -0.26914186     0.58077043     0.76828924
       2       0.31787856     0.80658881    -0.49836504
       3       0.90912919    -0.11009178     0.40170128
    ==== End of matrix output ====

  Total time for     36 linear response residues:       0.08 seconds.
  

 *******************************************************************************
 *******************************************************************************
 *                                                                             *
 *                                                                             *
 *                   SUMMARY OF COUPLED CLUSTER CALCULATION                    *
 *                                                                             *
 *                                                                             *
 *******************************************************************************
 *******************************************************************************

             CC2 Total  energy:                  -318.0255104150                
             CC2 E(QM/MM)     :                    -0.1569602884                
                                                                                
                                                                                
                                                                                
 +=============================================================================+
 |  sym. | Exci.  |        CC2        Excitation energies            | ||T1||  |
 |(spin, |        +------------------------------------------------------------+
 | spat) |        |     Hartree    |       eV.      |     cm-1       |    %    |
 +=============================================================================+
 | ^1A   |    1   |     0.1983801  |       5.39820  |     43539.392  |  93.62  |
 | ^1A   |    2   |     0.2235710  |       6.08368  |     49068.168  |  93.55  |
 | ^1A   |    3   |     0.3016063  |       8.20713  |     66194.936  |  92.11  |
 | ^1A   |    4   |     0.3609290  |       9.82138  |     79214.763  |  90.85  |
 +=============================================================================+
                                                                                
                                                                                
     Total energies in Hartree:                                                 
             1 ^1A       -318.6582032463                                        
             2 ^1A       -318.6330122896                                        
             3 ^1A       -318.5549769901                                        
             4 ^1A       -318.4956542939                                        
                                                                                
                                                                                
 +=============================================================================+
 |  sym. | Exci.  |        CC2        Length   Gauge Oscillator Strength       |
 |(spin, |        +------------------------------------------------------------+
 | spat) |        | Dipole Strength(a.u.) | Oscillator strength  | Direction   |
 +=============================================================================+
 | ^1A   |    1   |        0.0002132      |      0.0000282       | unknown     |
 | ^1A   |    2   |        0.0046829      |      0.0006980       | unknown     |
 | ^1A   |    3   |        0.6467186      |      0.1300363       | unknown     |
 | ^1A   |    4   |        0.0085625      |      0.0020603       | unknown     |
 +=============================================================================+

  1 a.u. =        27.21138 eV.  
  1 a.u. =    219474.62934 cm-1.
  

 *******************************************************************************
 *******************************************************************************
 *                                                                             *
 *                                                                             *
 *                      END OF COUPLED CLUSTER CALCULATION                     *
 *                                                                             *
 *                                                                             *
 *******************************************************************************
 *******************************************************************************


 CPU and wall time for CC :      36.144      36.428

 
     Date and time (Linux)  : Thu Mar 22 14:59:46 2018
     Host name              : adm-101499                              


                      .-------------------------------------.
                      | End of Coupled Cluster Section (CC) |
                      `-------------------------------------'

  Total CPU  time used in DALTON:  37.12 seconds
  Total wall time used in DALTON:  37.40 seconds

 
     Date and time (Linux)  : Thu Mar 22 14:59:46 2018
     Host name              : adm-101499                              
