

     ************************************************************************
     *************** Dalton - An Electronic Structure Program ***************
     ************************************************************************

    This is output from DALTON release Dalton2017.alpha (2016)
         ( Web site: http://daltonprogram.org )

   ----------------------------------------------------------------------------

    NOTE:
     
    Dalton is an experimental code for the evaluation of molecular
    properties using (MC)SCF, DFT, CI, and CC wave functions.
    The authors accept no responsibility for the performance of
    the code or for the correctness of the results.
     
    The code (in whole or part) is provided under a licence and
    is not to be reproduced for further distribution without
    the written permission of the authors or their representatives.
     
    See the home page "http://daltonprogram.org" for further information.
     
    If results obtained with this code are published,
    the appropriate citations would be both of:
     
       K. Aidas, C. Angeli, K. L. Bak, V. Bakken, R. Bast,
       L. Boman, O. Christiansen, R. Cimiraglia, S. Coriani,
       J. Cukras, P. Dahle, E. K. Dalskov, U. Ekstroem,
       T. Enevoldsen, J. J. Eriksen, P. Ettenhuber, B. Fernandez,
       L. Ferrighi, H. Fliegl, L. Frediani, K. Hald, A. Halkier,
       C. Haettig, H. Heiberg, T. Helgaker, A. C. Hennum,
       H. Hettema, E. Hjertenaes, S. Hoest, I.-M. Hoeyvik,
       M. F. Iozzi, B. Jansik, H. J. Aa. Jensen, D. Jonsson,
       P. Joergensen, M. Kaminski, J. Kauczor, S. Kirpekar,
       T. Kjaergaard, W. Klopper, S. Knecht, R. Kobayashi, H. Koch,
       J. Kongsted, A. Krapp, K. Kristensen, A. Ligabue,
       O. B. Lutnaes, J. I. Melo, K. V. Mikkelsen, R. H. Myhre,
       C. Neiss, C. B. Nielsen, P. Norman, J. Olsen,
       J. M. H. Olsen, A. Osted, M. J. Packer, F. Pawlowski,
       T. B. Pedersen, P. F. Provasi, S. Reine, Z. Rinkevicius,
       T. A. Ruden, K. Ruud, V. Rybkin, P. Salek, C. C. M. Samson,
       A. Sanchez de Meras, T. Saue, S. P. A. Sauer,
       B. Schimmelpfennig, K. Sneskov, A. H. Steindal,
       K. O. Sylvester-Hvid, P. R. Taylor, A. M. Teale,
       E. I. Tellgren, D. P. Tew, A. J. Thorvaldsen, L. Thoegersen,
       O. Vahtras, M. A. Watson, D. J. D. Wilson, M. Ziolkowski
       and H. Agren,
       "The Dalton quantum chemistry program system",
       WIREs Comput. Mol. Sci. 2014, 4:269–284 (doi: 10.1002/wcms.1172)
     
    and
     
       Dalton, a Molecular Electronic Structure Program,
       Release Dalton2017.alpha (2016), see http://daltonprogram.org
   ----------------------------------------------------------------------------

    Authors in alphabetical order (major contribution(s) in parenthesis):

  Kestutis Aidas,           Vilnius University,           Lithuania   (QM/MM)
  Celestino Angeli,         University of Ferrara,        Italy       (NEVPT2)
  Keld L. Bak,              UNI-C,                        Denmark     (AOSOPPA, non-adiabatic coupling, magnetic properties)
  Vebjoern Bakken,          University of Oslo,           Norway      (DALTON; geometry optimizer, symmetry detection)
  Radovan Bast,             UiT The Arctic U. of Norway,  Norway      (DALTON installation and execution frameworks)
  Pablo Baudin,             University of Valencia,       Spain       (Cholesky excitation energies)
  Linus Boman,              NTNU,                         Norway      (Cholesky decomposition and subsystems)
  Ove Christiansen,         Aarhus University,            Denmark     (CC module)
  Renzo Cimiraglia,         University of Ferrara,        Italy       (NEVPT2)
  Sonia Coriani,            University of Trieste,        Italy       (CC module, MCD in RESPONS)
  Janusz Cukras,            University of Trieste,        Italy       (MChD in RESPONS)
  Paal Dahle,               University of Oslo,           Norway      (Parallelization)
  Erik K. Dalskov,          UNI-C,                        Denmark     (SOPPA)
  Thomas Enevoldsen,        Univ. of Southern Denmark,    Denmark     (SOPPA)
  Janus J. Eriksen,         Aarhus University,            Denmark     (Polarizable embedding model, TDA)
  Rasmus Faber,             University of Copenhagen,     Denmark     (Vib.avg. NMR with SOPPA, parallel AO-SOPPA)
  Berta Fernandez,          U. of Santiago de Compostela, Spain       (doublet spin, ESR in RESPONS)
  Lara Ferrighi,            Aarhus University,            Denmark     (PCM Cubic response)
  Heike Fliegl,             University of Oslo,           Norway      (CCSD(R12))
  Luca Frediani,            UiT The Arctic U. of Norway,  Norway      (PCM)
  Bin Gao,                  UiT The Arctic U. of Norway,  Norway      (Gen1Int library)
  Christof Haettig,         Ruhr-University Bochum,       Germany     (CC module)
  Kasper Hald,              Aarhus University,            Denmark     (CC module)
  Asger Halkier,            Aarhus University,            Denmark     (CC module)
  Frederik Beyer Hansen,    University of Copenhagen,     Denmark     (Parallel AO-SOPPA)
  Erik D. Hedegaard,        Univ. of Southern Denmark,    Denmark     (Polarizable embedding model, QM/MM)
  Hanne Heiberg,            University of Oslo,           Norway      (geometry analysis, selected one-electron integrals)
  Trygve Helgaker,          University of Oslo,           Norway      (DALTON; ABACUS, ERI, DFT modules, London, and much more)
  Alf Christian Hennum,     University of Oslo,           Norway      (Parity violation)
  Hinne Hettema,            University of Auckland,       New Zealand (quadratic response in RESPONS; SIRIUS supersymmetry)
  Eirik Hjertenaes,         NTNU,                         Norway      (Cholesky decomposition)
  Maria Francesca Iozzi,    University of Oslo,           Norway      (RPA)
  Brano Jansik              Technical Univ. of Ostrava    Czech Rep.  (DFT cubic response)
  Hans Joergen Aa. Jensen,  Univ. of Southern Denmark,    Denmark     (DALTON; SIRIUS, RESPONS, ABACUS modules, London, and much more)
  Dan Jonsson,              UiT The Arctic U. of Norway,  Norway      (cubic response in RESPONS module)
  Poul Joergensen,          Aarhus University,            Denmark     (RESPONS, ABACUS, and CC modules)
  Maciej Kaminski,          University of Warsaw,         Poland      (CPPh in RESPONS)
  Joanna Kauczor,           Linkoeping University,        Sweden      (Complex polarization propagator (CPP) module)
  Sheela Kirpekar,          Univ. of Southern Denmark,    Denmark     (Mass-velocity & Darwin integrals)
  Wim Klopper,              KIT Karlsruhe,                Germany     (R12 code in CC, SIRIUS, and ABACUS modules)
  Stefan Knecht,            ETH Zurich,                   Switzerland (Parallel CI and MCSCF)
  Rika Kobayashi,           Australian National Univ.,    Australia   (DIIS in CC, London in MCSCF)
  Henrik Koch,              NTNU,                         Norway      (CC module, Cholesky decomposition)
  Jacob Kongsted,           Univ. of Southern Denmark,    Denmark     (Polarizable embedding model, QM/MM)
  Andrea Ligabue,           University of Modena,         Italy       (CTOCD, AOSOPPA)
  Nanna H. List             Univ. of Southern Denmark,    Denmark     (Polarizable embedding model)
  Ola B. Lutnaes,           University of Oslo,           Norway      (DFT Hessian)
  Juan I. Melo,             University of Buenos Aires,   Argentina   (LRESC, Relativistic Effects on NMR Shieldings)
  Kurt V. Mikkelsen,        University of Copenhagen,     Denmark     (MC-SCRF and QM/MM)
  Rolf H. Myhre,            NTNU,                         Norway      (Cholesky, subsystems and ECC2)
  Christian Neiss,          Univ. Erlangen-Nuernberg,     Germany     (CCSD(R12))
  Christian B. Nielsen,     University of Copenhagen,     Denmark     (QM/MM)
  Patrick Norman,           Linkoeping University,        Sweden      (Cubic response and complex frequency response in RESPONS)
  Jeppe Olsen,              Aarhus University,            Denmark     (SIRIUS CI/density modules)
  Jogvan Magnus H. Olsen,   Univ. of Southern Denmark,    Denmark     (Polarizable embedding model, QM/MM)
  Anders Osted,             Copenhagen University,        Denmark     (QM/MM)
  Martin J. Packer,         University of Sheffield,      UK          (SOPPA)
  Filip Pawlowski,          Kazimierz Wielki University,  Poland      (CC3)
  Morten N. Pedersen,       Univ. of Southern Denmark,    Denmark     (Polarizable embedding model)
  Thomas B. Pedersen,       University of Oslo,           Norway      (Cholesky decomposition)
  Patricio F. Provasi,      University of Northeastern,   Argentina   (Analysis of coupling constants in localized orbitals)
  Zilvinas Rinkevicius,     KTH Stockholm,                Sweden      (open-shell DFT, ESR)
  Elias Rudberg,            KTH Stockholm,                Sweden      (DFT grid and basis info)
  Torgeir A. Ruden,         University of Oslo,           Norway      (Numerical derivatives in ABACUS)
  Kenneth Ruud,             UiT The Arctic U. of Norway,  Norway      (DALTON; ABACUS magnetic properties and much more)
  Pawel Salek,              KTH Stockholm,                Sweden      (DALTON; DFT code)
  Claire C. M. Samson       University of Karlsruhe       Germany     (Boys localization, r12 integrals in ERI)
  Alfredo Sanchez de Meras, University of Valencia,       Spain       (CC module, Cholesky decomposition)
  Trond Saue,               Paul Sabatier University,     France      (direct Fock matrix construction)
  Stephan P. A. Sauer,      University of Copenhagen,     Denmark     (SOPPA(CCSD), SOPPA prop., AOSOPPA, vibrational g-factors)
  Bernd Schimmelpfennig,    Forschungszentrum Karlsruhe,  Germany     (AMFI module)
  Kristian Sneskov,         Aarhus University,            Denmark     (Polarizable embedding model, QM/MM)
  Arnfinn H. Steindal,      UiT The Arctic U. of Norway,  Norway      (parallel QM/MM, Polarizable embedding model)
  Casper Steinmann,         Univ. of Southern Denmark,    Denmark     (QFIT, Polarizable embedding model)
  K. O. Sylvester-Hvid,     University of Copenhagen,     Denmark     (MC-SCRF)
  Peter R. Taylor,          VLSCI/Univ. of Melbourne,     Australia   (Symmetry handling ABACUS, integral transformation)
  Andrew M. Teale,          University of Nottingham,     England     (DFT-AC, DFT-D)
  David P. Tew,             University of Bristol,        England     (CCSD(R12))
  Olav Vahtras,             KTH Stockholm,                Sweden      (triplet response, spin-orbit, ESR, TDDFT, open-shell DFT)
  David J. Wilson,          La Trobe University,          Australia   (DFT Hessian and DFT magnetizabilities)
  Hans Agren,               KTH Stockholm,                Sweden      (SIRIUS module, RESPONS, MC-SCRF solvation model)
 --------------------------------------------------------------------------------

     Date and time (Linux)  : Mon Feb 29 14:22:32 2016
     Host name              : merzbob                                 

 * Work memory size             :    64000000 =  488.28 megabytes.

 * Directories for basis set searches:
   1) /home/roberto/Workspace/robertodr/dalton/DALTON/test/extpcm_opa
   2) /home/roberto/Workspace/robertodr/dalton/build/basis


Compilation information
-----------------------

 Who compiled             | roberto
 Host                     | merzbob
 System                   | Linux-4.2.0-30-generic
 CMake generator          | Unix Makefiles
 Processor                | x86_64
 64-bit integers          | OFF
 MPI                      | OFF
 Fortran compiler         | /usr/bin/gfortran
 Fortran compiler version | GNU Fortran (Ubuntu 5.2.1-22ubuntu2) 5.2.1 2015101
                          | 0
 C compiler               | /usr/bin/gcc
 C compiler version       | gcc (Ubuntu 5.2.1-22ubuntu2) 5.2.1 20151010
 C++ compiler             | /usr/bin/g++
 C++ compiler version     | g++ (Ubuntu 5.2.1-22ubuntu2) 5.2.1 20151010
 BLAS                     | /opt/intel/compilers_and_libraries_2016.0.109/linu
                          | x/mkl/lib/intel64/libmkl_gf_lp64.so;/opt/intel/com
                          | pilers_and_libraries_2016.0.109/linux/mkl/lib/inte
                          | l64/libmkl_sequential.so;/opt/intel/compilers_and_
                          | libraries_2016.0.109/linux/mkl/lib/intel64/libmkl_
                          | core.so;/usr/lib/x86_64-linux-gnu/libpthread.so;/u
                          | sr/lib/x86_64-linux-gnu/libm.so
 LAPACK                   | /opt/intel/compilers_and_libraries_2016.0.109/linu
                          | x/mkl/lib/intel64/libmkl_lapack95_lp64.a;/opt/inte
                          | l/compilers_and_libraries_2016.0.109/linux/mkl/lib
                          | /intel64/libmkl_gf_lp64.so
 Static linking           | OFF
 Last Git revision        | 3c1a35ad6f43a8faee059f53eb844a269ae244c6
 Git branch               | roberto/pcm
 Configuration time       | 2016-02-29 14:10:17.181606


   Content of the .dal input file
 ----------------------------------

**DALTON INPUT                                    
.RUN WAVE                                         
.RUN RESPONSE                                     
.EXTPCM                                           
*EXTPCM                                           
.PRINT                                            
 1                                                
**WAVE FUNCTIONS                                  
.HF                                               
**RESPONSE                                        
*LINEAR                                           
.DIPLEN                                           
.SINGLE RESIDUE                                   
.ROOTS                                            
12                                                
**END OF DALTON INPUT                             


   Content of the .mol file
 ----------------------------

BASIS                                                                          
3-21G                                                                          
Water R(OH) = 0.95Aa , <HOH = 109 deg.                                         
Distance in Aangstroms                                                         
Atomtypes=2 NoSymmetry                                                         
Charge=8.0 Atoms=1                                                             
O      0.00000   0.00000   0.00000                                             
Charge=1.0 Atoms=2                                                             
H1     0.55168   0.77340   0.00000                                             
H2     0.55168  -0.77340   0.00000                                             


       *******************************************************************
       *********** Output from DALTON general input processing ***********
       *******************************************************************

 --------------------------------------------------------------------------------
   Overall default print level:    0
   Print level for DALTON.STAT:    1

    HERMIT 1- and 2-electron integral sections will be executed
    "Old" integral transformation used (limited to max 255 basis functions)
    Wave function sections will be executed (SIRIUS module)
    Dynamic molecular response properties section will be executed (RESPONSE module)
 --------------------------------------------------------------------------------


   ****************************************************************************
   *************** Output of molecule and basis set information ***************
   ****************************************************************************


    The two title cards from your ".mol" input:
    ------------------------------------------------------------------------
 1: Water R(OH) = 0.95Aa , <HOH = 109 deg.                                  
 2: Distance in Aangstroms                                                  
    ------------------------------------------------------------------------

  Atomic type no.    1
  --------------------
  Nuclear charge:   8.00000
  Number of symmetry independent centers:    1
  Number of basis sets to read;    2
  Basis set file used for this atomic type with Z =   8 :
     "/home/roberto/Workspace/robertodr/dalton/build/basis/3-21G"

  Info about the basis set file: your basis has no documentation.
  Basis set: 3-21G                                                                           

  Atomic type no.    2
  --------------------
  Nuclear charge:   1.00000
  Number of symmetry independent centers:    2
  Number of basis sets to read;    2
  Basis set file used for this atomic type with Z =   1 :
     "/home/roberto/Workspace/robertodr/dalton/build/basis/3-21G"

  Info about the basis set file: your basis has no documentation.
  Basis set: 3-21G                                                                           


                         SYMGRP: Point group information
                         -------------------------------

@    Point group: C1 


                                 Isotopic Masses
                                 ---------------

                           O          15.994915
                           H1          1.007825
                           H2          1.007825

                       Total mass:    18.010565 amu
                       Natural abundance:  99.730 %

 Center-of-mass coordinates (a.u.):    0.061741    0.000000    0.000000


  Atoms and basis sets
  --------------------

  Number of atom types :    2
  Total number of atoms:    3

  Basis set used is "3-21G" from the basis set library.

  label    atoms   charge   prim   cont     basis
  ----------------------------------------------------------------------
  O           1    8.0000    15     9      [6s3p|3s2p]                                        
  H2          2    1.0000     3     2      [3s|2s]                                            
  ----------------------------------------------------------------------
  total:      3   10.0000    21    13
  ----------------------------------------------------------------------

  Threshold for neglecting AO integrals:  1.00D-12


  Cartesian Coordinates (a.u.)
  ----------------------------

  Total number of coordinates:    9
  O       :     1  x   0.0000000000    2  y   0.0000000000    3  z   0.0000000000
  H1      :     4  x   0.5516800000    5  y   0.7734000000    6  z   0.0000000000
  H2      :     7  x   0.5516800000    8  y  -0.7734000000    9  z   0.0000000000


   Interatomic separations (in Angstrom):
   --------------------------------------

            O           H1          H2    
            ------      ------      ------
 O     :    0.000000
 H1    :    0.502718    0.000000
 H2    :    0.502718    0.818531    0.000000


  Max    interatomic separation is    0.8185 Angstrom (    1.5468 Bohr)
  between atoms    3 and    2, "H2    " and "H1    ".

  Min HX interatomic separation is    0.5027 Angstrom (    0.9500 Bohr)

@ WARNING: Number of short HX and YX bond lengths:    2    0
@ WARNING: If not intentional, maybe your coordinates were in Angstrom,
@ WARNING: but "Angstrom" was not specified in .mol file


  Bond distances (Angstrom):
  --------------------------

                  atom 1     atom 2       distance
                  ------     ------       --------
  bond distance:  H1         O            0.502718
  bond distance:  H2         O            0.502718
  bond distance:  H2         H1           0.818531


  Bond angles (degrees):
  ----------------------

                  atom 1     atom 2     atom 3         angle
                  ------     ------     ------         -----
  bond angle:     H1         O          H2           108.998
  bond angle:     O          H1         H2            35.501
  bond angle:     O          H2         H1            35.501




 Principal moments of inertia (u*A**2) and principal axes
 --------------------------------------------------------

   IA       0.152562          0.000000    1.000000    0.000000
   IB       0.337618          1.000000    0.000000    0.000000
   IC       0.490180          0.000000    0.000000    1.000000


 Rotational constants
 --------------------

@    The molecule is planar.

               A                   B                   C

        3312613.2088        1496895.4656        1031006.7051 MHz
          110.496883           49.931058           34.390682 cm-1


@  Nuclear repulsion energy :   17.488616348415 Hartree

  ===== Polarizable Continuum Model calculation set-up =====
 * Polarizable Continuum Model using PCMSolver external module:
   1: Converged potentials and charges at tesserae representative points written on file.
   2: Use total potentials and apparent charges.
   3: Do not print potentials and charges.


 * PCMSolver, an API for the Polarizable Continuum Model electrostatic problem. Version 1.0.4
   Main authors: R. Di Remigio, L. Frediani, K. Mozgawa
    With contributions from:
     R. Bast            (CMake framework)
     U. Ekstroem        (automatic differentiation library)
     J. Juselius        (input parsing library and CMake framework)
   Theory: - J. Tomasi, B. Mennucci and R. Cammi:
            "Quantum Mechanical Continuum Solvation Models", Chem. Rev., 105 (2005) 2999
   PCMSolver is distributed under the terms of the GNU Lesser General Public License.


~~~~~~~~~~ PCMSolver ~~~~~~~~~~
Using CODATA 2010 set of constants.
Input parsing done API-side
========== Cavity 
Cavity type: GePol
Average area = 1.07132 AU^2
Probe radius = 2.61727 AU
Number of spheres = 3 [initial = 3; added = 0]
Number of finite elements = 164
========== Static solver 
Solver Type: IEFPCM, isotropic
PCM matrix NOT hermitivitized (matches old DALTON)
============ Medium 
Medium initialized from solvent built-in data.
Solvent name:          Water
Static  permittivity = 78.39
Optical permittivity = 1.776
Solvent radius =       1.385
.... Inside 
Green's function type: vacuum
.... Outside 
Green's function type: uniform dielectric
Permittivity = 78.39

 PCMSolver interface correctly initialized


                     .---------------------------------------.
                     | Starting in Integral Section (HERMIT) |
                     `---------------------------------------'



 ***************************************************************************************
 ****************** Output from **INTEGRALS input processing (HERMIT) ******************
 ***************************************************************************************


 - Using defaults, no **INTEGRALS input found

 Default print level:        1

 * Nuclear model: Point charge

 Calculation of one- and two-electron Hamiltonian integrals.

 Center of mass  (bohr):      0.061741194238      0.000000000000      0.000000000000
 Operator center (bohr):      0.000000000000      0.000000000000      0.000000000000
 Gauge origin    (bohr):      0.000000000000      0.000000000000      0.000000000000
 Dipole origin   (bohr):      0.000000000000      0.000000000000      0.000000000000


     ************************************************************************
     ************************** Output from HERINT **************************
     ************************************************************************


 Threshold for neglecting two-electron integrals:  1.00D-12
 HERMIT - Number of two-electron integrals written:        2260 ( 54.0% )
 HERMIT - Megabytes written:                              0.027

  Total CPU  time used in HERMIT:   0.01 seconds
  Total wall time used in HERMIT:   0.01 seconds


                        .----------------------------------.
                        | End of Integral Section (HERMIT) |
                        `----------------------------------'



                   .--------------------------------------------.
                   | Starting in Wave Function Section (SIRIUS) |
                   `--------------------------------------------'


 *** Output from Huckel module :

     Using EWMO model:          T
     Using EHT  model:          F
     Number of Huckel orbitals each symmetry:    7

 EWMO - Energy Weighted Maximum Overlap - is a Huckel type method,
        which normally is better than Extended Huckel Theory.
 Reference: Linderberg and Ohrn, Propagators in Quantum Chemistry (Wiley, 1973)

 Huckel EWMO eigenvalues for symmetry :  1
          -20.705062      -1.945824      -0.739359      -0.648877      -0.616200
           -0.087290      -0.037290

 **********************************************************************
 *SIRIUS* a direct, restricted step, second order MCSCF program       *
 **********************************************************************

 
     Date and time (Linux)  : Mon Feb 29 14:22:33 2016
     Host name              : merzbob                                 

 Title lines from ".mol" input file:
     Water R(OH) = 0.95Aa , <HOH = 109 deg.                                  
     Distance in Aangstroms                                                  

 Print level on unit LUPRI =   2 is   0
 Print level on unit LUW4  =   2 is   5

@    Restricted, closed shell Hartree-Fock calculation.

@    Time-dependent Hartree-Fock calculation (random phase approximation).

 Initial molecular orbitals are obtained according to
 ".MOSTART EWMO  " input option

     Wave function specification
     ============================
@    Wave function type        --- HF ---
@    Number of closed shell electrons          10
@    Number of electrons in active shells       0
@    Total charge of the molecule               0

@    Spin multiplicity and 2 M_S                1         0
@    Total number of symmetries                 1 (point group: C1 )
@    Reference state symmetry                   1 (irrep name : A  )

     Orbital specifications
     ======================
@    Abelian symmetry species          All |    1
@                                          |  A  
                                       --- |  ---
@    Occupied SCF orbitals               5 |    5
@    Secondary orbitals                  8 |    8
@    Total number of orbitals           13 |   13
@    Number of basis functions          13 |   13

     Optimization information
     ========================
@    Number of configurations                 1
@    Number of orbital rotations             40
     ------------------------------------------
@    Total number of variables               41

     Maximum number of Fock   iterations      0
     Maximum number of DIIS   iterations     60
     Maximum number of QC-SCF iterations     60
     Threshold for SCF convergence     1.00D-05


 ***********************************************
 ***** DIIS acceleration of SCF iterations *****
 ***********************************************

 C1-DIIS algorithm; max error vectors =    8

 Iter      Total energy       Solvation energy    Error norm    Delta(E)
 -----------------------------------------------------------------------------
     (Precalculated two-electron integrals are transformed to P-supermatrix elements.
      Threshold for discarding integrals :  1.00D-12 )
@  1  -73.4562265615     -5.064840255846E-03    3.33890D+00   -7.35D+01
      Virial theorem: -V/T =      1.953739
@      MULPOP O      -0.49; H1      0.25; H2      0.25; 
   1  Level shift: doubly occupied orbital energies shifted by -2.00D-01
 -----------------------------------------------------------------------------
@  2  -74.0246332900     -7.117203164233E-03    9.66963D-01   -5.68D-01
      Virial theorem: -V/T =      1.918093
@      MULPOP O      -0.28; H1      0.14; H2      0.14; 
   2  Level shift: doubly occupied orbital energies shifted by -1.00D-01
 -----------------------------------------------------------------------------
@  3  -74.0652792513     -8.006591294586E-03    2.64793D-01   -4.06D-02
      Virial theorem: -V/T =      1.931970
@      MULPOP O      -0.16; H1      0.08; H2      0.08; 
   3  Level shift: doubly occupied orbital energies shifted by -5.00D-02
 -----------------------------------------------------------------------------
@  4  -74.0689705405     -8.629785644626E-03    4.78270D-02   -3.69D-03
      Virial theorem: -V/T =      1.928634
@      MULPOP O      -0.18; H1      0.09; H2      0.09; 
   4  Level shift: doubly occupied orbital energies shifted by -1.25D-02
 -----------------------------------------------------------------------------
@  5  -74.0692012134     -8.904850426584E-03    6.82192D-03   -2.31D-04
      Virial theorem: -V/T =      1.928347
@      MULPOP O      -0.19; H1      0.10; H2      0.10; 
 -----------------------------------------------------------------------------
@  6  -74.0692076155     -8.952994694874E-03    7.03098D-04   -6.40D-06
      Virial theorem: -V/T =      1.928386
@      MULPOP O      -0.19; H1      0.10; H2      0.10; 
 -----------------------------------------------------------------------------
@  7  -74.0692076864     -8.955496414982E-03    7.07681D-05   -7.09D-08
      Virial theorem: -V/T =      1.928388
@      MULPOP O      -0.19; H1      0.10; H2      0.10; 
 -----------------------------------------------------------------------------
@  8  -74.0692076869     -8.955639003483E-03    2.52140D-06   -5.30D-10

@ *** DIIS converged in   8 iterations !
@     Converged SCF energy, gradient:    -74.069207686915    2.52D-06
    - total time used in SIRFCK :              0.00 seconds


 *** SCF orbital energy analysis ***

 Number of electrons :   10
 Orbital occupations :    5

 Sym       Hartree-Fock orbital energies

1 A     -20.39348115    -1.69657441    -1.03519314    -0.61177420    -0.54082189
          0.36741494     0.44765591     1.54165608     1.54268399     1.74495821
          2.50607142     2.62134262     3.51708402

    E(LUMO) :     0.36741494 au (symmetry 1)
  - E(HOMO) :    -0.54082189 au (symmetry 1)
  ------------------------------------------
    gap     :     0.90823684 au

 --- Writing SIRIFC interface file

 CPU and wall time for SCF :       0.976       0.974


                       .-----------------------------------.
                       | --- Final results from SIRIUS --- |
                       `-----------------------------------'


@    Spin multiplicity:           1
@    Spatial symmetry:            1 ( irrep  A   in C1  )
@    Total charge of molecule:    0

     SOLVATION MODEL: polarizable continuum model (PCM),

       Solvation energy:          -0.008955639003

@    Final HF energy:             -74.069207686915                 
@    Nuclear repulsion:            17.488616348415
@    Electronic energy:           -91.548868396326

@    Final gradient norm:           0.000002521399

 
     Date and time (Linux)  : Mon Feb 29 14:22:34 2016
     Host name              : merzbob                                 

File label for MO orbitals:  29Feb16   FOCKDIIS

 (Only coefficients > 0.0100 are printed.)

 Molecular orbitals for symmetry species 1  (A  )
 ------------------------------------------------

    Orbital         1        2        3        4        5        6        7
   1 O   :1s    -0.9826   0.2472   0.0000   0.0860   0.0000   0.1174   0.0000
   2 O   :1s    -0.1040  -0.2314   0.0000  -0.0748  -0.0000  -0.0251   0.0000
   3 O   :1s     0.0387  -0.3278  -0.0000  -0.4263  -0.0000  -1.5597  -0.0000
   4 O   :2px   -0.0078  -0.1976   0.0000   0.4979  -0.0000  -0.0585   0.0000
   5 O   :2py   -0.0000  -0.0000   0.5121   0.0000  -0.0000  -0.0000   0.1975
   6 O   :2pz   -0.0000   0.0000  -0.0000  -0.0000  -0.5415   0.0000  -0.0000
   7 O   :2px    0.0016  -0.0042  -0.0000   0.4925  -0.0000  -0.1496  -0.0000
   8 O   :2py    0.0000  -0.0000   0.1633   0.0000  -0.0000  -0.0000   0.7586
   9 O   :2pz   -0.0000   0.0000  -0.0000  -0.0000  -0.6129   0.0000  -0.0000
  10 H1  :1s     0.0079  -0.2889   0.3549   0.1015   0.0000  -0.0205   0.0432
  11 H1  :1s    -0.0110  -0.0085   0.1335  -0.0341   0.0000   1.0595  -2.3648
  12 H2  :1s     0.0079  -0.2889  -0.3549   0.1015   0.0000  -0.0205  -0.0432
  13 H2  :1s    -0.0110  -0.0085  -0.1335  -0.0341   0.0000   1.0595   2.3648

    Orbital         8        9       10       11       12       13
   1 O   :1s    -0.0000  -0.0383  -0.0000  -0.0264  -0.0000   0.0679
   2 O   :1s    -0.0000  -0.0394   0.0000   0.4954   0.0000  -1.7112
   3 O   :1s     0.0000   1.9565   0.0000  -3.4129  -0.0000   0.7607
   4 O   :2px   -0.0000  -0.6851   0.0000  -0.8155   0.0000  -0.4057
   5 O   :2py    0.2466  -0.0000   0.0000  -0.0000  -1.2003  -0.0000
   6 O   :2pz    0.0000  -0.0000   1.0188   0.0000   0.0000   0.0000
   7 O   :2px    0.0000   1.4900   0.0000  -0.6103  -0.0000  -0.2295
   8 O   :2py   -2.2588   0.0000   0.0000  -0.0000   0.2143   0.0000
   9 O   :2pz    0.0000  -0.0000  -0.9775   0.0000   0.0000   0.0000
  10 H1  :1s     1.0557  -0.7608  -0.0000   1.4581   1.1131   0.9579
  11 H1  :1s     1.4125  -0.4894  -0.0000   0.5606  -0.8306  -0.4356
  12 H2  :1s    -1.0557  -0.7608  -0.0000   1.4581  -1.1131   0.9579
  13 H2  :1s    -1.4125  -0.4894  -0.0000   0.5606   0.8306  -0.4356

  Total CPU  time used in SIRIUS :   1.00 seconds
  Total wall time used in SIRIUS :   1.00 seconds

 
     Date and time (Linux)  : Mon Feb 29 14:22:34 2016
     Host name              : merzbob                                 

 NOTE:    1 warnings have been issued.
 Check output, result, and error files for "WARNING".


                     .---------------------------------------.
                     | End of Wave Function Section (SIRIUS) |
                     `---------------------------------------'



                 .------------------------------------------------.
                 | Starting in Dynamic Property Section (RESPONS) |
                 `------------------------------------------------'


 ------------------------------------------------------------------------------
  RESPONSE  -  an MCSCF, MC-srDFT, DFT, and SOPPA response property program
 ------------------------------------------------------------------------------


 -------- OUTPUT FROM RESPONSE INPUT PROCESSING --------




  Linear Response single residue calculation
 -------------------------------------------


    3 input options by user.

 Print level                                    : IPRPP  =   2
 Maximum number of iterations for eigenval.eqs. : MAXITP =  60
 Threshold for convergence of eigenvalue eqs.   : THCPP  = 1.000D-03
 Maximum iterations in optimal orbital algorithm: MAXITO =   5

     12 Excitation energies are calculated for symmetry no.    1

      3 property residues are calculated with labels:

               XDIPLEN 
               YDIPLEN 
               ZDIPLEN 

 Integral transformation: Total CPU and WALL times (sec)       0.000       0.001

 Sorting integrals to Dirac format: Total CPU and WALL times (sec)       0.000       0.001


   SCF energy         :      -74.069207686914581
 -- inactive part     :      -91.548868396326299
 -- nuclear repulsion :       17.488616348415210


                     ***************************************
                     *** RHF response calculation (TDHF) ***
                     ***************************************

 ----------------------------------------------------------------
 ----- Linear response calculation
 ----- Symmetry of excitation/property operator(s)    1  ( A  )
 ----------------------------------------------------------------

 Number of excitations of this symmetry           12
 Number of response properties of this symmetry    0
 Number of C6/C8 properties of this symmetry       0


 Perturbation symmetry.     KSYMOP:       1
 Perturbation spin symmetry.TRPLET:       F
 Orbital variables.         KZWOPT:      40
 Configuration variables.   KZCONF:       0
 Total number of variables. KZVAR :      40



 --- EXCITATION ENERGIES AND TRANSITION MOMENT CALCULATION (MCTDHF) ---

 Operator symmetry = 1  ( A  ); triplet =   F

RSPORT:    1 out of    5 new trial vectors linear dependent
RSPORT:    1 out of    2 new trial vectors linear dependent

 *** THE REQUESTED   12 SOLUTION VECTORS CONVERGED

 Convergence of RSP solution vectors, threshold = 1.00D-03
 ---------------------------------------------------------------
 (dimension of paired reduced space:   78)
 RSP solution vector no.    1; norm of residual   1.26D-07
 RSP solution vector no.    2; norm of residual   1.00D-07
 RSP solution vector no.    3; norm of residual   2.09D-08
 RSP solution vector no.    4; norm of residual   1.04D-04
 RSP solution vector no.    5; norm of residual   7.11D-04
 RSP solution vector no.    6; norm of residual   1.01D-07
 RSP solution vector no.    7; norm of residual   8.40D-08
 RSP solution vector no.    8; norm of residual   1.41D-08
 RSP solution vector no.    9; norm of residual   1.66D-07
 RSP solution vector no.   10; norm of residual   4.67D-04
 RSP solution vector no.   11; norm of residual   4.20D-08
 RSP solution vector no.   12; norm of residual   3.23D-08

 *** RSPCTL MICROITERATIONS CONVERGED

@ Transition operator type:    XDIPLEN 
@ STATE NO:    1 *TRANSITION MOMENT: -1.46081751E-15 *ENERGY(eV):   14.527176    
@ STATE NO:    2 *TRANSITION MOMENT:  0.30209326     *ENERGY(eV):   16.919208    
@ STATE NO:    3 *TRANSITION MOMENT: -6.10875493E-15 *ENERGY(eV):   17.050749    
@ STATE NO:    4 *TRANSITION MOMENT: -3.23519166E-15 *ENERGY(eV):   19.318570    
@ STATE NO:    5 *TRANSITION MOMENT:  2.66918015E-15 *ENERGY(eV):   27.409563    
@ STATE NO:    6 *TRANSITION MOMENT:  0.25781142     *ENERGY(eV):   30.811475    
@ STATE NO:    7 *TRANSITION MOMENT:  7.37198669E-16 *ENERGY(eV):   41.328328    
@ STATE NO:    8 *TRANSITION MOMENT:  6.52255849E-15 *ENERGY(eV):   42.492350    
@ STATE NO:    9 *TRANSITION MOMENT:  0.20990282     *ENERGY(eV):   43.549680    
@ STATE NO:   10 *TRANSITION MOMENT: -1.09262776E-14 *ENERGY(eV):   45.357307    
@ STATE NO:   11 *TRANSITION MOMENT: -0.18947789     *ENERGY(eV):   45.624470    
@ STATE NO:   12 *TRANSITION MOMENT: -8.78140385E-16 *ENERGY(eV):   46.390397    

@ Transition operator type:    YDIPLEN 
@ STATE NO:    1 *TRANSITION MOMENT: -8.89657649E-16 *ENERGY(eV):   14.527176    
@ STATE NO:    2 *TRANSITION MOMENT: -9.10382486E-15 *ENERGY(eV):   16.919208    
@ STATE NO:    3 *TRANSITION MOMENT:  1.03733738E-15 *ENERGY(eV):   17.050749    
@ STATE NO:    4 *TRANSITION MOMENT: -8.66842563E-02 *ENERGY(eV):   19.318570    
@ STATE NO:    5 *TRANSITION MOMENT:  0.47549225     *ENERGY(eV):   27.409563    
@ STATE NO:    6 *TRANSITION MOMENT:  2.26037040E-14 *ENERGY(eV):   30.811475    
@ STATE NO:    7 *TRANSITION MOMENT:  4.08984788E-16 *ENERGY(eV):   41.328328    
@ STATE NO:    8 *TRANSITION MOMENT:  1.28976895E-15 *ENERGY(eV):   42.492350    
@ STATE NO:    9 *TRANSITION MOMENT: -9.49484935E-14 *ENERGY(eV):   43.549680    
@ STATE NO:   10 *TRANSITION MOMENT: -0.68067475     *ENERGY(eV):   45.357307    
@ STATE NO:   11 *TRANSITION MOMENT: -1.15410676E-13 *ENERGY(eV):   45.624470    
@ STATE NO:   12 *TRANSITION MOMENT:  6.02680744E-15 *ENERGY(eV):   46.390397    

@ Transition operator type:    ZDIPLEN 
@ STATE NO:    1 *TRANSITION MOMENT: -0.47494185     *ENERGY(eV):   14.527176    
@ STATE NO:    2 *TRANSITION MOMENT: -1.98363819E-15 *ENERGY(eV):   16.919208    
@ STATE NO:    3 *TRANSITION MOMENT: -2.09457138E-14 *ENERGY(eV):   17.050749    
@ STATE NO:    4 *TRANSITION MOMENT: -4.18308834E-16 *ENERGY(eV):   19.318570    
@ STATE NO:    5 *TRANSITION MOMENT: -1.78133467E-16 *ENERGY(eV):   27.409563    
@ STATE NO:    6 *TRANSITION MOMENT:  1.02095313E-15 *ENERGY(eV):   30.811475    
@ STATE NO:    7 *TRANSITION MOMENT: -0.19990560     *ENERGY(eV):   41.328328    
@ STATE NO:    8 *TRANSITION MOMENT: -1.35319327E-14 *ENERGY(eV):   42.492350    
@ STATE NO:    9 *TRANSITION MOMENT:  1.82388972E-16 *ENERGY(eV):   43.549680    
@ STATE NO:   10 *TRANSITION MOMENT: -1.72232287E-15 *ENERGY(eV):   45.357307    
@ STATE NO:   11 *TRANSITION MOMENT: -1.48242784E-15 *ENERGY(eV):   45.624470    
@ STATE NO:   12 *TRANSITION MOMENT:  0.25123075     *ENERGY(eV):   46.390397    


 **************************************************************************************
 *** @ Excit. operator sym 1 & ref. state sym 1 => excited state symmetry 1  ( A  ) ***
 **************************************************************************************



 @ Excited state no:    1 in symmetry 1  ( A  )
 ----------------------------------------------

@ Excitation energy :  0.53386392     au
@                      14.527176     eV;   117169.59     cm-1;   1401.6595     kJ / mol

@ Total energy :      -73.535344     au

@ Operator type:    XDIPLEN 
@ Oscillator strength (LENGTH)   :  7.59506067E-31  (Transition moment : -1.46081751E-15 )

@ Operator type:    YDIPLEN 
@ Oscillator strength (LENGTH)   :  2.81698899E-31  (Transition moment : -8.89657649E-16 )

@ Operator type:    ZDIPLEN 
@ Oscillator strength (LENGTH)   :  8.02823729E-02  (Transition moment : -0.47494185     )


 @ Excited state no:    2 in symmetry 1  ( A  )
 ----------------------------------------------

@ Excitation energy :  0.62176946     au
@                      16.919208     eV;   136462.62     cm-1;   1632.4555     kJ / mol

@ Total energy :      -73.447438     au

@ Operator type:    XDIPLEN 
@ Oscillator strength (LENGTH)   :  3.78285942E-02  (Transition moment :  0.30209326     )

@ Operator type:    YDIPLEN 
@ Oscillator strength (LENGTH)   :  3.43546809E-29  (Transition moment : -9.10382486E-15 )

@ Operator type:    ZDIPLEN 
@ Oscillator strength (LENGTH)   :  1.63103414E-30  (Transition moment : -1.98363819E-15 )


 @ Excited state no:    3 in symmetry 1  ( A  )
 ----------------------------------------------

@ Excitation energy :  0.62660352     au
@                      17.050749     eV;   137523.57     cm-1;   1645.1473     kJ / mol

@ Total energy :      -73.442604     au

@ Operator type:    XDIPLEN 
@ Oscillator strength (LENGTH)   :  1.55885950E-29  (Transition moment : -6.10875493E-15 )

@ Operator type:    YDIPLEN 
@ Oscillator strength (LENGTH)   :  4.49512345E-31  (Transition moment :  1.03733738E-15 )

@ Operator type:    ZDIPLEN 
@ Oscillator strength (LENGTH)   :  1.83270219E-28  (Transition moment : -2.09457138E-14 )


 @ Excited state no:    4 in symmetry 1  ( A  )
 ----------------------------------------------

@ Excitation energy :  0.70994442     au
@                      19.318570     eV;   155814.79     cm-1;   1863.9588     kJ / mol

@ Total energy :      -73.359263     au

@ Operator type:    XDIPLEN 
@ Oscillator strength (LENGTH)   :  4.95373899E-30  (Transition moment : -3.23519166E-15 )

@ Operator type:    YDIPLEN 
@ Oscillator strength (LENGTH)   :  3.55642412E-03  (Transition moment : -8.66842563E-02 )

@ Operator type:    ZDIPLEN 
@ Oscillator strength (LENGTH)   :  8.28184626E-32  (Transition moment : -4.18308834E-16 )


 @ Excited state no:    5 in symmetry 1  ( A  )
 ----------------------------------------------

@ Excitation energy :   1.0072829     au
@                      27.409563     eV;   221073.05     cm-1;   2644.6209     kJ / mol

@ Total energy :      -73.061925     au

@ Operator type:    XDIPLEN 
@ Oscillator strength (LENGTH)   :  4.78427332E-30  (Transition moment :  2.66918015E-15 )

@ Operator type:    YDIPLEN 
@ Oscillator strength (LENGTH)   :  0.15182633      (Transition moment :  0.47549225     )

@ Operator type:    ZDIPLEN 
@ Oscillator strength (LENGTH)   :  2.13084202E-32  (Transition moment : -1.78133467E-16 )


 @ Excited state no:    6 in symmetry 1  ( A  )
 ----------------------------------------------

@ Excitation energy :   1.1323009     au
@                      30.811475     eV;   248511.32     cm-1;   2972.8556     kJ / mol

@ Total energy :      -72.936907     au

@ Operator type:    XDIPLEN 
@ Oscillator strength (LENGTH)   :  5.01735580E-02  (Transition moment :  0.25781142     )

@ Operator type:    YDIPLEN 
@ Oscillator strength (LENGTH)   :  3.85682398E-28  (Transition moment :  2.26037040E-14 )

@ Operator type:    ZDIPLEN 
@ Oscillator strength (LENGTH)   :  7.86832342E-31  (Transition moment :  1.02095313E-15 )


 @ Excited state no:    7 in symmetry 1  ( A  )
 ----------------------------------------------

@ Excitation energy :   1.5187882     au
@                      41.328328     eV;   333335.47     cm-1;   3987.5777     kJ / mol

@ Total energy :      -72.550420     au

@ Operator type:    XDIPLEN 
@ Oscillator strength (LENGTH)   :  5.50268978E-31  (Transition moment :  7.37198669E-16 )

@ Operator type:    YDIPLEN 
@ Oscillator strength (LENGTH)   :  1.69363670E-31  (Transition moment :  4.08984788E-16 )

@ Operator type:    ZDIPLEN 
@ Oscillator strength (LENGTH)   :  4.04627931E-02  (Transition moment : -0.19990560     )


 @ Excited state no:    8 in symmetry 1  ( A  )
 ----------------------------------------------

@ Excitation energy :   1.5615652     au
@                      42.492350     eV;   342723.94     cm-1;   4099.8888     kJ / mol

@ Total energy :      -72.507643     au

@ Operator type:    XDIPLEN 
@ Oscillator strength (LENGTH)   :  4.42899126E-29  (Transition moment :  6.52255849E-15 )

@ Operator type:    YDIPLEN 
@ Oscillator strength (LENGTH)   :  1.73177989E-30  (Transition moment :  1.28976895E-15 )

@ Operator type:    ZDIPLEN 
@ Oscillator strength (LENGTH)   :  1.90628803E-28  (Transition moment : -1.35319327E-14 )


 @ Excited state no:    9 in symmetry 1  ( A  )
 ----------------------------------------------

@ Excitation energy :   1.6004213     au
@                      43.549680     eV;   351251.88     cm-1;   4201.9056     kJ / mol

@ Total energy :      -72.468786     au

@ Operator type:    XDIPLEN 
@ Oscillator strength (LENGTH)   :  4.70088476E-02  (Transition moment :  0.20990282     )

@ Operator type:    YDIPLEN 
@ Oscillator strength (LENGTH)   :  9.61876319E-27  (Transition moment : -9.49484935E-14 )

@ Operator type:    ZDIPLEN 
@ Oscillator strength (LENGTH)   :  3.54927971E-32  (Transition moment :  1.82388972E-16 )


 @ Excited state no:   10 in symmetry 1  ( A  )
 ----------------------------------------------

@ Excitation energy :   1.6668504     au
@                      45.357307     eV;   365831.38     cm-1;   4376.3151     kJ / mol

@ Total energy :      -72.402357     au

@ Operator type:    XDIPLEN 
@ Oscillator strength (LENGTH)   :  1.32663005E-28  (Transition moment : -1.09262776E-14 )

@ Operator type:    YDIPLEN 
@ Oscillator strength (LENGTH)   :  0.51485466      (Transition moment : -0.68067475     )

@ Operator type:    ZDIPLEN 
@ Oscillator strength (LENGTH)   :  3.29635900E-30  (Transition moment : -1.72232287E-15 )


 @ Excited state no:   11 in symmetry 1  ( A  )
 ----------------------------------------------

@ Excitation energy :   1.6766685     au
@                      45.624470     eV;   367986.19     cm-1;   4402.0924     kJ / mol

@ Total energy :      -72.392539     au

@ Operator type:    XDIPLEN 
@ Oscillator strength (LENGTH)   :  4.01303549E-02  (Transition moment : -0.18947789     )

@ Operator type:    YDIPLEN 
@ Oscillator strength (LENGTH)   :  1.48883961E-26  (Transition moment : -1.15410676E-13 )

@ Operator type:    ZDIPLEN 
@ Oscillator strength (LENGTH)   :  2.45642250E-30  (Transition moment : -1.48242784E-15 )


 @ Excited state no:   12 in symmetry 1  ( A  )
 ----------------------------------------------

@ Excitation energy :   1.7048158     au
@                      46.390397     eV;   374163.81     cm-1;   4475.9932     kJ / mol

@ Total energy :      -72.364392     au

@ Operator type:    XDIPLEN 
@ Oscillator strength (LENGTH)   :  8.76423675E-31  (Transition moment : -8.78140385E-16 )

@ Operator type:    YDIPLEN 
@ Oscillator strength (LENGTH)   :  4.12820097E-29  (Transition moment :  6.02680744E-15 )

@ Operator type:    ZDIPLEN 
@ Oscillator strength (LENGTH)   :  7.17351149E-02  (Transition moment :  0.25123075     )


 Time used in polarization propagator calculation is      0.71 CPU seconds for symmetry 1

  Total CPU  time used in RESPONSE:   0.71 seconds
  Total wall time used in RESPONSE:   0.72 seconds


                   .-------------------------------------------.
                   | End of Dynamic Property Section (RESPONS) |
                   `-------------------------------------------'



PCMSolver interface correctly finalized

  Total CPU  time used in DALTON:   2.31 seconds
  Total wall time used in DALTON:   2.31 seconds

 
     Date and time (Linux)  : Mon Feb 29 14:22:34 2016
     Host name              : merzbob                                 
