

     ************************************************************************
     *************** Dalton - An Electronic Structure Program ***************
     ************************************************************************

    This is output from DALTON release Dalton2017.alpha (2016)
         ( Web site: http://daltonprogram.org )

   ----------------------------------------------------------------------------

    NOTE:
     
    Dalton is an experimental code for the evaluation of molecular
    properties using (MC)SCF, DFT, CI, and CC wave functions.
    The authors accept no responsibility for the performance of
    the code or for the correctness of the results.
     
    The code (in whole or part) is provided under a licence and
    is not to be reproduced for further distribution without
    the written permission of the authors or their representatives.
     
    See the home page "http://daltonprogram.org" for further information.
     
    If results obtained with this code are published,
    the appropriate citations would be both of:
     
       K. Aidas, C. Angeli, K. L. Bak, V. Bakken, R. Bast,
       L. Boman, O. Christiansen, R. Cimiraglia, S. Coriani,
       J. Cukras, P. Dahle, E. K. Dalskov, U. Ekstroem,
       T. Enevoldsen, J. J. Eriksen, P. Ettenhuber, B. Fernandez,
       L. Ferrighi, H. Fliegl, L. Frediani, K. Hald, A. Halkier,
       C. Haettig, H. Heiberg, T. Helgaker, A. C. Hennum,
       H. Hettema, E. Hjertenaes, S. Hoest, I.-M. Hoeyvik,
       M. F. Iozzi, B. Jansik, H. J. Aa. Jensen, D. Jonsson,
       P. Joergensen, M. Kaminski, J. Kauczor, S. Kirpekar,
       T. Kjaergaard, W. Klopper, S. Knecht, R. Kobayashi, H. Koch,
       J. Kongsted, A. Krapp, K. Kristensen, A. Ligabue,
       O. B. Lutnaes, J. I. Melo, K. V. Mikkelsen, R. H. Myhre,
       C. Neiss, C. B. Nielsen, P. Norman, J. Olsen,
       J. M. H. Olsen, A. Osted, M. J. Packer, F. Pawlowski,
       T. B. Pedersen, P. F. Provasi, S. Reine, Z. Rinkevicius,
       T. A. Ruden, K. Ruud, V. Rybkin, P. Salek, C. C. M. Samson,
       A. Sanchez de Meras, T. Saue, S. P. A. Sauer,
       B. Schimmelpfennig, K. Sneskov, A. H. Steindal,
       K. O. Sylvester-Hvid, P. R. Taylor, A. M. Teale,
       E. I. Tellgren, D. P. Tew, A. J. Thorvaldsen, L. Thoegersen,
       O. Vahtras, M. A. Watson, D. J. D. Wilson, M. Ziolkowski
       and H. Agren,
       "The Dalton quantum chemistry program system",
       WIREs Comput. Mol. Sci. 2014, 4:269–284 (doi: 10.1002/wcms.1172)
     
    and
     
       Dalton, a Molecular Electronic Structure Program,
       Release Dalton2017.alpha (2016), see http://daltonprogram.org
   ----------------------------------------------------------------------------

    Authors in alphabetical order (major contribution(s) in parenthesis):

  Kestutis Aidas,           Vilnius University,           Lithuania   (QM/MM)
  Celestino Angeli,         University of Ferrara,        Italy       (NEVPT2)
  Keld L. Bak,              UNI-C,                        Denmark     (AOSOPPA, non-adiabatic coupling, magnetic properties)
  Vebjoern Bakken,          University of Oslo,           Norway      (DALTON; geometry optimizer, symmetry detection)
  Radovan Bast,             UiT The Arctic U. of Norway,  Norway      (DALTON installation and execution frameworks)
  Pablo Baudin,             University of Valencia,       Spain       (Cholesky excitation energies)
  Linus Boman,              NTNU,                         Norway      (Cholesky decomposition and subsystems)
  Ove Christiansen,         Aarhus University,            Denmark     (CC module)
  Renzo Cimiraglia,         University of Ferrara,        Italy       (NEVPT2)
  Sonia Coriani,            University of Trieste,        Italy       (CC module, MCD in RESPONS)
  Janusz Cukras,            University of Trieste,        Italy       (MChD in RESPONS)
  Paal Dahle,               University of Oslo,           Norway      (Parallelization)
  Erik K. Dalskov,          UNI-C,                        Denmark     (SOPPA)
  Thomas Enevoldsen,        Univ. of Southern Denmark,    Denmark     (SOPPA)
  Janus J. Eriksen,         Aarhus University,            Denmark     (Polarizable embedding model, TDA)
  Rasmus Faber,             University of Copenhagen,     Denmark     (Vib.avg. NMR with SOPPA, parallel AO-SOPPA)
  Berta Fernandez,          U. of Santiago de Compostela, Spain       (doublet spin, ESR in RESPONS)
  Lara Ferrighi,            Aarhus University,            Denmark     (PCM Cubic response)
  Heike Fliegl,             University of Oslo,           Norway      (CCSD(R12))
  Luca Frediani,            UiT The Arctic U. of Norway,  Norway      (PCM)
  Bin Gao,                  UiT The Arctic U. of Norway,  Norway      (Gen1Int library)
  Christof Haettig,         Ruhr-University Bochum,       Germany     (CC module)
  Kasper Hald,              Aarhus University,            Denmark     (CC module)
  Asger Halkier,            Aarhus University,            Denmark     (CC module)
  Frederik Beyer Hansen,    University of Copenhagen,     Denmark     (Parallel AO-SOPPA)
  Erik D. Hedegaard,        Univ. of Southern Denmark,    Denmark     (Polarizable embedding model, QM/MM)
  Hanne Heiberg,            University of Oslo,           Norway      (geometry analysis, selected one-electron integrals)
  Trygve Helgaker,          University of Oslo,           Norway      (DALTON; ABACUS, ERI, DFT modules, London, and much more)
  Alf Christian Hennum,     University of Oslo,           Norway      (Parity violation)
  Hinne Hettema,            University of Auckland,       New Zealand (quadratic response in RESPONS; SIRIUS supersymmetry)
  Eirik Hjertenaes,         NTNU,                         Norway      (Cholesky decomposition)
  Maria Francesca Iozzi,    University of Oslo,           Norway      (RPA)
  Brano Jansik              Technical Univ. of Ostrava    Czech Rep.  (DFT cubic response)
  Hans Joergen Aa. Jensen,  Univ. of Southern Denmark,    Denmark     (DALTON; SIRIUS, RESPONS, ABACUS modules, London, and much more)
  Dan Jonsson,              UiT The Arctic U. of Norway,  Norway      (cubic response in RESPONS module)
  Poul Joergensen,          Aarhus University,            Denmark     (RESPONS, ABACUS, and CC modules)
  Maciej Kaminski,          University of Warsaw,         Poland      (CPPh in RESPONS)
  Joanna Kauczor,           Linkoeping University,        Sweden      (Complex polarization propagator (CPP) module)
  Sheela Kirpekar,          Univ. of Southern Denmark,    Denmark     (Mass-velocity & Darwin integrals)
  Wim Klopper,              KIT Karlsruhe,                Germany     (R12 code in CC, SIRIUS, and ABACUS modules)
  Stefan Knecht,            ETH Zurich,                   Switzerland (Parallel CI and MCSCF)
  Rika Kobayashi,           Australian National Univ.,    Australia   (DIIS in CC, London in MCSCF)
  Henrik Koch,              NTNU,                         Norway      (CC module, Cholesky decomposition)
  Jacob Kongsted,           Univ. of Southern Denmark,    Denmark     (Polarizable embedding model, QM/MM)
  Andrea Ligabue,           University of Modena,         Italy       (CTOCD, AOSOPPA)
  Nanna H. List             Univ. of Southern Denmark,    Denmark     (Polarizable embedding model)
  Ola B. Lutnaes,           University of Oslo,           Norway      (DFT Hessian)
  Juan I. Melo,             University of Buenos Aires,   Argentina   (LRESC, Relativistic Effects on NMR Shieldings)
  Kurt V. Mikkelsen,        University of Copenhagen,     Denmark     (MC-SCRF and QM/MM)
  Rolf H. Myhre,            NTNU,                         Norway      (Cholesky, subsystems and ECC2)
  Christian Neiss,          Univ. Erlangen-Nuernberg,     Germany     (CCSD(R12))
  Christian B. Nielsen,     University of Copenhagen,     Denmark     (QM/MM)
  Patrick Norman,           Linkoeping University,        Sweden      (Cubic response and complex frequency response in RESPONS)
  Jeppe Olsen,              Aarhus University,            Denmark     (SIRIUS CI/density modules)
  Jogvan Magnus H. Olsen,   Univ. of Southern Denmark,    Denmark     (Polarizable embedding model, QM/MM)
  Anders Osted,             Copenhagen University,        Denmark     (QM/MM)
  Martin J. Packer,         University of Sheffield,      UK          (SOPPA)
  Filip Pawlowski,          Kazimierz Wielki University,  Poland      (CC3)
  Morten N. Pedersen,       Univ. of Southern Denmark,    Denmark     (Polarizable embedding model)
  Thomas B. Pedersen,       University of Oslo,           Norway      (Cholesky decomposition)
  Patricio F. Provasi,      University of Northeastern,   Argentina   (Analysis of coupling constants in localized orbitals)
  Zilvinas Rinkevicius,     KTH Stockholm,                Sweden      (open-shell DFT, ESR)
  Elias Rudberg,            KTH Stockholm,                Sweden      (DFT grid and basis info)
  Torgeir A. Ruden,         University of Oslo,           Norway      (Numerical derivatives in ABACUS)
  Kenneth Ruud,             UiT The Arctic U. of Norway,  Norway      (DALTON; ABACUS magnetic properties and much more)
  Pawel Salek,              KTH Stockholm,                Sweden      (DALTON; DFT code)
  Claire C. M. Samson       University of Karlsruhe       Germany     (Boys localization, r12 integrals in ERI)
  Alfredo Sanchez de Meras, University of Valencia,       Spain       (CC module, Cholesky decomposition)
  Trond Saue,               Paul Sabatier University,     France      (direct Fock matrix construction)
  Stephan P. A. Sauer,      University of Copenhagen,     Denmark     (SOPPA(CCSD), SOPPA prop., AOSOPPA, vibrational g-factors)
  Bernd Schimmelpfennig,    Forschungszentrum Karlsruhe,  Germany     (AMFI module)
  Kristian Sneskov,         Aarhus University,            Denmark     (Polarizable embedding model, QM/MM)
  Arnfinn H. Steindal,      UiT The Arctic U. of Norway,  Norway      (parallel QM/MM, Polarizable embedding model)
  Casper Steinmann,         Univ. of Southern Denmark,    Denmark     (QFIT, Polarizable embedding model)
  K. O. Sylvester-Hvid,     University of Copenhagen,     Denmark     (MC-SCRF)
  Peter R. Taylor,          VLSCI/Univ. of Melbourne,     Australia   (Symmetry handling ABACUS, integral transformation)
  Andrew M. Teale,          University of Nottingham,     England     (DFT-AC, DFT-D)
  David P. Tew,             University of Bristol,        England     (CCSD(R12))
  Olav Vahtras,             KTH Stockholm,                Sweden      (triplet response, spin-orbit, ESR, TDDFT, open-shell DFT)
  David J. Wilson,          La Trobe University,          Australia   (DFT Hessian and DFT magnetizabilities)
  Hans Agren,               KTH Stockholm,                Sweden      (SIRIUS module, RESPONS, MC-SCRF solvation model)
 --------------------------------------------------------------------------------

     Date and time (Linux)  : Mon Feb 29 14:22:41 2016
     Host name              : merzbob                                 

 * Work memory size             :    64000000 =  488.28 megabytes.

 * Directories for basis set searches:
   1) /home/roberto/Workspace/robertodr/dalton/DALTON/test/extpcm_opa
   2) /home/roberto/Workspace/robertodr/dalton/build/basis


Compilation information
-----------------------

 Who compiled             | roberto
 Host                     | merzbob
 System                   | Linux-4.2.0-30-generic
 CMake generator          | Unix Makefiles
 Processor                | x86_64
 64-bit integers          | OFF
 MPI                      | OFF
 Fortran compiler         | /usr/bin/gfortran
 Fortran compiler version | GNU Fortran (Ubuntu 5.2.1-22ubuntu2) 5.2.1 2015101
                          | 0
 C compiler               | /usr/bin/gcc
 C compiler version       | gcc (Ubuntu 5.2.1-22ubuntu2) 5.2.1 20151010
 C++ compiler             | /usr/bin/g++
 C++ compiler version     | g++ (Ubuntu 5.2.1-22ubuntu2) 5.2.1 20151010
 BLAS                     | /opt/intel/compilers_and_libraries_2016.0.109/linu
                          | x/mkl/lib/intel64/libmkl_gf_lp64.so;/opt/intel/com
                          | pilers_and_libraries_2016.0.109/linux/mkl/lib/inte
                          | l64/libmkl_sequential.so;/opt/intel/compilers_and_
                          | libraries_2016.0.109/linux/mkl/lib/intel64/libmkl_
                          | core.so;/usr/lib/x86_64-linux-gnu/libpthread.so;/u
                          | sr/lib/x86_64-linux-gnu/libm.so
 LAPACK                   | /opt/intel/compilers_and_libraries_2016.0.109/linu
                          | x/mkl/lib/intel64/libmkl_lapack95_lp64.a;/opt/inte
                          | l/compilers_and_libraries_2016.0.109/linux/mkl/lib
                          | /intel64/libmkl_gf_lp64.so
 Static linking           | OFF
 Last Git revision        | 3c1a35ad6f43a8faee059f53eb844a269ae244c6
 Git branch               | roberto/pcm
 Configuration time       | 2016-02-29 14:10:17.181606


   Content of the .dal input file
 ----------------------------------

**DALTON INPUT                                    
.RUN WAVE                                         
.RUN RESPONSE                                     
.EXTPCM                                           
*EXTPCM                                           
.SEPARATE                                         
**WAVE FUNCTIONS                                  
.DFT                                              
 LDA                                              
**RESPONSE                                        
*LINEAR                                           
.DIPLEN                                           
.SINGLE RESIDUE                                   
.ROOTS                                            
12                                                
**END OF DALTON INPUT                             


   Content of the .mol file
 ----------------------------

BASIS                                                                          
3-21G                                                                          
Water R(OH) = 0.95Aa , <HOH = 109 deg.                                         
Distance in Aangstroms                                                         
Atomtypes=2 NoSymmetry                                                         
Charge=8.0 Atoms=1                                                             
O      0.00000   0.00000   0.00000                                             
Charge=1.0 Atoms=2                                                             
H1     0.55168   0.77340   0.00000                                             
H2     0.55168  -0.77340   0.00000                                             


       *******************************************************************
       *********** Output from DALTON general input processing ***********
       *******************************************************************

 --------------------------------------------------------------------------------
   Overall default print level:    0
   Print level for DALTON.STAT:    1

    HERMIT 1- and 2-electron integral sections will be executed
    "Old" integral transformation used (limited to max 255 basis functions)
    Wave function sections will be executed (SIRIUS module)
    Dynamic molecular response properties section will be executed (RESPONSE module)
 --------------------------------------------------------------------------------


   ****************************************************************************
   *************** Output of molecule and basis set information ***************
   ****************************************************************************


    The two title cards from your ".mol" input:
    ------------------------------------------------------------------------
 1: Water R(OH) = 0.95Aa , <HOH = 109 deg.                                  
 2: Distance in Aangstroms                                                  
    ------------------------------------------------------------------------

  Atomic type no.    1
  --------------------
  Nuclear charge:   8.00000
  Number of symmetry independent centers:    1
  Number of basis sets to read;    2
  Basis set file used for this atomic type with Z =   8 :
     "/home/roberto/Workspace/robertodr/dalton/build/basis/3-21G"

  Info about the basis set file: your basis has no documentation.
  Basis set: 3-21G                                                                           

  Atomic type no.    2
  --------------------
  Nuclear charge:   1.00000
  Number of symmetry independent centers:    2
  Number of basis sets to read;    2
  Basis set file used for this atomic type with Z =   1 :
     "/home/roberto/Workspace/robertodr/dalton/build/basis/3-21G"

  Info about the basis set file: your basis has no documentation.
  Basis set: 3-21G                                                                           


                         SYMGRP: Point group information
                         -------------------------------

@    Point group: C1 


                                 Isotopic Masses
                                 ---------------

                           O          15.994915
                           H1          1.007825
                           H2          1.007825

                       Total mass:    18.010565 amu
                       Natural abundance:  99.730 %

 Center-of-mass coordinates (a.u.):    0.061741    0.000000    0.000000


  Atoms and basis sets
  --------------------

  Number of atom types :    2
  Total number of atoms:    3

  Basis set used is "3-21G" from the basis set library.

  label    atoms   charge   prim   cont     basis
  ----------------------------------------------------------------------
  O           1    8.0000    15     9      [6s3p|3s2p]                                        
  H2          2    1.0000     3     2      [3s|2s]                                            
  ----------------------------------------------------------------------
  total:      3   10.0000    21    13
  ----------------------------------------------------------------------

  Threshold for neglecting AO integrals:  1.00D-12


  Cartesian Coordinates (a.u.)
  ----------------------------

  Total number of coordinates:    9
  O       :     1  x   0.0000000000    2  y   0.0000000000    3  z   0.0000000000
  H1      :     4  x   0.5516800000    5  y   0.7734000000    6  z   0.0000000000
  H2      :     7  x   0.5516800000    8  y  -0.7734000000    9  z   0.0000000000


   Interatomic separations (in Angstrom):
   --------------------------------------

            O           H1          H2    
            ------      ------      ------
 O     :    0.000000
 H1    :    0.502718    0.000000
 H2    :    0.502718    0.818531    0.000000


  Max    interatomic separation is    0.8185 Angstrom (    1.5468 Bohr)
  between atoms    3 and    2, "H2    " and "H1    ".

  Min HX interatomic separation is    0.5027 Angstrom (    0.9500 Bohr)

@ WARNING: Number of short HX and YX bond lengths:    2    0
@ WARNING: If not intentional, maybe your coordinates were in Angstrom,
@ WARNING: but "Angstrom" was not specified in .mol file


  Bond distances (Angstrom):
  --------------------------

                  atom 1     atom 2       distance
                  ------     ------       --------
  bond distance:  H1         O            0.502718
  bond distance:  H2         O            0.502718
  bond distance:  H2         H1           0.818531


  Bond angles (degrees):
  ----------------------

                  atom 1     atom 2     atom 3         angle
                  ------     ------     ------         -----
  bond angle:     H1         O          H2           108.998
  bond angle:     O          H1         H2            35.501
  bond angle:     O          H2         H1            35.501




 Principal moments of inertia (u*A**2) and principal axes
 --------------------------------------------------------

   IA       0.152562          0.000000    1.000000    0.000000
   IB       0.337618          1.000000    0.000000    0.000000
   IC       0.490180          0.000000    0.000000    1.000000


 Rotational constants
 --------------------

@    The molecule is planar.

               A                   B                   C

        3312613.2088        1496895.4656        1031006.7051 MHz
          110.496883           49.931058           34.390682 cm-1


@  Nuclear repulsion energy :   17.488616348415 Hartree

  ===== Polarizable Continuum Model calculation set-up =====
 * Polarizable Continuum Model using PCMSolver external module:
   1: Converged potentials and charges at tesserae representative points written on file.
   2: Separate potentials and apparent charges in nuclear and electronic.
   3: Do not print potentials and charges.


 * PCMSolver, an API for the Polarizable Continuum Model electrostatic problem. Version 1.0.4
   Main authors: R. Di Remigio, L. Frediani, K. Mozgawa
    With contributions from:
     R. Bast            (CMake framework)
     U. Ekstroem        (automatic differentiation library)
     J. Juselius        (input parsing library and CMake framework)
   Theory: - J. Tomasi, B. Mennucci and R. Cammi:
            "Quantum Mechanical Continuum Solvation Models", Chem. Rev., 105 (2005) 2999
   PCMSolver is distributed under the terms of the GNU Lesser General Public License.


~~~~~~~~~~ PCMSolver ~~~~~~~~~~
Using CODATA 2010 set of constants.
Input parsing done API-side
========== Cavity 
Cavity type: GePol
Average area = 1.07132 AU^2
Probe radius = 2.61727 AU
Number of spheres = 3 [initial = 3; added = 0]
Number of finite elements = 164
========== Static solver 
Solver Type: IEFPCM, isotropic
PCM matrix NOT hermitivitized (matches old DALTON)
============ Medium 
Medium initialized from solvent built-in data.
Solvent name:          Water
Static  permittivity = 78.39
Optical permittivity = 1.776
Solvent radius =       1.385
.... Inside 
Green's function type: vacuum
.... Outside 
Green's function type: uniform dielectric
Permittivity = 78.39

 PCMSolver interface correctly initialized


                     .---------------------------------------.
                     | Starting in Integral Section (HERMIT) |
                     `---------------------------------------'



 ***************************************************************************************
 ****************** Output from **INTEGRALS input processing (HERMIT) ******************
 ***************************************************************************************


 - Using defaults, no **INTEGRALS input found

 Default print level:        1

 * Nuclear model: Point charge

 Calculation of one- and two-electron Hamiltonian integrals.

 Center of mass  (bohr):      0.061741194238      0.000000000000      0.000000000000
 Operator center (bohr):      0.000000000000      0.000000000000      0.000000000000
 Gauge origin    (bohr):      0.000000000000      0.000000000000      0.000000000000
 Dipole origin   (bohr):      0.000000000000      0.000000000000      0.000000000000


     ************************************************************************
     ************************** Output from HERINT **************************
     ************************************************************************


 Threshold for neglecting two-electron integrals:  1.00D-12
 HERMIT - Number of two-electron integrals written:        2260 ( 54.0% )
 HERMIT - Megabytes written:                              0.027

  Total CPU  time used in HERMIT:   0.01 seconds
  Total wall time used in HERMIT:   0.01 seconds


                        .----------------------------------.
                        | End of Integral Section (HERMIT) |
                        `----------------------------------'



                   .--------------------------------------------.
                   | Starting in Wave Function Section (SIRIUS) |
                   `--------------------------------------------'


 *** Output from Huckel module :

     Using EWMO model:          T
     Using EHT  model:          F
     Number of Huckel orbitals each symmetry:    7

 EWMO - Energy Weighted Maximum Overlap - is a Huckel type method,
        which normally is better than Extended Huckel Theory.
 Reference: Linderberg and Ohrn, Propagators in Quantum Chemistry (Wiley, 1973)

 Huckel EWMO eigenvalues for symmetry :  1
          -20.705062      -1.945824      -0.739359      -0.648877      -0.616200
           -0.087290      -0.037290

 **********************************************************************
 *SIRIUS* a direct, restricted step, second order MCSCF program       *
 **********************************************************************

 
     Date and time (Linux)  : Mon Feb 29 14:22:41 2016
     Host name              : merzbob                                 

 Title lines from ".mol" input file:
     Water R(OH) = 0.95Aa , <HOH = 109 deg.                                  
     Distance in Aangstroms                                                  

 Print level on unit LUPRI =   2 is   0
 Print level on unit LUW4  =   2 is   5

@    Restricted, closed shell Kohn-Sham DFT calculation.

@    Time-dependent Kohn-Sham DFT calculation (TD-DFT).

 Initial molecular orbitals are obtained according to
 ".MOSTART EWMO  " input option

     Wave function specification
     ============================
@    Wave function type        --- KS-DFT ---
@    Number of closed shell electrons          10
@    Number of electrons in active shells       0
@    Total charge of the molecule               0

@    Spin multiplicity and 2 M_S                1         0
@    Total number of symmetries                 1 (point group: C1 )
@    Reference state symmetry                   1 (irrep name : A  )
 
     This is a DFT calculation of type: LDA

     Orbital specifications
     ======================
@    Abelian symmetry species          All |    1
@                                          |  A  
                                       --- |  ---
@    Occupied SCF orbitals               5 |    5
@    Secondary orbitals                  8 |    8
@    Total number of orbitals           13 |   13
@    Number of basis functions          13 |   13

     Optimization information
     ========================
@    Number of configurations                 1
@    Number of orbital rotations             40
     ------------------------------------------
@    Total number of variables               41

     Maximum number of Fock   iterations      0
     Maximum number of DIIS   iterations     60
     Maximum number of QC-SCF iterations     60
     Threshold for SCF convergence     1.00D-05
 
     This is a DFT calculation of type: LDA


 ***********************************************
 ***** DIIS acceleration of SCF iterations *****
 ***********************************************

 C1-DIIS algorithm; max error vectors =    8

 Iter      Total energy       Solvation energy    Error norm    Delta(E)
 -----------------------------------------------------------------------------
      K-S energy, electrons, error :     -9.024150889884  10.0000007728    7.73D-07
@  1  -73.2825821830     -5.064840255846E-03    3.40246D+00   -7.33D+01
      Virial theorem: -V/T =      1.951485
@      MULPOP O      -0.49; H1      0.25; H2      0.25; 
   1  Level shift: doubly occupied orbital energies shifted by -2.00D-01
 -----------------------------------------------------------------------------
      K-S energy, electrons, error :     -9.768046758720  10.0000008010    8.01D-07
@  2  -73.7580945425     -8.320582847915E-03    1.65540D+00   -4.76D-01
      Virial theorem: -V/T =      1.900360
@      MULPOP O      -0.20; H1      0.10; H2      0.10; 
   2  Level shift: doubly occupied orbital energies shifted by -1.00D-01
 -----------------------------------------------------------------------------
      K-S energy, electrons, error :     -9.390143591312  10.0000007903    7.90D-07
@  3  -73.8413472936     -8.935794617446E-03    5.42800D-01   -8.33D-02
      Virial theorem: -V/T =      1.936542
@      MULPOP O      -0.05; H1      0.02; H2      0.02; 
   3  Level shift: doubly occupied orbital energies shifted by -5.00D-02
 -----------------------------------------------------------------------------
      K-S energy, electrons, error :     -9.475138141245  10.0000007934    7.93D-07
@  4  -73.8505764390     -9.143544126079E-03    6.07880D-03   -9.23D-03
      Virial theorem: -V/T =      1.928334
@      MULPOP O      -0.16; H1      0.08; H2      0.08; 
   4  Level shift: doubly occupied orbital energies shifted by -1.25D-02
 -----------------------------------------------------------------------------
      K-S energy, electrons, error :     -9.474573539340  10.0000007934    7.93D-07
@  5  -73.8505776758     -9.124893326992E-03    7.17158D-04   -1.24D-06
      Virial theorem: -V/T =      1.928392
@      MULPOP O      -0.16; H1      0.08; H2      0.08; 
 -----------------------------------------------------------------------------
      K-S energy, electrons, error :     -9.474442955601  10.0000007934    7.93D-07
@  6  -73.8505776948     -9.125527238984E-03    9.17849D-06   -1.91D-08

@ *** DIIS converged in   6 iterations !
@     Converged SCF energy, gradient:    -73.850577694845    9.18D-06
    - total time used in SIRFCK :              0.00 seconds


 *** SCF orbital energy analysis ***

 Number of electrons :   10
 Orbital occupations :    5

 Sym       Kohn-Sham orbital energies

1 A     -18.42926675    -1.17851105    -0.67854345    -0.29240712    -0.25821151
          0.20675479     0.30056255     1.18691717     1.23794087     1.32427355
          2.08149476     2.12141633     3.04442347

    E(LUMO) :     0.20675479 au (symmetry 1)
  - E(HOMO) :    -0.25821151 au (symmetry 1)
  ------------------------------------------
    gap     :     0.46496630 au

 --- Writing SIRIFC interface file

 CPU and wall time for SCF :       1.940       1.944


                       .-----------------------------------.
                       | --- Final results from SIRIUS --- |
                       `-----------------------------------'


@    Spin multiplicity:           1
@    Spatial symmetry:            1 ( irrep  A   in C1  )
@    Total charge of molecule:    0

     SOLVATION MODEL: polarizable continuum model (PCM),

       Solvation energy:          -0.009125527239

@    Final DFT energy:            -73.850577694845                 
@    Nuclear repulsion:            17.488616348415
@    Electronic energy:           -91.330068516021

@    Final gradient norm:           0.000009178488

 
     Date and time (Linux)  : Mon Feb 29 14:22:43 2016
     Host name              : merzbob                                 

File label for MO orbitals:  29Feb16   FOCKDIIS

 (Only coefficients > 0.0100 are printed.)

 Molecular orbitals for symmetry species 1  (A  )
 ------------------------------------------------

    Orbital         1        2        3        4        5        6        7
   1 O   :1s    -0.9808   0.2452   0.0000   0.0947   0.0000   0.1254   0.0000
   2 O   :1s    -0.1161  -0.2194   0.0000  -0.0784  -0.0000  -0.0733   0.0000
   3 O   :1s     0.0443  -0.3023  -0.0000  -0.3881  -0.0000  -1.4599  -0.0000
   4 O   :2px   -0.0087  -0.2206   0.0000   0.4989  -0.0000  -0.0750   0.0000
   5 O   :2py   -0.0000  -0.0000   0.5233   0.0000  -0.0000  -0.0000   0.2617
   6 O   :2pz   -0.0000   0.0000  -0.0000  -0.0000  -0.5482   0.0000  -0.0000
   7 O   :2px    0.0013  -0.0183  -0.0000   0.5028  -0.0000  -0.0984  -0.0000
   8 O   :2py    0.0000  -0.0000   0.1549   0.0000  -0.0000  -0.0000   0.6538
   9 O   :2pz   -0.0000   0.0000  -0.0000  -0.0000  -0.6064   0.0000  -0.0000
  10 H1  :1s     0.0098  -0.2896   0.3389   0.0723   0.0000  -0.0405   0.0491
  11 H1  :1s    -0.0124  -0.0209   0.1721  -0.0525   0.0000   1.0284  -2.2654
  12 H2  :1s     0.0098  -0.2896  -0.3389   0.0723   0.0000  -0.0405  -0.0491
  13 H2  :1s    -0.0124  -0.0209  -0.1721  -0.0525   0.0000   1.0284   2.2654

    Orbital         8        9       10       11       12       13
   1 O   :1s    -0.0441  -0.0000  -0.0000  -0.0224  -0.0000   0.0733
   2 O   :1s    -0.0194  -0.0000   0.0000   0.4409   0.0000  -1.7256
   3 O   :1s     1.7912   0.0000   0.0000  -3.5213  -0.0000   0.8912
   4 O   :2px   -0.7353  -0.0000   0.0000  -0.7793   0.0000  -0.3718
   5 O   :2py   -0.0000   0.2520   0.0000  -0.0000  -1.1819  -0.0000
   6 O   :2pz   -0.0000   0.0000   1.0152   0.0000   0.0000   0.0000
   7 O   :2px    1.4504   0.0000   0.0000  -0.7060  -0.0000  -0.2127
   8 O   :2py    0.0000  -2.2917   0.0000   0.0000   0.2162   0.0000
   9 O   :2pz   -0.0000   0.0000  -0.9815   0.0000   0.0000   0.0000
  10 H1  :1s    -0.6597   1.0405  -0.0000   1.5347   1.1319   0.9139
  11 H1  :1s    -0.4865   1.5234  -0.0000   0.5875  -0.9016  -0.4742
  12 H2  :1s    -0.6597  -1.0405  -0.0000   1.5347  -1.1319   0.9139
  13 H2  :1s    -0.4865  -1.5234  -0.0000   0.5875   0.9016  -0.4742

  Total CPU  time used in SIRIUS :   1.95 seconds
  Total wall time used in SIRIUS :   1.95 seconds

 
     Date and time (Linux)  : Mon Feb 29 14:22:43 2016
     Host name              : merzbob                                 

 NOTE:    1 warnings have been issued.
 Check output, result, and error files for "WARNING".


                     .---------------------------------------.
                     | End of Wave Function Section (SIRIUS) |
                     `---------------------------------------'



                 .------------------------------------------------.
                 | Starting in Dynamic Property Section (RESPONS) |
                 `------------------------------------------------'


 ------------------------------------------------------------------------------
  RESPONSE  -  an MCSCF, MC-srDFT, DFT, and SOPPA response property program
 ------------------------------------------------------------------------------


 -------- OUTPUT FROM RESPONSE INPUT PROCESSING --------




  Linear Response single residue calculation
 -------------------------------------------


    3 input options by user.

 Print level                                    : IPRPP  =   2
 Maximum number of iterations for eigenval.eqs. : MAXITP =  60
 Threshold for convergence of eigenvalue eqs.   : THCPP  = 1.000D-03
 Maximum iterations in optimal orbital algorithm: MAXITO =   5

     12 Excitation energies are calculated for symmetry no.    1

      3 property residues are calculated with labels:

               XDIPLEN 
               YDIPLEN 
               ZDIPLEN 

 Integral transformation: Total CPU and WALL times (sec)       0.004       0.001

 Sorting integrals to Dirac format: Total CPU and WALL times (sec)       0.000       0.000


   SCF energy         :      -73.850577694844930
 -- inactive part     :      -91.330068516021157
 -- nuclear repulsion :       17.488616348415210


                    *****************************************
                    *** DFT response calculation (TD-DFT) ***
                    *****************************************

 ----------------------------------------------------------------
 ----- Linear response calculation
 ----- Symmetry of excitation/property operator(s)    1  ( A  )
 ----------------------------------------------------------------

 Number of excitations of this symmetry           12
 Number of response properties of this symmetry    0
 Number of C6/C8 properties of this symmetry       0


 Perturbation symmetry.     KSYMOP:       1
 Perturbation spin symmetry.TRPLET:       F
 Orbital variables.         KZWOPT:      40
 Configuration variables.   KZCONF:       0
 Total number of variables. KZVAR :      40
 Electrons in DFTMOMO:   10.00000079338549



 --- EXCITATION ENERGIES AND TRANSITION MOMENT CALCULATION (MCTDHF) ---

 Operator symmetry = 1  ( A  ); triplet =   F


 *** THE REQUESTED   12 SOLUTION VECTORS CONVERGED

 Convergence of RSP solution vectors, threshold = 1.00D-03
 ---------------------------------------------------------------
 (dimension of paired reduced space:   66)
 RSP solution vector no.    1; norm of residual   2.13D-05
 RSP solution vector no.    2; norm of residual   3.94D-05
 RSP solution vector no.    3; norm of residual   2.06D-08
 RSP solution vector no.    4; norm of residual   4.84D-05
 RSP solution vector no.    5; norm of residual   2.27D-06
 RSP solution vector no.    6; norm of residual   1.20D-04
 RSP solution vector no.    7; norm of residual   3.21D-05
 RSP solution vector no.    8; norm of residual   1.34D-04
 RSP solution vector no.    9; norm of residual   1.61D-04
 RSP solution vector no.   10; norm of residual   1.41D-08
 RSP solution vector no.   11; norm of residual   2.43D-06
 RSP solution vector no.   12; norm of residual   1.20D-05

 *** RSPCTL MICROITERATIONS CONVERGED

@ Transition operator type:    XDIPLEN 
@ STATE NO:    1 *TRANSITION MOMENT:  1.00759042E-15 *ENERGY(eV):   12.759203    
@ STATE NO:    2 *TRANSITION MOMENT:  0.23620699     *ENERGY(eV):   13.763535    
@ STATE NO:    3 *TRANSITION MOMENT: -1.08258269E-17 *ENERGY(eV):   15.149988    
@ STATE NO:    4 *TRANSITION MOMENT: -3.48222944E-14 *ENERGY(eV):   16.185119    
@ STATE NO:    5 *TRANSITION MOMENT: -2.81569759E-14 *ENERGY(eV):   24.237573    
@ STATE NO:    6 *TRANSITION MOMENT:  0.24285544     *ENERGY(eV):   27.354594    
@ STATE NO:    7 *TRANSITION MOMENT: -0.26538652     *ENERGY(eV):   38.189143    
@ STATE NO:    8 *TRANSITION MOMENT:  1.71647678E-15 *ENERGY(eV):   39.920314    
@ STATE NO:    9 *TRANSITION MOMENT:  7.50604143E-14 *ENERGY(eV):   40.478788    
@ STATE NO:   10 *TRANSITION MOMENT:  7.22208756E-17 *ENERGY(eV):   40.845523    
@ STATE NO:   11 *TRANSITION MOMENT:  0.18408134     *ENERGY(eV):   41.561417    
@ STATE NO:   12 *TRANSITION MOMENT: -6.00688585E-14 *ENERGY(eV):   43.114231    

@ Transition operator type:    YDIPLEN 
@ STATE NO:    1 *TRANSITION MOMENT:  6.87394245E-16 *ENERGY(eV):   12.759203    
@ STATE NO:    2 *TRANSITION MOMENT: -3.42547354E-14 *ENERGY(eV):   13.763535    
@ STATE NO:    3 *TRANSITION MOMENT: -3.49713499E-16 *ENERGY(eV):   15.149988    
@ STATE NO:    4 *TRANSITION MOMENT: -0.12629220     *ENERGY(eV):   16.185119    
@ STATE NO:    5 *TRANSITION MOMENT: -0.46894327     *ENERGY(eV):   24.237573    
@ STATE NO:    6 *TRANSITION MOMENT: -2.89485810E-14 *ENERGY(eV):   27.354594    
@ STATE NO:    7 *TRANSITION MOMENT: -1.79154897E-14 *ENERGY(eV):   38.189143    
@ STATE NO:    8 *TRANSITION MOMENT:  1.37478969E-15 *ENERGY(eV):   39.920314    
@ STATE NO:    9 *TRANSITION MOMENT: -0.35896091     *ENERGY(eV):   40.478788    
@ STATE NO:   10 *TRANSITION MOMENT:  1.24732109E-14 *ENERGY(eV):   40.845523    
@ STATE NO:   11 *TRANSITION MOMENT: -9.93625639E-14 *ENERGY(eV):   41.561417    
@ STATE NO:   12 *TRANSITION MOMENT: -0.60273238     *ENERGY(eV):   43.114231    

@ Transition operator type:    ZDIPLEN 
@ STATE NO:    1 *TRANSITION MOMENT:  0.44139383     *ENERGY(eV):   12.759203    
@ STATE NO:    2 *TRANSITION MOMENT: -1.25312398E-15 *ENERGY(eV):   13.763535    
@ STATE NO:    3 *TRANSITION MOMENT: -7.38785337E-14 *ENERGY(eV):   15.149988    
@ STATE NO:    4 *TRANSITION MOMENT: -1.54906004E-16 *ENERGY(eV):   16.185119    
@ STATE NO:    5 *TRANSITION MOMENT:  6.30631545E-16 *ENERGY(eV):   24.237573    
@ STATE NO:    6 *TRANSITION MOMENT:  1.86023066E-16 *ENERGY(eV):   27.354594    
@ STATE NO:    7 *TRANSITION MOMENT:  6.07276638E-16 *ENERGY(eV):   38.189143    
@ STATE NO:    8 *TRANSITION MOMENT:  0.22039513     *ENERGY(eV):   39.920314    
@ STATE NO:    9 *TRANSITION MOMENT: -6.29650014E-16 *ENERGY(eV):   40.478788    
@ STATE NO:   10 *TRANSITION MOMENT:  7.13756998E-14 *ENERGY(eV):   40.845523    
@ STATE NO:   11 *TRANSITION MOMENT:  5.30348154E-16 *ENERGY(eV):   41.561417    
@ STATE NO:   12 *TRANSITION MOMENT: -5.32372536E-16 *ENERGY(eV):   43.114231    


 **************************************************************************************
 *** @ Excit. operator sym 1 & ref. state sym 1 => excited state symmetry 1  ( A  ) ***
 **************************************************************************************



 @ Excited state no:    1 in symmetry 1  ( A  )
 ----------------------------------------------

@ Excitation energy :  0.46889211     au
@                      12.759203     eV;   102909.92     cm-1;   1231.0760     kJ / mol

@ Total energy :      -73.381686     au

@ Operator type:    XDIPLEN 
@ Oscillator strength (LENGTH)   :  3.17358199E-31  (Transition moment :  1.00759042E-15 )

@ Operator type:    YDIPLEN 
@ Oscillator strength (LENGTH)   :  1.47704406E-31  (Transition moment :  6.87394245E-16 )

@ Operator type:    ZDIPLEN 
@ Oscillator strength (LENGTH)   :  6.09023677E-02  (Transition moment :  0.44139383     )


                              MO Overlap Diagnostic
                              ---------------------



Delta_R Diagnostic (Aa):     0.5593



                            PBHT MO Overlap Diagnostic
                            --------------------------

  Reference: MJG Peach, P Benfield, T Helgaker, and DJ Tozer.
             J Chem Phys 128, 044118 (2008)


  The dominant contributions:

      I    A    K_IA      K_AI   <|I|*|A|> <I^2*A^2>    Weight   Contrib

      5    6 -0.707056 -0.002972  0.453330  0.285191  0.495734  0.224731

@ Overlap diagnostic LAMBDA =    0.4534


 @ Excited state no:    2 in symmetry 1  ( A  )
 ----------------------------------------------

@ Excitation energy :  0.50580062     au
@                      13.763535     eV;   111010.40     cm-1;   1327.9793     kJ / mol

@ Total energy :      -73.344777     au

@ Operator type:    XDIPLEN 
@ Oscillator strength (LENGTH)   :  1.88136730E-02  (Transition moment :  0.23620699     )

@ Operator type:    YDIPLEN 
@ Oscillator strength (LENGTH)   :  3.95666545E-28  (Transition moment : -3.42547354E-14 )

@ Operator type:    ZDIPLEN 
@ Oscillator strength (LENGTH)   :  5.29512450E-31  (Transition moment : -1.25312398E-15 )


                              MO Overlap Diagnostic
                              ---------------------



Delta_R Diagnostic (Aa):     0.8521



                            PBHT MO Overlap Diagnostic
                            --------------------------

  Reference: MJG Peach, P Benfield, T Helgaker, and DJ Tozer.
             J Chem Phys 128, 044118 (2008)


  The dominant contributions:

      I    A    K_IA      K_AI   <|I|*|A|> <I^2*A^2>    Weight   Contrib

      4    6  0.706948  0.004670  0.384767  0.237028  0.493195  0.189765

@ Overlap diagnostic LAMBDA =    0.3853


 @ Excited state no:    3 in symmetry 1  ( A  )
 ----------------------------------------------

@ Excitation energy :  0.55675182     au
@                      15.149988     eV;   122192.90     cm-1;   1461.7517     kJ / mol

@ Total energy :      -73.293826     au

@ Operator type:    XDIPLEN 
@ Oscillator strength (LENGTH)   :  4.35003290E-35  (Transition moment : -1.08258269E-17 )

@ Operator type:    YDIPLEN 
@ Oscillator strength (LENGTH)   :  4.53936574E-32  (Transition moment : -3.49713499E-16 )

@ Operator type:    ZDIPLEN 
@ Oscillator strength (LENGTH)   :  2.02584828E-27  (Transition moment : -7.38785337E-14 )


                              MO Overlap Diagnostic
                              ---------------------



Delta_R Diagnostic (Aa):     0.4298



                            PBHT MO Overlap Diagnostic
                            --------------------------

  Reference: MJG Peach, P Benfield, T Helgaker, and DJ Tozer.
             J Chem Phys 128, 044118 (2008)


  The dominant contributions:

      I    A    K_IA      K_AI   <|I|*|A|> <I^2*A^2>    Weight   Contrib

      5    7  0.707103 -0.001282  0.323927  0.184321  0.501810  0.162550

@ Overlap diagnostic LAMBDA =    0.3239


 @ Excited state no:    4 in symmetry 1  ( A  )
 ----------------------------------------------

@ Excitation energy :  0.59479218     au
@                      16.185119     eV;   130541.79     cm-1;   1561.6266     kJ / mol

@ Total energy :      -73.255786     au

@ Operator type:    XDIPLEN 
@ Oscillator strength (LENGTH)   :  4.80826900E-28  (Transition moment : -3.48222944E-14 )

@ Operator type:    YDIPLEN 
@ Oscillator strength (LENGTH)   :  6.32451277E-03  (Transition moment : -0.12629220     )

@ Operator type:    ZDIPLEN 
@ Oscillator strength (LENGTH)   :  9.51503726E-33  (Transition moment : -1.54906004E-16 )


                              MO Overlap Diagnostic
                              ---------------------



Delta_R Diagnostic (Aa):     0.7231



                            PBHT MO Overlap Diagnostic
                            --------------------------

  Reference: MJG Peach, P Benfield, T Helgaker, and DJ Tozer.
             J Chem Phys 128, 044118 (2008)


  The dominant contributions:

      I    A    K_IA      K_AI   <|I|*|A|> <I^2*A^2>    Weight   Contrib

      4    7 -0.707026 -0.001085  0.299471  0.187393  0.498353  0.149242

@ Overlap diagnostic LAMBDA =    0.2996


 @ Excited state no:    5 in symmetry 1  ( A  )
 ----------------------------------------------

@ Excitation energy :  0.89071444     au
@                      24.237573     eV;   195489.22     cm-1;   2338.5704     kJ / mol

@ Total energy :      -72.959863     au

@ Operator type:    XDIPLEN 
@ Oscillator strength (LENGTH)   :  4.70781352E-28  (Transition moment : -2.81569759E-14 )

@ Operator type:    YDIPLEN 
@ Oscillator strength (LENGTH)   :  0.13058336      (Transition moment : -0.46894327     )

@ Operator type:    ZDIPLEN 
@ Oscillator strength (LENGTH)   :  2.36155800E-31  (Transition moment :  6.30631545E-16 )


                              MO Overlap Diagnostic
                              ---------------------



Delta_R Diagnostic (Aa):     0.4450



                            PBHT MO Overlap Diagnostic
                            --------------------------

  Reference: MJG Peach, P Benfield, T Helgaker, and DJ Tozer.
             J Chem Phys 128, 044118 (2008)


  The dominant contributions:

      I    A    K_IA      K_AI   <|I|*|A|> <I^2*A^2>    Weight   Contrib

      3    6 -0.706802 -0.002155  0.454733  0.300748  0.496526  0.225787

@ Overlap diagnostic LAMBDA =    0.4549


 @ Excited state no:    6 in symmetry 1  ( A  )
 ----------------------------------------------

@ Excitation energy :   1.0052629     au
@                      27.354594     eV;   220629.70     cm-1;   2639.3173     kJ / mol

@ Total energy :      -72.845315     au

@ Operator type:    XDIPLEN 
@ Oscillator strength (LENGTH)   :  3.95261071E-02  (Transition moment :  0.24285544     )

@ Operator type:    YDIPLEN 
@ Oscillator strength (LENGTH)   :  5.61620494E-28  (Transition moment : -2.89485810E-14 )

@ Operator type:    ZDIPLEN 
@ Oscillator strength (LENGTH)   :  2.31911338E-32  (Transition moment :  1.86023066E-16 )


                              MO Overlap Diagnostic
                              ---------------------



Delta_R Diagnostic (Aa):     0.3113



                            PBHT MO Overlap Diagnostic
                            --------------------------

  Reference: MJG Peach, P Benfield, T Helgaker, and DJ Tozer.
             J Chem Phys 128, 044118 (2008)


  The dominant contributions:

      I    A    K_IA      K_AI   <|I|*|A|> <I^2*A^2>    Weight   Contrib

      3    7 -0.700310 -0.009231  0.495572  0.531315  0.477590  0.236680

@ Overlap diagnostic LAMBDA =    0.5030


 @ Excited state no:    7 in symmetry 1  ( A  )
 ----------------------------------------------

@ Excitation energy :   1.4034252     au
@                      38.189143     eV;   308016.23     cm-1;   3684.6923     kJ / mol

@ Total energy :      -72.447152     au

@ Operator type:    XDIPLEN 
@ Oscillator strength (LENGTH)   :  6.58954976E-02  (Transition moment : -0.26538652     )

@ Operator type:    YDIPLEN 
@ Oscillator strength (LENGTH)   :  3.00300033E-28  (Transition moment : -1.79154897E-14 )

@ Operator type:    ZDIPLEN 
@ Oscillator strength (LENGTH)   :  3.45041365E-31  (Transition moment :  6.07276638E-16 )


                              MO Overlap Diagnostic
                              ---------------------



Delta_R Diagnostic (Aa):     0.3058



                            PBHT MO Overlap Diagnostic
                            --------------------------

  Reference: MJG Peach, P Benfield, T Helgaker, and DJ Tozer.
             J Chem Phys 128, 044118 (2008)


  The dominant contributions:

      I    A    K_IA      K_AI   <|I|*|A|> <I^2*A^2>    Weight   Contrib

      2    6  0.685946  0.004467  0.456839  0.537635  0.464414  0.212163
      4    8  0.136346 -0.003590  0.758750  0.734601  0.019582  0.014858
      5   10  0.096881 -0.005810  0.874044  0.824174  0.010545  0.009217

@ Overlap diagnostic LAMBDA =    0.4783


 @ Excited state no:    8 in symmetry 1  ( A  )
 ----------------------------------------------

@ Excitation energy :   1.4670446     au
@                      39.920314     eV;   321979.06     cm-1;   3851.7249     kJ / mol

@ Total energy :      -72.383533     au

@ Operator type:    XDIPLEN 
@ Oscillator strength (LENGTH)   :  2.88156165E-30  (Transition moment :  1.71647678E-15 )

@ Operator type:    YDIPLEN 
@ Oscillator strength (LENGTH)   :  1.84852183E-30  (Transition moment :  1.37478969E-15 )

@ Operator type:    ZDIPLEN 
@ Oscillator strength (LENGTH)   :  4.75068281E-02  (Transition moment :  0.22039513     )


                              MO Overlap Diagnostic
                              ---------------------



Delta_R Diagnostic (Aa):     0.0369



                            PBHT MO Overlap Diagnostic
                            --------------------------

  Reference: MJG Peach, P Benfield, T Helgaker, and DJ Tozer.
             J Chem Phys 128, 044118 (2008)


  The dominant contributions:

      I    A    K_IA      K_AI   <|I|*|A|> <I^2*A^2>    Weight   Contrib

      5    8 -0.705864 -0.005312  0.595790  0.308769  0.490773  0.292398

@ Overlap diagnostic LAMBDA =    0.5958


 @ Excited state no:    9 in symmetry 1  ( A  )
 ----------------------------------------------

@ Excitation energy :   1.4875681     au
@                      40.478788     eV;   326483.46     cm-1;   3905.6095     kJ / mol

@ Total energy :      -72.363010     au

@ Operator type:    XDIPLEN 
@ Oscillator strength (LENGTH)   :  5.58737112E-27  (Transition moment :  7.50604143E-14 )

@ Operator type:    YDIPLEN 
@ Oscillator strength (LENGTH)   :  0.12778501      (Transition moment : -0.35896091     )

@ Operator type:    ZDIPLEN 
@ Oscillator strength (LENGTH)   :  3.93173319E-31  (Transition moment : -6.29650014E-16 )


                              MO Overlap Diagnostic
                              ---------------------



Delta_R Diagnostic (Aa):     0.1847



                            PBHT MO Overlap Diagnostic
                            --------------------------

  Reference: MJG Peach, P Benfield, T Helgaker, and DJ Tozer.
             J Chem Phys 128, 044118 (2008)


  The dominant contributions:

      I    A    K_IA      K_AI   <|I|*|A|> <I^2*A^2>    Weight   Contrib

      2    7 -0.698268 -0.001999  0.368391  0.267580  0.484790  0.178592
      4    9 -0.109158  0.001547  0.601280  0.230473  0.012256  0.007369

@ Overlap diagnostic LAMBDA =    0.3745


 @ Excited state no:   10 in symmetry 1  ( A  )
 ----------------------------------------------

@ Excitation energy :   1.5010454     au
@                      40.845523     eV;   329441.38     cm-1;   3940.9941     kJ / mol

@ Total energy :      -72.349532     au

@ Operator type:    XDIPLEN 
@ Oscillator strength (LENGTH)   :  5.21948997E-33  (Transition moment :  7.22208756E-17 )

@ Operator type:    YDIPLEN 
@ Oscillator strength (LENGTH)   :  1.55689420E-28  (Transition moment :  1.24732109E-14 )

@ Operator type:    ZDIPLEN 
@ Oscillator strength (LENGTH)   :  5.09804104E-27  (Transition moment :  7.13756998E-14 )


                              MO Overlap Diagnostic
                              ---------------------



Delta_R Diagnostic (Aa):     0.1295



                            PBHT MO Overlap Diagnostic
                            --------------------------

  Reference: MJG Peach, P Benfield, T Helgaker, and DJ Tozer.
             J Chem Phys 128, 044118 (2008)


  The dominant contributions:

      I    A    K_IA      K_AI   <|I|*|A|> <I^2*A^2>    Weight   Contrib

      5    9  0.707106  0.001154  0.462535  0.126111  0.498368  0.230513

@ Overlap diagnostic LAMBDA =    0.4625


 @ Excited state no:   11 in symmetry 1  ( A  )
 ----------------------------------------------

@ Excitation energy :   1.5273540     au
@                      41.561417     eV;   335215.46     cm-1;   4010.0674     kJ / mol

@ Total energy :      -72.323224     au

@ Operator type:    XDIPLEN 
@ Oscillator strength (LENGTH)   :  3.45038839E-02  (Transition moment :  0.18408134     )

@ Operator type:    YDIPLEN 
@ Oscillator strength (LENGTH)   :  1.00529618E-26  (Transition moment : -9.93625639E-14 )

@ Operator type:    ZDIPLEN 
@ Oscillator strength (LENGTH)   :  2.86398394E-31  (Transition moment :  5.30348154E-16 )


                              MO Overlap Diagnostic
                              ---------------------



Delta_R Diagnostic (Aa):     0.1894



                            PBHT MO Overlap Diagnostic
                            --------------------------

  Reference: MJG Peach, P Benfield, T Helgaker, and DJ Tozer.
             J Chem Phys 128, 044118 (2008)


  The dominant contributions:

      I    A    K_IA      K_AI   <|I|*|A|> <I^2*A^2>    Weight   Contrib

      4    8 -0.605385 -0.009671  0.758750  0.734601  0.354875  0.269262
      5   10  0.356740 -0.006324  0.874044  0.824174  0.131816  0.115213

@ Overlap diagnostic LAMBDA =    0.7866


 @ Excited state no:   12 in symmetry 1  ( A  )
 ----------------------------------------------

@ Excitation energy :   1.5844189     au
@                      43.114231     eV;   347739.75     cm-1;   4159.8912     kJ / mol

@ Total energy :      -72.266159     au

@ Operator type:    XDIPLEN 
@ Oscillator strength (LENGTH)   :  3.81133840E-27  (Transition moment : -6.00688585E-14 )

@ Operator type:    YDIPLEN 
@ Oscillator strength (LENGTH)   :  0.38373181      (Transition moment : -0.60273238     )

@ Operator type:    ZDIPLEN 
@ Oscillator strength (LENGTH)   :  2.99371215E-31  (Transition moment : -5.32372536E-16 )


                              MO Overlap Diagnostic
                              ---------------------



Delta_R Diagnostic (Aa):     0.1654



                            PBHT MO Overlap Diagnostic
                            --------------------------

  Reference: MJG Peach, P Benfield, T Helgaker, and DJ Tozer.
             J Chem Phys 128, 044118 (2008)


  The dominant contributions:

      I    A    K_IA      K_AI   <|I|*|A|> <I^2*A^2>    Weight   Contrib

      2    7  0.107775  0.003706  0.368391  0.267580  0.010830  0.003990
      4    9 -0.697288 -0.012105  0.601280  0.230473  0.469476  0.282287

@ Overlap diagnostic LAMBDA =    0.5958


 Time used in polarization propagator calculation is      8.26 CPU seconds for symmetry 1

  Total CPU  time used in RESPONSE:   8.26 seconds
  Total wall time used in RESPONSE:   8.27 seconds


                   .-------------------------------------------.
                   | End of Dynamic Property Section (RESPONS) |
                   `-------------------------------------------'



PCMSolver interface correctly finalized

  Total CPU  time used in DALTON:  10.79 seconds
  Total wall time used in DALTON:  10.80 seconds

 
     Date and time (Linux)  : Mon Feb 29 14:22:52 2016
     Host name              : merzbob                                 
