

     ************************************************************************
     *************** Dalton - An Electronic Structure Program ***************
     ************************************************************************

    This is output from DALTON (Release Dalton2013 patch 0)
   ----------------------------------------------------------------------------
    NOTE:
     
    Dalton is an experimental code for the evaluation of molecular
    properties using (MC)SCF, DFT, CI, and CC wave functions.
    The authors accept no responsibility for the performance of
    the code or for the correctness of the results.
     
    The code (in whole or part) is provided under a licence and
    is not to be reproduced for further distribution without
    the written permission of the authors or their representatives.
     
    See the home page "http://daltonprogram.org" for further information.
     
    If results obtained with this code are published,
    the appropriate citations would be both of:
     
       K. Aidas, C. Angeli, K. L. Bak, V. Bakken, R. Bast,
       L. Boman, O. Christiansen, R. Cimiraglia, S. Coriani,
       P. Dahle, E. K. Dalskov, U. Ekstroem, T. Enevoldsen,
       J. J. Eriksen, P. Ettenhuber, B. Fernandez, L. Ferrighi,
       H. Fliegl, L. Frediani, K. Hald, A. Halkier, C. Haettig,
       H. Heiberg, T. Helgaker, A. C. Hennum, H. Hettema,
       E. Hjertenaes, S. Hoest, I.-M. Hoeyvik, M. F. Iozzi,
       B. Jansik, H. J. Aa. Jensen, D. Jonsson, P. Joergensen,
       J. Kauczor, S. Kirpekar, T. Kjaergaard, W. Klopper,
       S. Knecht, R. Kobayashi, H. Koch, J. Kongsted, A. Krapp,
       K. Kristensen, A. Ligabue, O. B. Lutnaes, J. I. Melo,
       K. V. Mikkelsen, R. H. Myhre, C. Neiss, C. B. Nielsen,
       P. Norman, J. Olsen, J. M. H. Olsen, A. Osted,
       M. J. Packer, F. Pawlowski, T. B. Pedersen, P. F. Provasi,
       S. Reine, Z. Rinkevicius, T. A. Ruden, K. Ruud, V. Rybkin,
       P. Salek, C. C. M. Samson, A. Sanchez de Meras, T. Saue,
       S. P. A. Sauer, B. Schimmelpfennig, K. Sneskov,
       A. H. Steindal, K. O. Sylvester-Hvid, P. R. Taylor,
       A. M. Teale, E. I. Tellgren, D. P. Tew, A. J. Thorvaldsen,
       L. Thoegersen, O. Vahtras, M. A. Watson, D. J. D. Wilson,
       M. Ziolkowski and H. Agren.
       The Dalton quantum chemistry program system.
       WIREs Comput. Mol. Sci. 2013. doi: 10.1002/wcms.1172
    
    and
    
       Dalton, a Molecular Electronic Structure Program,
       Release DALTON2013.0 (2013), see http://daltonprogram.org
   ----------------------------------------------------------------------------

    Authors in alphabetical order (major contribution(s) in parenthesis):

  Kestutis Aidas,           Vilnius University,           Lithuania   (QM/MM)
  Celestino Angeli,         University of Ferrara,        Italy       (NEVPT2)
  Keld L. Bak,              UNI-C,                        Denmark     (AOSOPPA, non-adiabatic coupling, magnetic properties)
  Vebjoern Bakken,          University of Oslo,           Norway      (DALTON; geometry optimizer, symmetry detection)
  Radovan Bast,             KTH Stockholm                 Sweden      (DALTON installation and execution frameworks)
  Linus Boman,              NTNU,                         Norway      (Cholesky decomposition and subsystems)
  Ove Christiansen,         Aarhus University,            Denmark     (CC module)
  Renzo Cimiraglia,         University of Ferrara,        Italy       (NEVPT2)
  Sonia Coriani,            University of Trieste,        Italy       (CC module, MCD in RESPONS)
  Paal Dahle,               University of Oslo,           Norway      (Parallelization)
  Erik K. Dalskov,          UNI-C,                        Denmark     (SOPPA)
  Thomas Enevoldsen,        Univ. of Southern Denmark,    Denmark     (SOPPA)
  Janus J. Eriksen,         Aarhus University,            Denmark     (PE-MP2/SOPPA, TDA)
  Berta Fernandez,          U. of Santiago de Compostela, Spain       (doublet spin, ESR in RESPONS)
  Lara Ferrighi,            Aarhus University,            Denmark     (PCM Cubic response)
  Heike Fliegl,             University of Oslo,           Norway      (CCSD(R12))
  Luca Frediani,            UiT The Arctic U. of Norway,  Norway      (PCM)
  Bin Gao,                  UiT The Arctic U. of Norway,  Norway      (Gen1Int library)
  Christof Haettig,         Ruhr-University Bochum,       Germany     (CC module)
  Kasper Hald,              Aarhus University,            Denmark     (CC module)
  Asger Halkier,            Aarhus University,            Denmark     (CC module)
  Hanne Heiberg,            University of Oslo,           Norway      (geometry analysis, selected one-electron integrals)
  Trygve Helgaker,          University of Oslo,           Norway      (DALTON; ABACUS, ERI, DFT modules, London, and much more)
  Alf Christian Hennum,     University of Oslo,           Norway      (Parity violation)
  Hinne Hettema,            University of Auckland,       New Zealand (quadratic response in RESPONS; SIRIUS supersymmetry)
  Eirik Hjertenaes,         NTNU,                         Norway      (Cholesky decomposition)
  Maria Francesca Iozzi,    University of Oslo,           Norway      (RPA)
  Brano Jansik              Technical Univ. of Ostrava    Czech Rep.  (DFT cubic response)
  Hans Joergen Aa. Jensen,  Univ. of Southern Denmark,    Denmark     (DALTON; SIRIUS, RESPONS, ABACUS modules, London, and much more)
  Dan Jonsson,              UiT The Arctic U. of Norway,  Norway      (cubic response in RESPONS module)
  Poul Joergensen,          Aarhus University,            Denmark     (RESPONS, ABACUS, and CC modules)
  Joanna Kauczor,           Linkoeping University,        Sweden      (Complex polarization propagator (CPP) module)
  Sheela Kirpekar,          Univ. of Southern Denmark,    Denmark     (Mass-velocity & Darwin integrals)
  Wim Klopper,              KIT Karlsruhe,                Germany     (R12 code in CC, SIRIUS, and ABACUS modules)
  Stefan Knecht,            ETH Zurich,                   Switzerland (Parallel CI and MCSCF)
  Rika Kobayashi,           Australian National Univ.,    Australia   (DIIS in CC, London in MCSCF)
  Henrik Koch,              NTNU,                         Norway      (CC module, Cholesky decomposition)
  Jacob Kongsted,           Univ. of Southern Denmark,    Denmark     (Polarizable embedding, QM/MM)
  Andrea Ligabue,           University of Modena,         Italy       (CTOCD, AOSOPPA)
  Ola B. Lutnaes,           University of Oslo,           Norway      (DFT Hessian)
  Juan I. Melo,             University of Buenos Aires,   Argentina   (LRESC, Relativistic Effects on NMR Shieldings)
  Kurt V. Mikkelsen,        University of Copenhagen,     Denmark     (MC-SCRF and QM/MM)
  Rolf H. Myhre,            NTNU,                         Norway      (Cholesky, subsystems and ECC2)
  Christian Neiss,          Univ. Erlangen-Nuernberg,     Germany     (CCSD(R12))
  Christian B. Nielsen,     University of Copenhagen,     Denmark     (QM/MM)
  Patrick Norman,           Linkoeping University,        Sweden      (Cubic response and complex response in RESPONS)
  Jeppe Olsen,              Aarhus University,            Denmark     (SIRIUS CI/density modules)
  Jogvan Magnus H. Olsen,   Univ. of Southern Denmark,    Denmark     (Polarizable embedding, PE library, QM/MM)
  Anders Osted,             Copenhagen University,        Denmark     (QM/MM)
  Martin J. Packer,         University of Sheffield,      UK          (SOPPA)
  Filip Pawlowski,          Kazimierz Wielki University   Poland      (CC3)
  Thomas B. Pedersen,       University of Oslo,           Norway      (Cholesky decomposition)
  Patricio F. Provasi,      University of Northeastern,   Argentina   (Analysis of coupling constants in localized orbitals)
  Zilvinas Rinkevicius,     KTH Stockholm,                Sweden      (open-shell DFT, ESR)
  Elias Rudberg,            KTH Stockholm,                Sweden      (DFT grid and basis info)
  Torgeir A. Ruden,         University of Oslo,           Norway      (Numerical derivatives in ABACUS)
  Kenneth Ruud,             UiT The Arctic U. of Norway,  Norway      (DALTON; ABACUS magnetic properties and  much more)
  Pawel Salek,              KTH Stockholm,                Sweden      (DALTON; DFT code)
  Claire C. M. Samson       University of Karlsruhe       Germany     (Boys localization, r12 integrals in ERI)
  Alfredo Sanchez de Meras, University of Valencia,       Spain       (CC module, Cholesky decomposition)
  Trond Saue,               Paul Sabatier University,     France      (direct Fock matrix construction)
  Stephan P. A. Sauer,      University of Copenhagen,     Denmark     (SOPPA(CCSD), SOPPA prop., AOSOPPA, vibrational g-factors)
  Bernd Schimmelpfennig,    Forschungszentrum Karlsruhe,  Germany     (AMFI module)
  Kristian Sneskov,         Aarhus University,            Denmark     (QM/MM, PE-CC)
  Arnfinn H. Steindal,      UiT The Arctic U. of Norway,  Norway      (parallel QM/MM)
  K. O. Sylvester-Hvid,     University of Copenhagen,     Denmark     (MC-SCRF)
  Peter R. Taylor,          VLSCI/Univ. of Melbourne,     Australia   (Symmetry handling ABACUS, integral transformation)
  Andrew M. Teale,          University of Nottingham,     England     (DFT-AC, DFT-D)
  David P. Tew,             University of Bristol,        England     (CCSD(R12))
  Olav Vahtras,             KTH Stockholm,                Sweden      (triplet response, spin-orbit, ESR, TDDFT, open-shell DFT)
  David J. Wilson,          La Trobe University,          Australia   (DFT Hessian and DFT magnetizabilities)
  Hans Agren,               KTH Stockholm,                Sweden      (SIRIUS module, RESPONS, MC-SCRF solvation model)
 --------------------------------------------------------------------------------

     Date and time (Linux)  : Sun Sep  8 21:02:25 2013
     Host name              : lpqlx131.ups-tlse.fr                    

 * Work memory size             :    64000000 =  488.28 megabytes.

 * Directories for basis set searches:
   1) /home/bast/DALTON-2013.0-Source/build/test_cc2_r12_aux2_bh_lhtr
   2) /home/bast/DALTON-2013.0-Source/build/basis


Compilation information
-----------------------

 Who compiled             | bast
 Host                     | lpqlx131.ups-tlse.fr
 System                   | Linux-3.8.5-201.fc18.x86_64
 CMake generator          | Unix Makefiles
 Processor                | x86_64
 64-bit integers          | OFF
 MPI                      | OFF
 Fortran compiler         | /usr/bin/gfortran
 Fortran compiler version | GNU Fortran (GCC) 4.7.2 20121109 (Red Hat 4.7.2-8)
 C compiler               | /usr/bin/gcc
 C compiler version       | gcc (GCC) 4.7.2 20121109 (Red Hat 4.7.2-8)
 C++ compiler             | /usr/bin/g++
 C++ compiler version     | g++ (GCC) 4.7.2 20121109 (Red Hat 4.7.2-8)
 Static linking           | OFF
 Last Git revision        | f34203295a86316e27f9e7b44f9b6769c4a046c0
 Configuration time       | 2013-09-08 20:31:27.952056


   Content of the .dal input file
 ----------------------------------

                                                  
**DALTON INPUT                                    
.RUN WAVE FUNCTION                                
.DIRECT                                           
*MOLBAS                                           
.R12AUX                                           
**INTEGRALS                                       
.R12                                              
**WAVE FUNCTION                                   
.CC                                               
*ORBITAL INPUT                                    
.NOSUPSYM                                         
.MOSTART                                          
 H1DIAG                                           
*SCF INPUT                                        
.THRESH                                           
 1.0D-10                                          
*CC INPUT                                         
.CC2                                              
.PRINT                                            
 3                                                
.FROIMP                                           
  1                                               
  0                                               
.THRENR                                           
 1.0D-12                                          
.MAX IT                                           
 300                                              
*CCEXCI                                           
.THREXC                                           
 1.D-10                                           
.NCCEXCI                                          
 8                                                
.LHTR                                             
*R12 INPUT                                        
#.NO HYB                                          
#.R12XXL                                          
#.NO B                                            
#.NO A'                                           
#.NO 2                                            
.CC2                                              
 1A                                               
**END OF DALTON INPUT                             


   Content of the .mol file
 ----------------------------

BASIS                                                                          
Ahlrichs-VDZ Ahlrichs-VTZ                                                      
BH                                                                             
                                                                               
    4    0            0.10D-14                                                 
 1      5.    1    3    3    2    1                                            
B        0.0000000000000     0.0000000000000     0.0000000000000               
 1      1.    1                                                                
H        0.0000000000000     0.0000000000000     2.3288983083247               
 2      5.0   1                                                                
B        0.0000000000000     0.0000000000000     0.0000000000000               
 2      1.0   1                                                                
H        0.0000000000000     0.0000000000000     2.3288983083247               


       *******************************************************************
       *********** Output from DALTON general input processing ***********
       *******************************************************************

 --------------------------------------------------------------------------------
   Overall default print level:    0
   Print level for DALTON.STAT:    1

    AO-direct calculation (in sections where implemented)
    HERMIT 1- and 2-electron integral sections will be executed
    "Old" integral transformation used (limited to max 255 basis functions)
    Wave function sections will be executed (SIRIUS module)
 --------------------------------------------------------------------------------


 Changes of defaults for *MOLBAS:
 --------------------------------

 Print level in molecule setup (READIN):    1

 .R12AUX: Reading auxiliary basis sets from .mol file for R12



   ****************************************************************************
   *************** Output of molecule and basis set information ***************
   ****************************************************************************


    The two title cards from your ".mol" input:
    ------------------------------------------------------------------------
 1: BH                                                                      
 2:                                                                         
    ------------------------------------------------------------------------

  Atomic type no.    1
  --------------------
  Nuclear charge:   5.00000
  Number of symmetry independent centers:    1
  Number of basis sets to read;    1
  Basis set file used for this atomic type with Z =   5 :
     "/home/bast/DALTON-2013.0-Source/build/basis/Ahlrichs-VDZ"

  Atomic type no.    2
  --------------------
  Nuclear charge:   1.00000
  Number of symmetry independent centers:    1
  Number of basis sets to read;    1
  Basis set file used for this atomic type with Z =   1 :
     "/home/bast/DALTON-2013.0-Source/build/basis/Ahlrichs-VDZ"

  Atomic type no.    3
  --------------------
  Nuclear charge:   5.00000
  Number of symmetry independent centers:    1
  This is an auxiliary basis for R12, MBSI:    2
  Basis set file used for this atomic type with Z =   5 :
     "/home/bast/DALTON-2013.0-Source/build/basis/Ahlrichs-VTZ"

  Atomic type no.    4
  --------------------
  Nuclear charge:   1.00000
  Number of symmetry independent centers:    1
  This is an auxiliary basis for R12, MBSI:    2
  Basis set file used for this atomic type with Z =   1 :
     "/home/bast/DALTON-2013.0-Source/build/basis/Ahlrichs-VTZ"


                         SYMGRP: Point group information
                         -------------------------------

Point group: C1 


                                 Isotopic Masses
                                 ---------------

                           B          11.009305
                           H           1.007825
                           B           0.000000
                           H           0.000000

                       Total mass:    12.017130 amu
                       Natural abundance:   0.000 %

 Center-of-mass coordinates (a.u.):    0.000000    0.000000    0.195315


  Atoms and basis sets
  --------------------

  Number of atom types :    4
  Total number of atoms:    4

  Basis set 1 refers to the basis "Ahlrichs-VDZ" from the basis set library.

  Basis set 2 refers to the basis "Ahlrichs-VTZ" from the basis set library.

  label  basis   atoms  charge   prim  cont     basis
  ------------------------------------------------------------------------------
  B        1       1    5.0000    19     9      [7s4p|3s2p]                                        
  H        1       1    1.0000     4     2      [4s|2s]                                            
  B        2       1    0.0000    28    15      [10s6p|6s3p]                                       
  H        2       1    0.0000     5     3      [5s|3s]                                            
  ------------------------------------------------------------------------------
  total:           4    6.0000    56    29
  ------------------------------------------------------------------------------

  Threshold for neglecting AO integrals:  1.00D-15


  Cartesian Coordinates (a.u.)
  ----------------------------

  Total number of coordinates:   12
  B       :     1  x   0.0000000000    2  y   0.0000000000    3  z   0.0000000000
  H       :     4  x   0.0000000000    5  y   0.0000000000    6  z   2.3288983083
  B       :     7  x   0.0000000000    8  y   0.0000000000    9  z   0.0000000000
  H       :    10  x   0.0000000000   11  y   0.0000000000   12  z   2.3288983083


   Interatomic separations (in Angstrom):
   --------------------------------------

            B           H           B           H     
            ------      ------      ------      ------
 B     :    0.000000
 H     :    1.232400    0.000000
 B     :    0.000000    1.232400    0.000000
 H     :    1.232400    0.000000    1.232400    0.000000


  Max    interatomic separation is    1.2324 Angstrom (    2.3289 Bohr)
  between atoms    2 and    1, "H     " and "B     ".

  Min HX interatomic separation is    0.0000 Angstrom (    0.0000 Bohr)

  Min YX interatomic separation is    0.0000 Angstrom (    0.0000 Bohr)

WARNING: Number of short HX and YX bond lengths:    1    1
WARNING: If not intentional, maybe your coordinates were in Angstrom,
WARNING: but "Angstrom" was not specified in .mol file


  Bond distances (Angstrom):
  --------------------------

                  atom 1     atom 2       distance
                  ------     ------       --------
  bond distance:  H          B            1.232400


  Bond angles (degrees):
  ----------------------

                  atom 1     atom 2     atom 3         angle
                  ------     ------     ------         -----
     No angles found




 Principal moments of inertia (u*A**2) and principal axes
 --------------------------------------------------------

   IA       0.000000          0.000000    0.000000    1.000000
   IB       1.402321          0.000000    1.000000    0.000000
   IC       1.402321          1.000000    0.000000    0.000000


 Rotational constants
 --------------------

 The molecule is linear.

               B =       360387.41 MHz     (   12.021230 cm-1)


@  Nuclear repulsion energy :    2.146937881370 Hartree

  Number of main orbitals in each symmetry:          11
  Number of auxiliary functions in each symmetry:    18

  Number of floating/multiple basis set orbitals :    2


                     .---------------------------------------.
                     | Starting in Integral Section (HERMIT) |
                     `---------------------------------------'



    *************************************************************************
    ****************** Output from HERMIT input processing ******************
    *************************************************************************


 Default print level:        1

 * Nuclear model: Point charge

 Calculation of one-electron Hamiltonian integrals.

 The following one-electron property integrals are calculated as requested:
          - overlap integrals
          - Cartesian multipole moment integrals of orders 2 and lower

 Center of mass  (bohr):      0.000000000000      0.000000000000      0.195314683089
 Operator center (bohr):      0.000000000000      0.000000000000      0.000000000000
 Gauge origin    (bohr):      0.000000000000      0.000000000000      0.000000000000
 Dipole origin   (bohr):      0.000000000000      0.000000000000      0.000000000000


     ************************************************************************
     ************************** Output from HERINT **************************
     ************************************************************************

 >>>> Total CPU  time used in HERMIT:   0.02 seconds
 >>>> Total wall time used in HERMIT:   0.02 seconds


                        .----------------------------------.
                        | End of Integral Section (HERMIT) |
                        `----------------------------------'



                   .--------------------------------------------.
                   | Starting in Wave Function Section (SIRIUS) |
                   `--------------------------------------------'

 NCCEXCI for singlet:           8

 >>>> Detected R12 input:
 Direct Fock matrix formation switched on!
 Scale factors for CC excitations manifolds:
 for bra states (projection manifold):   1.0000000000000000     
 for ket states (operator manifold)  :   1.0000000000000000     

 **********************************************************************
 *SIRIUS* a direct, restricted step, second order MCSCF program       *
 **********************************************************************

 
     Date and time (Linux)  : Sun Sep  8 21:02:25 2013
     Host name              : lpqlx131.ups-tlse.fr                    

 Title lines from ".mol" input file:
     BH                                                                      
                                                                             

 Print level on unit LUPRI =   2 is   0
 Print level on unit LUW4  =   2 is   5

@    (Integral direct) CC calculation.

@    This is a combination run starting with
@              a restricted, closed shell Hartree-Fock calculation

 Fock matrices are calculated directly without use of integrals on disk.

 Initial molecular orbitals are obtained according to
 ".MOSTART H1DIAG" input option

     Wave function specification
     ============================

     For the specification of the Coupled Cluster: see later.

@    For the wave function of type :      >>> CC <<<
@    Number of closed shell electrons           6
@    Number of electrons in active shells       0
@    Total charge of the molecule               0

@    Spin multiplicity and 2 M_S                1         0
     Total number of symmetries                 1
@    Reference state symmetry                   1

     Orbital specifications
     ======================
     Abelian symmetry species          All |    1
                                       --- |  ---
@    Occupied SCF orbitals               3 |    3
     Secondary orbitals                  8 |    8
     Total number of orbitals           11 |   11
     Number of basis functions          29 |   29

     Optimization information
     ========================
@    Number of configurations                 1
@    Number of orbital rotations             24
     ------------------------------------------
@    Total number of variables               25

     Maximum number of Fock   iterations      0
     Maximum number of DIIS   iterations     60
     Maximum number of QC-SCF iterations     60
     Threshold for SCF convergence     1.00D-10


 Changes of defaults for CC:
 ---------------------------


 -This is a direct atomic orbital integral based
  calculation for coupled cluster wave function

 -Implicit frozen core calculation
 -Excitation energies calculated
  


 >>>>> DIIS optimization of Hartree-Fock <<<<<

 C1-DIIS algorithm; max error vectors =   10

 Iter      Total energy        Error norm    Delta(E)  DIIS dim.
 -----------------------------------------------------------------------------
   1  Screening settings (-IFTHRS, DIFDEN)   -6    T
@  1    -23.7919251551        2.34990D+00   -2.38D+01    1
      Virial theorem: -V/T =      1.842685
@      MULPOP B      -0.85; H       0.85; 
 -----------------------------------------------------------------------------
   2  Screening settings (-IFTHRS, DIFDEN)   -6    T
@  2    -24.8475362942        3.24810D-01   -1.06D+00    2
      Virial theorem: -V/T =      2.020807
@      MULPOP B      -0.07; H       0.07; 
 -----------------------------------------------------------------------------
   3  Screening settings (-IFTHRS, DIFDEN)   -8    F
@  3    -24.8632919723        1.01775D-01   -1.58D-02    3
      Virial theorem: -V/T =      2.008046
@      MULPOP B      -0.20; H       0.20; 
 -----------------------------------------------------------------------------
   4  Screening settings (-IFTHRS, DIFDEN)   -8    T
@  4    -24.8661450214        1.99210D-02   -2.85D-03    4
      Virial theorem: -V/T =      2.005996
@      MULPOP B      -0.25; H       0.25; 
 -----------------------------------------------------------------------------
   5  Screening settings (-IFTHRS, DIFDEN)   -8    T
@  5    -24.8662245512        1.60363D-03   -7.95D-05    5
      Virial theorem: -V/T =      2.005979
@      MULPOP B      -0.24; H       0.24; 
 -----------------------------------------------------------------------------
   6  Screening settings (-IFTHRS, DIFDEN)  -10    F
@  6    -24.8662249440        2.87850D-04   -3.93D-07    6
      Virial theorem: -V/T =      2.005930
@      MULPOP B      -0.24; H       0.24; 
 -----------------------------------------------------------------------------
   7  Screening settings (-IFTHRS, DIFDEN)  -10    T
@  7    -24.8662249627        4.42328D-05   -1.87D-08    7
      Virial theorem: -V/T =      2.005927
@      MULPOP B      -0.24; H       0.24; 
 -----------------------------------------------------------------------------
   8  Screening settings (-IFTHRS, DIFDEN)  -12    F
@  8    -24.8662249632        6.36095D-06   -4.55D-10    8
      Virial theorem: -V/T =      2.005926
@      MULPOP B      -0.24; H       0.24; 
 -----------------------------------------------------------------------------
   9  Screening settings (-IFTHRS, DIFDEN)  -15    F
@  9    -24.8662249632        7.38034D-07   -1.02D-11    9
      Virial theorem: -V/T =      2.005927
@      MULPOP B      -0.24; H       0.24; 
 -----------------------------------------------------------------------------
  10  Screening settings (-IFTHRS, DIFDEN)  -15    T
@ 10    -24.8662249632        8.14436D-08   -1.49D-13   10
      Virial theorem: -V/T =      2.005927
@      MULPOP B      -0.24; H       0.24; 
 -----------------------------------------------------------------------------
  11  Screening settings (-IFTHRS, DIFDEN)  -15    T
@ 11    -24.8662249632        5.72005D-09    0.00D+00   10
      Virial theorem: -V/T =      2.005927
@      MULPOP B      -0.24; H       0.24; 
 -----------------------------------------------------------------------------
  12  Screening settings (-IFTHRS, DIFDEN)  -15    T
@ 12    -24.8662249632        3.12455D-10   -1.78D-14   10
      Virial theorem: -V/T =      2.005927
@      MULPOP B      -0.24; H       0.24; 
 -----------------------------------------------------------------------------
  13  Screening settings (-IFTHRS, DIFDEN)  -15    T
@ 13    -24.8662249632        1.31822D-11    3.55D-15   10

@ *** DIIS converged in  13 iterations !
@     Converged SCF energy, gradient:    -24.866224963189    1.32D-11
    - total time used in SIRFCK :              0.00 seconds


 *** SCF orbital energy analysis ***

 Only the five lowest virtual orbital energies printed in each symmetry.

 Number of electrons :    6
 Orbital occupations :    3

 Sym       Hartree-Fock orbital energies

  1     -7.70595215    -0.61638695    -0.24792717    -0.06775641     0.05644934
         0.25454406     0.33040601     0.42240231

    E(LUMO) :    -0.06775641 au (symmetry 1)
  - E(HOMO) :    -0.24792717 au (symmetry 1)
  ------------------------------------------
    gap     :     0.18017076 au

 >>> Writing SIRIFC interface file <<<

  Canonical primary and secondary basis sets
  ISYM       NORB1 MBAS1       NORB2 MBAS2
     1          11    11          18    18

 Computation of exchange matrix done [5]

 AUXILIARY BASIS LOW EIGENVALUES
 ISYM         EIGENVALUE
   1      0.000000000000

 >>>> CPU and wall time for SCF :       0.031       0.031


                       .-----------------------------------.
                       | >>> Final results from SIRIUS <<< |
                       `-----------------------------------'


@    Spin multiplicity:           1
@    Spatial symmetry:            1
@    Total charge of molecule:    0

@    Final HF energy:             -24.866224963189                 
@    Nuclear repulsion:             2.146937881370
@    Electronic energy:           -27.013162844558

@    Final gradient norm:           0.000000000013

 
     Date and time (Linux)  : Sun Sep  8 21:02:25 2013
     Host name              : lpqlx131.ups-tlse.fr                    

 (Only coefficients >0.0100 are printed.)

 Molecular orbitals for symmetry species  1
 ------------------------------------------

    Orbital         1        2        3        4        5
   1 B   :1s     0.9929   0.2173   0.0000  -0.1399   0.0000
   2 B   :1s    -0.0268   0.4807   0.0000  -0.2638   0.0000
   3 B   :1s     0.0100   0.1989   0.0000  -0.5920   0.0000
   4 B   :2px    0.0000   0.0000   0.0000   0.0000  -0.3999
   5 B   :2py    0.0000   0.0000   0.6053   0.0000   0.0000
   6 B   :2pz   -0.0023  -0.1899   0.0000  -0.3290   0.0000
   7 B   :2px    0.0000   0.0000   0.0000   0.0000   0.7243
   8 B   :2py    0.0000   0.0000  -0.5319   0.0000   0.0000
   9 B   :2pz   -0.0010   0.0408   0.0000   0.3043   0.0000
  10 H   :1s     0.0009   0.3698   0.0000   0.2400   0.0000
  11 H   :1s    -0.0011   0.1062   0.0000   0.2634   0.0000



 >>>> Total CPU  time used in SIRIUS :      0.03 seconds
 >>>> Total wall time used in SIRIUS :      0.03 seconds

 
     Date and time (Linux)  : Sun Sep  8 21:02:25 2013
     Host name              : lpqlx131.ups-tlse.fr                    


                     .---------------------------------------.
                     | End of Wave Function Section (SIRIUS) |
                     `---------------------------------------'



                    .------------------------------------------.
                    | Starting in Coupled Cluster Section (CC) |
                    `------------------------------------------'

  

 *******************************************************************************
 *******************************************************************************
 *                                                                             *
 *                                                                             *
 *                    START OF COUPLED CLUSTER CALCULATION                     *
 *                                                                             *
 *                                                                             *
 *******************************************************************************
 *******************************************************************************



 CCR12 ANSATZ =   1

 CCR12 APPROX =   2

   NRHF   :       2
   NRHFS  :       3
   NORB1  :      11
   NORB2  :      18

 Number of primary orbitals             :           11
 Number of secondary orbitals           :           18
 Total number of orbitals               :           29
 Total number of basis functions        :           29
 Number of (i|p) integrals              :           22
 Number of (i|p') integrals             :           58
 Number of (i|u') integrals             :           58
 Number of (Ip'|jL) integrals           :           58
 Number of (ip'|jq) integrals           :         1045
 Threshold for R12 contributions            =  0.00000    
 Threshold for singular value decomposition = 0.100000E-11

 The B matrix is transformed into an orthogonal basis
 and inverted by diagonalization

 ******************************************************************************
 The MP2-R12/A and MP2-R12/B energies are computed as described in:
 W. Klopper, J. Chem. Phys. 120, 10890-10895 (2004).
 To avoid the hybride scheme, the keyword '.NO HYB'
 must be specified in the Dalton input file.
 ------------------------------------------------------------------------------
 Ansatz 1 is used and results are printed for approximations A and B.
 ******************************************************************************

 Core memory required by CCSD_R12 :           7423  (double words)

 Computation of (ip'|r12|jq) integrals done
 Backtransformation of (ip'|r12|jq') integrals done
 Computation of V^aj_kl intermediate done

 >>> Time used for V^aj_kl is    0.00 seconds

 Computation of (ip'|1/r12|jq) integrals done
 Computation of (i* p'|r12|jq) integrals done
 Computation of (i'p|r12|jq) integrals done
 Computation of (ip'|[T,r12]|jq) integrals done


                 +-----------------------------------------------+
                 ! MP2-R12 ansatz := (1 - P1 - P2 + P1*P2) * R12 !
                 +-----------------------------------------------+


 SECOND-ORDER PAIR ENERGIES:

                    1   -0.016795819    0.000000000
                    2   -0.003974111   -0.002817193
                    3   -0.012457849    0.000000000

 MP2 =   -0.036044971   -0.033227778   -0.002817193


                         +--------------------------------+
                         ! Auxiliary-basis MP2-R12 method !
                         +--------------------------------+


 SECOND-ORDER R12/A PAIR ENERGIES:

   1   -0.016795819   -0.034886626    0.000000000    0.000000000    0.680924        0.869962    
   2   -0.003974111   -0.034855381   -0.002817193   -0.022216633    0.680924        0.869962    
   3   -0.012457849   -0.048119091    0.000000000    0.000000000    0.680924        0.869962    

       -0.033227778   -0.117861098   -0.002817193   -0.022216633

              MP2-R12/A   correlation energy =   -0.140077731

 SECOND-ORDER R12/B PAIR ENERGIES:

   1   -0.016795819   -0.027398080    0.000000000    0.000000000     2.17028         2.23311    
   2   -0.003974111   -0.017826513   -0.002817193   -0.011868089     1.80182         1.86465    
   3   -0.012457849   -0.028662489    0.000000000    0.000000000     1.43336         1.49619    

       -0.033227778   -0.073887083   -0.002817193   -0.011868089

              MP2-R12/B   correlation energy =   -0.085755172
 Time for MP2-R12 part cpu :  0.36799999999999999     
 Time for MP2-R12 part wall:  0.59499999880790710     
   

 *******************************************************************
 *                                                                 *
 *<<<<<<<<<<                                             >>>>>>>>>>*
 *<<<<<<<<<< OUTPUT FROM COUPLED CLUSTER ENERGY PROGRAM  >>>>>>>>>>*
 *<<<<<<<<<<                                             >>>>>>>>>>*
 *                                                                 *
 *******************************************************************


             The Direct Coupled Cluster Energy Program
             -----------------------------------------


          Number of t1 amplitudes                 :        16
          Number of t2 amplitudes                 :       136
          Number of t2' amplitudes for R12 part   :        10
          Total number of amplitudes in ccsd      :       162

 Iter.  1: Coupled cluster MP2-R12/A energy :     -25.0063026940181921
     Conventional correlation energy:    -0.0360449713809103
     R12 correlation energy         :    -0.1040327594486890
     Total correlation energy       :    -0.1400777308295994


       Iteration no.:  1
       -----------------

       Time used in   RHS - TOTAL  :       0.07 seconds
       Norm^2 of omega1 after ccvec:        0.9675831043D-04
       Norm^2 of omega2 after ccvec:        0.7462534785D-30
       Norm^2 of Omegar12  in NXTAM:        0.4407857479D-29
 Iter.  1: Coupled cluster CC2-R12/A energy :     -25.0062824074527299
     Conventional correlation energy:    -0.0360246848154482
     R12 correlation energy         :    -0.1040327594486893
     Total correlation energy       :    -0.1400574442641375


       Iteration no.:  2
       -----------------

       Time used in   RHS - TOTAL  :       0.07 seconds
       Norm^2 of omega1 after ccvec:        0.6549308719D-05
       Norm^2 of omega2 after ccvec:        0.1522249272D-04
       Norm^2 of Omegar12  in NXTAM:        0.1251688661D-05
 Iter.  2: Coupled cluster CC2-R12/A energy :     -25.0065966334043210
     Conventional correlation energy:    -0.0360263205711746
     R12 correlation energy         :    -0.1043453496445529
     Total correlation energy       :    -0.1403716702157276


       Iteration no.:  3
       -----------------

       Time used in   RHS - TOTAL  :       0.07 seconds
       Norm^2 of omega1 after ccvec:        0.1881012690D-05
       Norm^2 of omega2 after ccvec:        0.7542276616D-06
       Norm^2 of Omegar12  in NXTAM:        0.5444521982D-07
 Iter.  3: Coupled cluster CC2-R12/A energy :     -25.0067024357475027
     Conventional correlation energy:    -0.0360107582200158
     R12 correlation energy         :    -0.1044667143388947
     Total correlation energy       :    -0.1404774725589104


       Iteration no.:  4
       -----------------

       Time used in   RHS - TOTAL  :       0.06 seconds
       Norm^2 of omega1 after ccvec:        0.8944577375D-07
       Norm^2 of omega2 after ccvec:        0.5659042484D-07
       Norm^2 of Omegar12  in NXTAM:        0.1214271990D-08
 Iter.  4: Coupled cluster CC2-R12/A energy :     -25.0067050691369417
     Conventional correlation energy:    -0.0360021222476696
     R12 correlation energy         :    -0.1044779837006779
     Total correlation energy       :    -0.1404801059483475


       Iteration no.:  5
       -----------------

       Time used in   RHS - TOTAL  :       0.06 seconds
       Norm^2 of omega1 after ccvec:        0.1316547278D-08
       Norm^2 of omega2 after ccvec:        0.3211026380D-09
       Norm^2 of Omegar12  in NXTAM:        0.1357910095D-10
 Iter.  5: Coupled cluster CC2-R12/A energy :     -25.0067051055155893
     Conventional correlation energy:    -0.0360008352494141
     R12 correlation energy         :    -0.1044793070775830
     Total correlation energy       :    -0.1404801423269972


       Iteration no.:  6
       -----------------

       Time used in   RHS - TOTAL  :       0.06 seconds
       Norm^2 of omega1 after ccvec:        0.2661138257D-10
       Norm^2 of omega2 after ccvec:        0.1212447868D-10
       Norm^2 of Omegar12  in NXTAM:        0.6645941682D-12
 Iter.  6: Coupled cluster CC2-R12/A energy :     -25.0067051277287327
     Conventional correlation energy:    -0.0360006089046649
     R12 correlation energy         :    -0.1044795556354738
     Total correlation energy       :    -0.1404801645401387


       Iteration no.:  7
       -----------------

       Time used in   RHS - TOTAL  :       0.06 seconds
       Norm^2 of omega1 after ccvec:        0.2584360909D-12
       Norm^2 of omega2 after ccvec:        0.1602546535D-12
       Norm^2 of Omegar12  in NXTAM:        0.2229422132D-14
 Iter.  7: Coupled cluster CC2-R12/A energy :     -25.0067051380625500
     Conventional correlation energy:    -0.0360006182241577
     R12 correlation energy         :    -0.1044795566497990
     Total correlation energy       :    -0.1404801748739567


       Iteration no.:  8
       -----------------

       Time used in   RHS - TOTAL  :       0.06 seconds
       Norm^2 of omega1 after ccvec:        0.2924703707D-14
       Norm^2 of omega2 after ccvec:        0.7234310646D-15
       Norm^2 of Omegar12  in NXTAM:        0.1862138550D-16
 Iter.  8: Coupled cluster CC2-R12/A energy :     -25.0067051366611466
     Conventional correlation energy:    -0.0360006173668950
     R12 correlation energy         :    -0.1044795561056587
     Total correlation energy       :    -0.1404801734725537


       Iteration no.:  9
       -----------------

       Time used in   RHS - TOTAL  :       0.07 seconds
       Norm^2 of omega1 after ccvec:        0.8232652058D-16
       Norm^2 of omega2 after ccvec:        0.5478070275D-16
       Norm^2 of Omegar12  in NXTAM:        0.1004233267D-17
 Iter.  9: Coupled cluster CC2-R12/A energy :     -25.0067051367077404
     Conventional correlation energy:    -0.0360006174250387
     R12 correlation energy         :    -0.1044795560941076
     Total correlation energy       :    -0.1404801735191463


       Iteration no.: 10
       -----------------

       Time used in   RHS - TOTAL  :       0.06 seconds
       Norm^2 of omega1 after ccvec:        0.8444971633D-17
       Norm^2 of omega2 after ccvec:        0.2902307488D-17
       Norm^2 of Omegar12  in NXTAM:        0.1484236743D-18
 Iter. 10: Coupled cluster CC2-R12/A energy :     -25.0067051367458824
     Conventional correlation energy:    -0.0360006174012391
     R12 correlation energy         :    -0.1044795561560522
     Total correlation energy       :    -0.1404801735572913


       Iteration no.: 11
       -----------------

       Time used in   RHS - TOTAL  :       0.06 seconds
       Norm^2 of omega1 after ccvec:        0.5162653110D-19
       Norm^2 of omega2 after ccvec:        0.1951062311D-19
       Norm^2 of Omegar12  in NXTAM:        0.6407869159D-21
 Iter. 11: Coupled cluster CC2-R12/A energy :     -25.0067051367482307
     Conventional correlation energy:    -0.0360006174027347
     R12 correlation energy         :    -0.1044795561569016
     Total correlation energy       :    -0.1404801735596364


       Iteration no.: 12
       -----------------

       Time used in   RHS - TOTAL  :       0.06 seconds
       Norm^2 of omega1 after ccvec:        0.6233304330D-20
       Norm^2 of omega2 after ccvec:        0.6597388931D-20
       Norm^2 of Omegar12  in NXTAM:        0.3854875212D-21
 Iter. 12: Coupled cluster CC2-R12/A energy :     -25.0067051367538227
     Conventional correlation energy:    -0.0360006174009690
     R12 correlation energy         :    -0.1044795561642599
     Total correlation energy       :    -0.1404801735652289


       Iteration no.: 13
       -----------------

       Time used in   RHS - TOTAL  :       0.06 seconds
       Norm^2 of omega1 after ccvec:        0.3568755600D-21
       Norm^2 of omega2 after ccvec:        0.1783972330D-21
       Norm^2 of Omegar12  in NXTAM:        0.2389421921D-23
 Iter. 13: Coupled cluster CC2-R12/A energy :     -25.0067051367543733
     Conventional correlation energy:    -0.0360006174003864
     R12 correlation energy         :    -0.1044795561653946
     Total correlation energy       :    -0.1404801735657810


       Iteration no.: 14
       -----------------

       Time used in   RHS - TOTAL  :       0.07 seconds
       Norm^2 of omega1 after ccvec:        0.2582728877D-22
       Norm^2 of omega2 after ccvec:        0.1663335956D-22
       Norm^2 of Omegar12  in NXTAM:        0.7835228815D-24
 Iter. 14: Coupled cluster CC2-R12/A energy :     -25.0067051367546576
     Conventional correlation energy:    -0.0360006174003296
     R12 correlation energy         :    -0.1044795561657364
     Total correlation energy       :    -0.1404801735660660


 CC2-R12/A energy converged to within   0.10D-11 is          -25.006705136755
 Final 2-norm of the CC vector function:  6.51618357D-12
 R12       energy converged to within   0.10D-11 is     -0.104479556


                    +------------------------------------------+
                    ! Largest amplitudes in converged solution !
                    +------------------------------------------+



          CC_PRAM:Overall Contribution of the Different Components
          --------------------------------------------------------



          Single Excitation Contribution :               1.9759 %

          Double Excitation Contribution :              98.0241 %

          ||T1||/||T2||                  :               0.1420

          Tau1 diagnostic                :               0.0121

          Norm of Total Amplitude Vector :               0.1728


 +=============================================================================+
 | symmetry|  orbital index  |   Excitation Numbers             |   Amplitude  |
 |  Index  |   a   b   i   j |      NAI      NBJ |     NAIBJ    |              |
 +=============================================================================+
 | 1   1   |   1       1     |        1          |              |    0.022346  |
 | 1   1   |   6       2     |       14          |              |    0.007429  |
 +-----------------------------------------------------------------------------+
 | 1 1 1 1 |   1   1   1   1 |        1        1 |            1 |   -0.052998  |
 | 1 1 1 1 |   2   2   1   1 |        2        2 |            3 |   -0.033388  |
 | 1 1 1 1 |   1   1   2   2 |        9        9 |           45 |   -0.117880  |
 | 1 1 1 1 |   6   6   2   2 |       14       14 |          105 |   -0.061058  |
 +=============================================================================+


          Norm of Printed Amplitude Vector :             0.1487

          Printed all single excitations greater than 0.004686

          Printed all double excitations greater than 0.033002





             +-------------------------------------------------------+
             ! Final results from the Coupled Cluster energy program !
             +-------------------------------------------------------+



            Total SCF   energy:                   -24.8662249632

            Total MP2-R12/A energy:               -25.0063026940

            Total CC2-R12/A energy:               -25.0067051368




                   +--------------------------------------------+
                   ! Calculating singlet intermediates for CCLR !
                   +--------------------------------------------+



       Time used in   RHS - TOTAL  :       0.07 seconds


            E-intermediates calculated 
            Fock-intermediate calculated 


   

 *******************************************************************
 *                                                                 *
 *<<<<<<<<<< OUTPUT FROM COUPLED CLUSTER LINEAR RESPONSE >>>>>>>>>>*
 *                                                                 *
 *<<<<<<<<<<     CALCULATION OF EXCITATION ENERGIES      >>>>>>>>>>*
 *                                                                 *
 *******************************************************************



                            +--------------------------+
                            !  CC2 Excitation Energies !
                            +--------------------------+


 --------------------------
 Symmetry class Nr.:     1
 Multiplicity      :     1
 --------------------------

 Length of Excitation vectors in this class is:       162
 Converging for  8 roots.
  >> output from FNDMN3 <<
  NUMBER OF ELEMENTS OBTAINED IN FNDMN3           11
  FROM FNDMN3 : 
    PLACES OF LOWEST ELEMENTS 
     1 :      9     10     61     70     11      1     12     71     13      2
             80
  MIN AND MAX IN SELECTED SUPSPACE   0.18017076459843381       0.68264200192011182     
Try to use right eigenvector as start for a left eigenvector.
 could not find required file CCRE_1___1
 IOPTSV is    33 ... program continues nevertheless.
 Vector nr.  1 of type RE and symmetry  1 was ot found on file.
 Start vector guessed from diagonal
 ... selected element no.  9
Try to use right eigenvector as start for a left eigenvector.
 could not find required file CCRE_1___2
 IOPTSV is    33 ... program continues nevertheless.
 Vector nr.  2 of type RE and symmetry  1 was ot found on file.
 Start vector guessed from diagonal
 ... selected element no. 10
Try to use right eigenvector as start for a left eigenvector.
 could not find required file CCRE_1___3
 IOPTSV is    33 ... program continues nevertheless.
 Vector nr.  3 of type RE and symmetry  1 was ot found on file.
 Start vector guessed from diagonal
 ... selected element no. 61
Try to use right eigenvector as start for a left eigenvector.
 could not find required file CCRE_1___4
 IOPTSV is    33 ... program continues nevertheless.
 Vector nr.  4 of type RE and symmetry  1 was ot found on file.
 Start vector guessed from diagonal
 ... selected element no. 70
Try to use right eigenvector as start for a left eigenvector.
 could not find required file CCRE_1___5
 IOPTSV is    33 ... program continues nevertheless.
 Vector nr.  5 of type RE and symmetry  1 was ot found on file.
 Start vector guessed from diagonal
 ... selected element no. 11
Try to use right eigenvector as start for a left eigenvector.
 could not find required file CCRE_1___6
 IOPTSV is    33 ... program continues nevertheless.
 Vector nr.  6 of type RE and symmetry  1 was ot found on file.
 Start vector guessed from diagonal
 ... selected element no.  1
Try to use right eigenvector as start for a left eigenvector.
 could not find required file CCRE_1___7
 IOPTSV is    33 ... program continues nevertheless.
 Vector nr.  7 of type RE and symmetry  1 was ot found on file.
 Start vector guessed from diagonal
 ... selected element no. 12
Try to use right eigenvector as start for a left eigenvector.
 could not find required file CCRE_1___8
 IOPTSV is    33 ... program continues nevertheless.
 Vector nr.  8 of type RE and symmetry  1 was ot found on file.
 Start vector guessed from diagonal
 ... selected element no. 71



 >>>>> COUPLED CLUSTER RESPONSE SOLVER <<<<<

    Iter  #Vectors  time (min)   residual
    --------------------------------------

 REDUCED EIGENVALUES real part:

               Column   1
       1      -0.02939325
       2       0.07388231
       3       0.32185575
       4       0.33849220
       5       0.39470708
       6       0.41306267
       7       0.48454728
       8       0.60875304
    ==== End of matrix output ====
  
 ROOT:  1 RESIDUAL TOT: 2.01454D-01
 ROOT:  2 RESIDUAL TOT: 1.58985D-01
 ROOT:  3 RESIDUAL TOT: 1.56455D-01
 ROOT:  4 RESIDUAL TOT: 2.23769D-01
 ROOT:  5 RESIDUAL TOT: 1.83908D-01
 ROOT:  6 RESIDUAL TOT: 1.91251D-01
 ROOT:  7 RESIDUAL TOT: 3.30352D-02
 ROOT:  8 RESIDUAL TOT: 9.45499D-04

 (CCORT) new  b-vector no.  8
 is removed because of linear dependence;
 norm of vector after Gram-Schmidt's orthogonalization  1.70816D-30
  After Gram Schmidt orthonormalization
          -1  vectors with norm le:   1.0000000000000000E-035  REMOVED

 (CCORT)  trial vectors reduced from  8 to  7
      1       8         0.00     0.22E+00

 Lowest eigenvalues in this iteration: 

               Column   1
       1      -0.02939325
       2       0.07388231
       3       0.32185575
       4       0.33849220
       5       0.39470708
       6       0.41306267
       7       0.48454728
       8       0.60875304
    ==== End of matrix output ====
 Dimension of the reduced space:    15
 >>> TIME USED IN THIS MICRO ITERATION        0.03


 REDUCED EIGENVALUES real part:

               Column   1
       1      -0.05849512
       2       0.05202157
       3       0.28677450
       4       0.30306673
       5       0.36460887
       6       0.38636089
       7       0.44385041
       8       0.50947566
    ==== End of matrix output ====
  
 ROOT:  1 RESIDUAL TOT: 2.85818D-02
 ROOT:  2 RESIDUAL TOT: 3.83483D-02
 ROOT:  3 RESIDUAL TOT: 3.53838D-02
 ROOT:  4 RESIDUAL TOT: 3.13481D-02
 ROOT:  5 RESIDUAL TOT: 2.68998D-02
 ROOT:  6 RESIDUAL TOT: 2.42801D-02
 ROOT:  7 RESIDUAL TOT: 1.85496D-01
 ROOT:  8 RESIDUAL TOT: 1.46456D-01

 (CCORT) new  b-vector no.  8
 is removed because of linear dependence;
 norm of vector after Gram-Schmidt's orthogonalization  2.45075D-32
  After Gram Schmidt orthonormalization
          -1  vectors with norm le:   1.0000000000000000E-035  REMOVED

 (CCORT)  trial vectors reduced from  8 to  7
      2       7         0.00     0.19E+00

 Lowest eigenvalues in this iteration: 

               Column   1
       1      -0.05849512
       2       0.05202157
       3       0.28677450
       4       0.30306673
       5       0.36460887
       6       0.38636089
       7       0.44385041
       8       0.50947566
    ==== End of matrix output ====
 Dimension of the reduced space:    22
 >>> TIME USED IN THIS MICRO ITERATION        0.03


 REDUCED EIGENVALUES real part:

               Column   1
       1      -0.05998044
       2       0.04919994
       3       0.28491069
       4       0.29981090
       5       0.36192818
       6       0.38528558
       7       0.41193536
       8       0.44378320
    ==== End of matrix output ====
  
 ROOT:  1 RESIDUAL TOT: 3.10022D-03
 ROOT:  2 RESIDUAL TOT: 1.59976D-03
 ROOT:  3 RESIDUAL TOT: 1.11419D-02
 ROOT:  4 RESIDUAL TOT: 1.23075D-02
 ROOT:  5 RESIDUAL TOT: 2.10990D-02
 ROOT:  6 RESIDUAL TOT: 9.18602D-03
 ROOT:  7 RESIDUAL TOT: 3.70819D-02
 ROOT:  8 RESIDUAL TOT: 1.53398D-01
      3       7         0.00     0.15E+00

 Lowest eigenvalues in this iteration: 

               Column   1
       1      -0.05998044
       2       0.04919994
       3       0.28491069
       4       0.29981090
       5       0.36192818
       6       0.38528558
       7       0.41193536
       8       0.44378320
    ==== End of matrix output ====
 Dimension of the reduced space:    30
 >>> TIME USED IN THIS MICRO ITERATION        0.03


 REDUCED EIGENVALUES real part:

               Column   1
       1      -0.06002451
       2       0.04918738
       3       0.28436881
       4       0.29985085
       5       0.36071382
       6       0.38486778
       7       0.40788365
       8       0.40861939
    ==== End of matrix output ====
  
 ROOT:  1 RESIDUAL TOT: 7.73005D-05
 ROOT:  2 RESIDUAL TOT: 1.62902D-05
 ROOT:  3 RESIDUAL TOT: 1.87431D-03
 ROOT:  4 RESIDUAL TOT: 2.05146D-03
 ROOT:  5 RESIDUAL TOT: 5.38583D-03
 ROOT:  6 RESIDUAL TOT: 2.24450D-03
 ROOT:  7 RESIDUAL TOT: 2.46609D-02
 ROOT:  8 RESIDUAL TOT: 1.51795D-02
      4       8         0.00     0.25E-01

 Lowest eigenvalues in this iteration: 

               Column   1
       1      -0.06002451
       2       0.04918738
       3       0.28436881
       4       0.29985085
       5       0.36071382
       6       0.38486778
       7       0.40788365
       8       0.40861939
    ==== End of matrix output ====
 Dimension of the reduced space:    38
 >>> TIME USED IN THIS MICRO ITERATION        0.03


 REDUCED EIGENVALUES real part:

               Column   1
       1      -0.06002365
       2       0.04918763
       3       0.28438092
       4       0.29982181
       5       0.36064629
       6       0.38485350
       7       0.40679164
       8       0.40857665
    ==== End of matrix output ====
  
 ROOT:  1 RESIDUAL TOT: 7.01747D-06
 ROOT:  2 RESIDUAL TOT: 2.08933D-07
 ROOT:  3 RESIDUAL TOT: 4.90191D-04
 ROOT:  4 RESIDUAL TOT: 3.78377D-04
 ROOT:  5 RESIDUAL TOT: 1.32080D-03
 ROOT:  6 RESIDUAL TOT: 8.06882D-04
 ROOT:  7 RESIDUAL TOT: 6.73724D-03
 ROOT:  8 RESIDUAL TOT: 1.96016D-03
      5       8         0.00     0.67E-02

 Lowest eigenvalues in this iteration: 

               Column   1
       1      -0.06002365
       2       0.04918763
       3       0.28438092
       4       0.29982181
       5       0.36064629
       6       0.38485350
       7       0.40679164
       8       0.40857665
    ==== End of matrix output ====
 Dimension of the reduced space:    46
 >>> TIME USED IN THIS MICRO ITERATION        0.04


 REDUCED EIGENVALUES real part:

               Column   1
       1      -0.06002367
       2       0.04918762
       3       0.28439662
       4       0.29982289
       5       0.36065144
       6       0.38487528
       7       0.40678131
       8       0.40859604
    ==== End of matrix output ====
  
 ROOT:  1 RESIDUAL TOT: 4.69605D-08
 ROOT:  2 RESIDUAL TOT: 2.51240D-09
 ROOT:  3 RESIDUAL TOT: 1.26982D-04
 ROOT:  4 RESIDUAL TOT: 1.99489D-05
 ROOT:  5 RESIDUAL TOT: 8.00247D-05
 ROOT:  6 RESIDUAL TOT: 2.73055D-04
 ROOT:  7 RESIDUAL TOT: 5.11730D-04
 ROOT:  8 RESIDUAL TOT: 4.75641D-04
      6       8         0.00     0.51E-03

 Lowest eigenvalues in this iteration: 

               Column   1
       1      -0.06002367
       2       0.04918762
       3       0.28439662
       4       0.29982289
       5       0.36065144
       6       0.38487528
       7       0.40678131
       8       0.40859604
    ==== End of matrix output ====
 Dimension of the reduced space:    54
 >>> TIME USED IN THIS MICRO ITERATION        0.04


 REDUCED EIGENVALUES real part:

               Column   1
       1      -0.06002367
       2       0.04918762
       3       0.28439600
       4       0.29982307
       5       0.36065231
       6       0.38487438
       7       0.40677753
       8       0.40858917
    ==== End of matrix output ====
  
 ROOT:  1 RESIDUAL TOT: 5.50777D-10
 ROOT:  2 RESIDUAL TOT: 2.14805D-11
 ROOT:  2 HAS CONVERGED. RESIDUAL TOT: 2.14805D-11
 ROOT:  3 RESIDUAL TOT: 1.98565D-05
 ROOT:  4 RESIDUAL TOT: 1.60168D-06
 ROOT:  5 RESIDUAL TOT: 8.45487D-06
 ROOT:  6 RESIDUAL TOT: 4.92715D-05
 ROOT:  7 RESIDUAL TOT: 6.57187D-05
 ROOT:  8 RESIDUAL TOT: 4.57055D-05
      7       8         0.00     0.66E-04

 Lowest eigenvalues in this iteration: 

               Column   1
       1      -0.06002367
       2       0.04918762
       3       0.28439600
       4       0.29982307
       5       0.36065231
       6       0.38487438
       7       0.40677753
       8       0.40858917
    ==== End of matrix output ====
 Dimension of the reduced space:    61
 >>> TIME USED IN THIS MICRO ITERATION        0.04


 REDUCED EIGENVALUES real part:

               Column   1
       1      -0.06002367
       2       0.04918762
       3       0.28439575
       4       0.29982306
       5       0.36065226
       6       0.38487396
       7       0.40677810
       8       0.40858927
    ==== End of matrix output ====
  
 ROOT:  1 RESIDUAL TOT: 6.70448D-12
 ROOT:  1 HAS CONVERGED. RESIDUAL TOT: 6.70448D-12
 ROOT:  2 RESIDUAL TOT: 2.14805D-11
 ROOT:  2 HAS CONVERGED. RESIDUAL TOT: 2.14805D-11
 ROOT:  3 RESIDUAL TOT: 1.64255D-06
 ROOT:  4 RESIDUAL TOT: 1.52267D-07
 ROOT:  5 RESIDUAL TOT: 1.07167D-06
 ROOT:  6 RESIDUAL TOT: 5.04077D-06
 ROOT:  7 RESIDUAL TOT: 1.00927D-05
 ROOT:  8 RESIDUAL TOT: 4.52232D-06
      8       7         0.00     0.10E-04

 Lowest eigenvalues in this iteration: 

               Column   1
       1      -0.06002367
       2       0.04918762
       3       0.28439575
       4       0.29982306
       5       0.36065226
       6       0.38487396
       7       0.40677810
       8       0.40858927
    ==== End of matrix output ====
 Dimension of the reduced space:    67
 >>> TIME USED IN THIS MICRO ITERATION        0.04


 REDUCED EIGENVALUES real part:

               Column   1
       1      -0.06002367
       2       0.04918762
       3       0.28439575
       4       0.29982306
       5       0.36065226
       6       0.38487396
       7       0.40677813
       8       0.40858932
    ==== End of matrix output ====
  
 ROOT:  1 RESIDUAL TOT: 3.83710D-12
 ROOT:  1 HAS CONVERGED. RESIDUAL TOT: 3.83710D-12
 ROOT:  2 RESIDUAL TOT: 2.14805D-11
 ROOT:  2 HAS CONVERGED. RESIDUAL TOT: 2.14805D-11
 ROOT:  3 RESIDUAL TOT: 1.25189D-07
 ROOT:  4 RESIDUAL TOT: 9.19157D-09
 ROOT:  5 RESIDUAL TOT: 8.40792D-08
 ROOT:  6 RESIDUAL TOT: 7.21585D-07
 ROOT:  7 RESIDUAL TOT: 9.55300D-07
 ROOT:  8 RESIDUAL TOT: 6.07247D-07
      9       6         0.00     0.96E-06

 Lowest eigenvalues in this iteration: 

               Column   1
       1      -0.06002367
       2       0.04918762
       3       0.28439575
       4       0.29982306
       5       0.36065226
       6       0.38487396
       7       0.40677813
       8       0.40858932
    ==== End of matrix output ====
 Dimension of the reduced space:    73
 >>> TIME USED IN THIS MICRO ITERATION        0.04


 REDUCED EIGENVALUES real part:

               Column   1
       1      -0.06002367
       2       0.04918762
       3       0.28439575
       4       0.29982306
       5       0.36065227
       6       0.38487396
       7       0.40677812
       8       0.40858931
    ==== End of matrix output ====
  
 ROOT:  1 RESIDUAL TOT: 3.05610D-12
 ROOT:  1 HAS CONVERGED. RESIDUAL TOT: 3.05610D-12
 ROOT:  2 RESIDUAL TOT: 2.14805D-11
 ROOT:  2 HAS CONVERGED. RESIDUAL TOT: 2.14805D-11
 ROOT:  3 RESIDUAL TOT: 1.14667D-08
 ROOT:  4 RESIDUAL TOT: 2.66292D-10
 ROOT:  5 RESIDUAL TOT: 3.34793D-09
 ROOT:  6 RESIDUAL TOT: 1.15103D-07
 ROOT:  7 RESIDUAL TOT: 4.70568D-08
 ROOT:  8 RESIDUAL TOT: 3.45315D-08
     10       6         0.00     0.12E-06

 Lowest eigenvalues in this iteration: 

               Column   1
       1      -0.06002367
       2       0.04918762
       3       0.28439575
       4       0.29982306
       5       0.36065227
       6       0.38487396
       7       0.40677812
       8       0.40858931
    ==== End of matrix output ====
 Dimension of the reduced space:    79
 >>> TIME USED IN THIS MICRO ITERATION        0.04


 REDUCED EIGENVALUES real part:

               Column   1
       1      -0.06002367
       2       0.04918762
       3       0.28439575
       4       0.29982306
       5       0.36065227
       6       0.38487396
       7       0.40677812
       8       0.40858931
    ==== End of matrix output ====
  
 ROOT:  1 RESIDUAL TOT: 2.53174D-12
 ROOT:  1 HAS CONVERGED. RESIDUAL TOT: 2.53174D-12
 ROOT:  2 RESIDUAL TOT: 2.14805D-11
 ROOT:  2 HAS CONVERGED. RESIDUAL TOT: 2.14805D-11
 ROOT:  3 RESIDUAL TOT: 1.65922D-09
 ROOT:  4 RESIDUAL TOT: 6.96470D-12
 ROOT:  4 HAS CONVERGED. RESIDUAL TOT: 6.96470D-12
 ROOT:  5 RESIDUAL TOT: 1.06566D-10
 ROOT:  6 RESIDUAL TOT: 2.64754D-08
 ROOT:  7 RESIDUAL TOT: 1.71443D-09
 ROOT:  8 RESIDUAL TOT: 5.32594D-09
     11       6         0.00     0.26E-07

 Lowest eigenvalues in this iteration: 

               Column   1
       1      -0.06002367
       2       0.04918762
       3       0.28439575
       4       0.29982306
       5       0.36065227
       6       0.38487396
       7       0.40677812
       8       0.40858931
    ==== End of matrix output ====
 Dimension of the reduced space:    84
 >>> TIME USED IN THIS MICRO ITERATION        0.04


 REDUCED EIGENVALUES real part:

               Column   1
       1      -0.06002367
       2       0.04918762
       3       0.28439575
       4       0.29982306
       5       0.36065227
       6       0.38487397
       7       0.40677812
       8       0.40858931
    ==== End of matrix output ====
  
 ROOT:  1 RESIDUAL TOT: 1.99824D-12
 ROOT:  1 HAS CONVERGED. RESIDUAL TOT: 1.99824D-12
 ROOT:  2 RESIDUAL TOT: 2.14805D-11
 ROOT:  2 HAS CONVERGED. RESIDUAL TOT: 2.14805D-11
 ROOT:  3 RESIDUAL TOT: 1.27914D-10
 ROOT:  4 RESIDUAL TOT: 2.39219D-13
 ROOT:  4 HAS CONVERGED. RESIDUAL TOT: 2.39219D-13
 ROOT:  5 RESIDUAL TOT: 3.15276D-12
 ROOT:  5 HAS CONVERGED. RESIDUAL TOT: 3.15276D-12
 ROOT:  6 RESIDUAL TOT: 2.76287D-09
 ROOT:  7 RESIDUAL TOT: 5.93635D-11
 ROOT:  7 HAS CONVERGED. RESIDUAL TOT: 5.93635D-11
 ROOT:  8 RESIDUAL TOT: 4.57444D-10
     12       5         0.00     0.28E-08

 Lowest eigenvalues in this iteration: 

               Column   1
       1      -0.06002367
       2       0.04918762
       3       0.28439575
       4       0.29982306
       5       0.36065227
       6       0.38487397
       7       0.40677812
       8       0.40858931
    ==== End of matrix output ====
 Dimension of the reduced space:    87
 >>> TIME USED IN THIS MICRO ITERATION        0.04


 REDUCED EIGENVALUES real part:

               Column   1
       1      -0.06002367
       2       0.04918762
       3       0.28439575
       4       0.29982306
       5       0.36065227
       6       0.38487397
       7       0.40677812
       8       0.40858931
    ==== End of matrix output ====
  
 ROOT:  1 RESIDUAL TOT: 1.99824D-12
 ROOT:  1 HAS CONVERGED. RESIDUAL TOT: 1.99824D-12
 ROOT:  2 RESIDUAL TOT: 2.14805D-11
 ROOT:  2 HAS CONVERGED. RESIDUAL TOT: 2.14805D-11
 ROOT:  3 RESIDUAL TOT: 7.25761D-12
 ROOT:  3 HAS CONVERGED. RESIDUAL TOT: 7.25761D-12
 ROOT:  4 RESIDUAL TOT: 2.39219D-13
 ROOT:  4 HAS CONVERGED. RESIDUAL TOT: 2.39219D-13
 ROOT:  5 RESIDUAL TOT: 3.15276D-12
 ROOT:  5 HAS CONVERGED. RESIDUAL TOT: 3.15276D-12
 ROOT:  6 RESIDUAL TOT: 2.01804D-10
 ROOT:  7 RESIDUAL TOT: 5.93635D-11
 ROOT:  7 HAS CONVERGED. RESIDUAL TOT: 5.93635D-11
 ROOT:  8 RESIDUAL TOT: 4.97581D-11
 ROOT:  8 HAS CONVERGED. RESIDUAL TOT: 4.97581D-11
     13       3         0.00     0.20E-09

 Lowest eigenvalues in this iteration: 

               Column   1
       1      -0.06002367
       2       0.04918762
       3       0.28439575
       4       0.29982306
       5       0.36065227
       6       0.38487397
       7       0.40677812
       8       0.40858931
    ==== End of matrix output ====
 Dimension of the reduced space:    88
 >>> TIME USED IN THIS MICRO ITERATION        0.04


 REDUCED EIGENVALUES real part:

               Column   1
       1      -0.06002367
       2       0.04918762
       3       0.28439575
       4       0.29982306
       5       0.36065227
       6       0.38487397
       7       0.40677812
       8       0.40858931
    ==== End of matrix output ====
  
 ROOT:  1 RESIDUAL TOT: 1.99824D-12
 ROOT:  1 HAS CONVERGED. RESIDUAL TOT: 1.99824D-12
 ROOT:  2 RESIDUAL TOT: 2.14805D-11
 ROOT:  2 HAS CONVERGED. RESIDUAL TOT: 2.14805D-11
 ROOT:  3 RESIDUAL TOT: 3.15453D-12
 ROOT:  3 HAS CONVERGED. RESIDUAL TOT: 3.15453D-12
 ROOT:  4 RESIDUAL TOT: 2.39219D-13
 ROOT:  4 HAS CONVERGED. RESIDUAL TOT: 2.39219D-13
 ROOT:  5 RESIDUAL TOT: 3.15276D-12
 ROOT:  5 HAS CONVERGED. RESIDUAL TOT: 3.15276D-12
 ROOT:  6 RESIDUAL TOT: 1.68984D-11
 ROOT:  6 HAS CONVERGED. RESIDUAL TOT: 1.68984D-11
 ROOT:  7 RESIDUAL TOT: 5.93635D-11
 ROOT:  7 HAS CONVERGED. RESIDUAL TOT: 5.93635D-11
 ROOT:  8 RESIDUAL TOT: 4.97581D-11
 ROOT:  8 HAS CONVERGED. RESIDUAL TOT: 4.97581D-11
     14       1         0.00     0.59E-10

 Lowest eigenvalues in this iteration: 

               Column   1
       1      -0.06002367
       2       0.04918762
       3       0.28439575
       4       0.29982306
       5       0.36065227
       6       0.38487397
       7       0.40677812
       8       0.40858931
    ==== End of matrix output ====
 Dimension of the reduced space:    88
 >>> TIME USED IN THIS MICRO ITERATION        0.04

    --------------------------------------
    converged in 14 iterations
    threshold:    0.10E-09


         Routine          Time (min)
         ---------------------------
         CC_TRDRV            0.01
         CCRED               0.00
         CCNEX               0.00
         ---------------------------
         Total time          0.01


 >>>> Total CPU  time used in CCEQ_SOLV:   0.53 seconds
 >>>> Total wall time used in CCEQ_SOLV:   0.55 seconds


 >>>>>>>>>>>>>>>>>>>>> <<<<<<<<<<<<<<<<<<<<<



  Final eigenvalues :
 =====================
 (convergence threshold:  1.00D-10)

    1  -0.0600236739
    2   0.0491876226
    3   0.2843957524
    4   0.2998230553
    5   0.3606522654
    6   0.3848739653
    7   0.4067781237
    8   0.4085893120


 SYMMETRY CLASS NR.    1
 MULTIPLICITY          1


 CC2-R12/A  left excitation energies:
 ====================================
 (conversion factor used: 1 au = 27.2113957 eV)

 Excitation no.       Hartree               eV 
 --------------       -------               --
         1           -0.0600236739       -1.6333272532
         2            0.0491876226        1.3384632971
         3            0.2843957524        7.7388020863
         4            0.2998230553        8.1586003527
         5            0.3606522654        9.8138473603
         6            0.3848739653       10.4729533433
         7            0.4067781237       11.0689958130
         8            0.4085893120       11.1182807519


 Total excited state energies for states of symmetry/spin    1    1
 Excitation no.       Energy (Hartree) 
 ------------------------------------- 
@@    1    1           -25.066728810690979
@@    1    2           -24.957517514148403
@@    1    3           -24.722309384354020
@@    1    4           -24.706882081457792
@@    1    5           -24.646052871342942
@@    1    6           -24.621831171412822
@@    1    7           -24.599927013024612
@@    1    8           -24.598115824790337


 Analysis of the Coupled Cluster Excitation Vector Number :  1
 -------------------------------------------------------------

          Excitation Energy :                            -1.6333 eV


          CC_PRAM:Overall Contribution of the Different Components
          --------------------------------------------------------



          Single Excitation Contribution :              98.3888 %

          Double Excitation Contribution :               1.6112 %

          ||T1||/||T2||                  :               7.8144

          Norm of Total Amplitude Vector :               0.9986


 +=============================================================================+
 | symmetry|  orbital index  |   Excitation Numbers             |   Amplitude  |
 |  Index  |   a   b   i   j |      NAI      NBJ |     NAIBJ    |              |
 +=============================================================================+
 | 1   1   |   1       2     |        9          |              |    0.977392  |
 +-----------------------------------------------------------------------------+
 | 1 1 1 1 |   1   1   2   1 |        9        1 |           37 |   -0.028535  |
 | 1 1 1 1 |   3   1   2   1 |       11        1 |           56 |   -0.072246  |
 | 1 1 1 1 |   4   1   2   1 |       12        1 |           67 |    0.024624  |
 | 1 1 1 1 |   8   1   2   1 |       16        1 |          121 |   -0.046174  |
 | 1 1 1 1 |   2   2   2   1 |       10        2 |           47 |    0.025714  |
 | 1 1 1 1 |   5   4   2   1 |       13        4 |           82 |   -0.034659  |
 | 1 1 1 1 |   6   4   2   2 |       14       12 |          103 |   -0.027097  |
 | 1 1 1 1 |   6   5   2   2 |       14       13 |          104 |    0.045396  |
 +=============================================================================+


          Norm of Printed Amplitude Vector :             0.9842

          Printed all single excitations greater than 0.165319

          Printed all double excitations greater than 0.021156


 Analysis of the Coupled Cluster Excitation Vector Number :  2
 -------------------------------------------------------------

          Excitation Energy :                             1.3385 eV


          CC_PRAM:Overall Contribution of the Different Components
          --------------------------------------------------------



          Single Excitation Contribution :              99.2748 %

          Double Excitation Contribution :               0.7252 %

          ||T1||/||T2||                  :              11.7000

          Norm of Total Amplitude Vector :               1.0000


 +=============================================================================+
 | symmetry|  orbital index  |   Excitation Numbers             |   Amplitude  |
 |  Index  |   a   b   i   j |      NAI      NBJ |     NAIBJ    |              |
 +=============================================================================+
 | 1   1   |   2       2     |       10          |              |    0.977786  |
 | 1   1   |   7       2     |       15          |              |   -0.191526  |
 +-----------------------------------------------------------------------------+
 | 1 1 1 1 |   7   3   2   1 |       15        3 |          108 |   -0.023712  |
 | 1 1 1 1 |   7   4   2   1 |       15        4 |          109 |   -0.046532  |
 | 1 1 1 1 |   7   8   2   1 |       15        8 |          113 |   -0.018771  |
 | 1 1 1 1 |   6   2   2   2 |       14       10 |          101 |    0.020635  |
 | 1 1 1 1 |   7   6   2   2 |       15       14 |          119 |    0.053217  |
 +=============================================================================+


          Norm of Printed Amplitude Vector :             0.9995

          Printed all single excitations greater than 0.166061

          Printed all double excitations greater than 0.014193


 Analysis of the Coupled Cluster Excitation Vector Number :  3
 -------------------------------------------------------------

          Excitation Energy :                             7.7388 eV


          CC_PRAM:Overall Contribution of the Different Components
          --------------------------------------------------------



          Single Excitation Contribution :              57.2940 %

          Double Excitation Contribution :              42.7060 %

          ||T1||/||T2||                  :               1.1583

          Norm of Total Amplitude Vector :               0.9979


 +=============================================================================+
 | symmetry|  orbital index  |   Excitation Numbers             |   Amplitude  |
 |  Index  |   a   b   i   j |      NAI      NBJ |     NAIBJ    |              |
 +=============================================================================+
 | 1   1   |   1       1     |        1          |              |    0.746583  |
 +-----------------------------------------------------------------------------+
 | 1 1 1 1 |   1   1   1   1 |        1        1 |            1 |    0.195532  |
 | 1 1 1 1 |   1   1   2   2 |        9        9 |           45 |   -0.612255  |
 +=============================================================================+


          Norm of Printed Amplitude Vector :             0.9851

          Printed all single excitations greater than 0.126155

          Printed all double excitations greater than 0.108916


 Analysis of the Coupled Cluster Excitation Vector Number :  4
 -------------------------------------------------------------

          Excitation Energy :                             8.1586 eV


          CC_PRAM:Overall Contribution of the Different Components
          --------------------------------------------------------



          Single Excitation Contribution :              95.6759 %

          Double Excitation Contribution :               4.3241 %

          ||T1||/||T2||                  :               4.7038

          Norm of Total Amplitude Vector :               0.9975


 +=============================================================================+
 | symmetry|  orbital index  |   Excitation Numbers             |   Amplitude  |
 |  Index  |   a   b   i   j |      NAI      NBJ |     NAIBJ    |              |
 +=============================================================================+
 | 1   1   |   3       2     |       11          |              |    0.955588  |
 +-----------------------------------------------------------------------------+
 | 1 1 1 1 |   1   1   2   1 |        9        1 |           37 |   -0.088216  |
 | 1 1 1 1 |   3   1   2   1 |       11        1 |           56 |   -0.068752  |
 | 1 1 1 1 |   5   1   2   1 |       13        1 |           79 |   -0.055090  |
 | 1 1 1 1 |   1   3   2   1 |        9        3 |           39 |   -0.059361  |
 | 1 1 1 1 |   3   3   2   1 |       11        3 |           58 |   -0.072537  |
 | 1 1 1 1 |   3   4   2   1 |       11        4 |           59 |   -0.061042  |
 | 1 1 1 1 |   3   8   2   1 |       11        8 |           63 |   -0.053027  |
 | 1 1 1 1 |   6   3   2   2 |       14       11 |          102 |    0.068263  |
 +=============================================================================+


          Norm of Printed Amplitude Vector :             0.9740

          Printed all single excitations greater than 0.163023

          Printed all double excitations greater than 0.034658


 Analysis of the Coupled Cluster Excitation Vector Number :  5
 -------------------------------------------------------------

          Excitation Energy :                             9.8138 eV


          CC_PRAM:Overall Contribution of the Different Components
          --------------------------------------------------------



          Single Excitation Contribution :              95.1798 %

          Double Excitation Contribution :               4.8202 %

          ||T1||/||T2||                  :               4.4436

          Norm of Total Amplitude Vector :               0.9993


 +=============================================================================+
 | symmetry|  orbital index  |   Excitation Numbers             |   Amplitude  |
 |  Index  |   a   b   i   j |      NAI      NBJ |     NAIBJ    |              |
 +=============================================================================+
 | 1   1   |   4       2     |       12          |              |    0.929407  |
 | 1   1   |   5       2     |       13          |              |   -0.265517  |
 +-----------------------------------------------------------------------------+
 | 1 1 1 1 |   1   1   2   1 |        9        1 |           37 |    0.057070  |
 | 1 1 1 1 |   5   1   2   1 |       13        1 |           79 |   -0.076896  |
 | 1 1 1 1 |   7   2   2   1 |       15        2 |          107 |   -0.063485  |
 | 1 1 1 1 |   1   5   2   1 |        9        5 |           41 |    0.038214  |
 | 1 1 1 1 |   6   1   2   2 |       14        9 |          100 |   -0.145184  |
 | 1 1 1 1 |   6   3   2   2 |       14       11 |          102 |   -0.043915  |
 | 1 1 1 1 |   6   4   2   2 |       14       12 |          103 |    0.067529  |
 +=============================================================================+


          Norm of Printed Amplitude Vector :             0.9882

          Printed all single excitations greater than 0.162600

          Printed all double excitations greater than 0.036592


 Analysis of the Coupled Cluster Excitation Vector Number :  6
 -------------------------------------------------------------

          Excitation Energy :                            10.4730 eV


          CC_PRAM:Overall Contribution of the Different Components
          --------------------------------------------------------



          Single Excitation Contribution :              14.1976 %

          Double Excitation Contribution :              85.8024 %

          ||T1||/||T2||                  :               0.4068

          Norm of Total Amplitude Vector :               0.9992


 +=============================================================================+
 | symmetry|  orbital index  |   Excitation Numbers             |   Amplitude  |
 |  Index  |   a   b   i   j |      NAI      NBJ |     NAIBJ    |              |
 +=============================================================================+
 | 1   1   |   1       1     |        1          |              |    0.369796  |
 +-----------------------------------------------------------------------------+
 | 1 1 1 1 |   1   1   2   2 |        9        9 |           45 |    0.916717  |
 +=============================================================================+


          Norm of Printed Amplitude Vector :             0.9885

          Printed all single excitations greater than 0.062800

          Printed all double excitations greater than 0.154383


 Analysis of the Coupled Cluster Excitation Vector Number :  7
 -------------------------------------------------------------

          Excitation Energy :                            11.0690 eV


          CC_PRAM:Overall Contribution of the Different Components
          --------------------------------------------------------



          Single Excitation Contribution :              95.6049 %

          Double Excitation Contribution :               4.3951 %

          ||T1||/||T2||                  :               4.6640

          Norm of Total Amplitude Vector :               0.9988


 +=============================================================================+
 | symmetry|  orbital index  |   Excitation Numbers             |   Amplitude  |
 |  Index  |   a   b   i   j |      NAI      NBJ |     NAIBJ    |              |
 +=============================================================================+
 | 1   1   |   4       2     |       12          |              |    0.267742  |
 | 1   1   |   5       2     |       13          |              |    0.917260  |
 +-----------------------------------------------------------------------------+
 | 1 1 1 1 |   3   1   2   1 |       11        1 |           56 |   -0.054068  |
 | 1 1 1 1 |   4   1   2   1 |       12        1 |           67 |   -0.064492  |
 | 1 1 1 1 |   8   1   2   1 |       16        1 |          121 |    0.041745  |
 | 1 1 1 1 |   1   4   2   1 |        9        4 |           40 |   -0.050081  |
 | 1 1 1 1 |   1   5   2   1 |        9        5 |           41 |   -0.065928  |
 | 1 1 1 1 |   6   1   2   2 |       14        9 |          100 |    0.121075  |
 | 1 1 1 1 |   6   3   2   2 |       14       11 |          102 |   -0.037871  |
 +=============================================================================+


          Norm of Printed Amplitude Vector :             0.9720

          Printed all single excitations greater than 0.162963

          Printed all double excitations greater than 0.034941


 Analysis of the Coupled Cluster Excitation Vector Number :  8
 -------------------------------------------------------------

          Excitation Energy :                            11.1183 eV


          CC_PRAM:Overall Contribution of the Different Components
          --------------------------------------------------------



          Single Excitation Contribution :              82.9645 %

          Double Excitation Contribution :              17.0355 %

          ||T1||/||T2||                  :               2.2068

          Norm of Total Amplitude Vector :               1.0000


 +=============================================================================+
 | symmetry|  orbital index  |   Excitation Numbers             |   Amplitude  |
 |  Index  |   a   b   i   j |      NAI      NBJ |     NAIBJ    |              |
 +=============================================================================+
 | 1   1   |   2       1     |        2          |              |    0.900407  |
 +-----------------------------------------------------------------------------+
 | 1 1 1 1 |   2   1   1   1 |        2        1 |            2 |    0.135862  |
 | 1 1 1 1 |   6   7   2   1 |       14        7 |           98 |    0.080321  |
 | 1 1 1 1 |   2   1   2   2 |       10        9 |           54 |   -0.364036  |
 +=============================================================================+


          Norm of Printed Amplitude Vector :             0.9840

          Printed all single excitations greater than 0.151808

          Printed all double excitations greater than 0.068790

 --------------------------
 Symmetry class Nr.:     1
 Multiplicity      :     3
 --------------------------

 Length of Excitation vectors in this class is:       298
 No Excitation Energies calculated in this symmetry class

 *******************************************************************

 Ground state energy is target 

 Ecorr =                    -25.00670513675465755909

 *******************************************************************
  

 *******************************************************************************
 *******************************************************************************
 *                                                                             *
 *                                                                             *
 *                   SUMMARY OF COUPLED CLUSTER CALCULATION                    *
 *                                                                             *
 *                                                                             *
 *******************************************************************************
 *******************************************************************************

                                                                                
                                                                                
            Total SCF   energy:                   -24.8662249632                
            Total MP2-R12/A energy:               -25.0063026940                
            Total CC2-R12/A energy:               -25.0067051368                
                                                                                
                                                                                
 +=============================================================================+
 |  sym. | Exci.  |        CC2-R12/A  Excitation energies            | ||T1||  |
 |(spin, |        +------------------------------------------------------------+
 | spat) |        |     Hartree    |       eV.      |     cm-1       |    %    |
 +=============================================================================+
 | ^1A   |    1   |    -0.0600237  |      -1.63333  |    -13173.674  |  98.39  |
 | ^1A   |    2   |     0.0491876  |       1.33846  |     10795.435  |  99.27  |
 | ^1A   |    3   |     0.2843958  |       7.73880  |     62417.652  |  57.29  |
 | ^1A   |    4   |     0.2998231  |       8.15860  |     65803.554  |  95.68  |
 | ^1A   |    5   |     0.3606523  |       9.81385  |     79154.022  |  95.18  |
 | ^1A   |    6   |     0.3848740  |      10.47295  |     84470.071  |  14.20  |
 | ^1A   |    7   |     0.4067781  |      11.06900  |     89277.478  |  95.60  |
 | ^1A   |    8   |     0.4085893  |      11.11828  |     89674.988  |  82.96  |
 +=============================================================================+
                                                                                
                                                                                
     Total energies in Hartree:                                                 
             1 ^1A        -25.0667288107                                        
             2 ^1A        -24.9575175141                                        
             3 ^1A        -24.7223093844                                        
             4 ^1A        -24.7068820815                                        
             5 ^1A        -24.6460528713                                        
             6 ^1A        -24.6218311714                                        
             7 ^1A        -24.5999270130                                        
             8 ^1A        -24.5981158248                                        

  1 a.u. =        27.21138 eV.  
  1 a.u. =    219474.62934 cm-1.
  

 *******************************************************************************
 *******************************************************************************
 *                                                                             *
 *                                                                             *
 *                      END OF COUPLED CLUSTER CALCULATION                     *
 *                                                                             *
 *                                                                             *
 *******************************************************************************
 *******************************************************************************


 >>>> CPU and wall time for CC :       1.906       2.426

 
     Date and time (Linux)  : Sun Sep  8 21:02:28 2013
     Host name              : lpqlx131.ups-tlse.fr                    


                      .-------------------------------------.
                      | End of Coupled Cluster Section (CC) |
                      `-------------------------------------'

 >>>> Total CPU  time used in DALTON:   1.96 seconds
 >>>> Total wall time used in DALTON:   2.48 seconds

 
     Date and time (Linux)  : Sun Sep  8 21:02:28 2013
     Host name              : lpqlx131.ups-tlse.fr                    
