

     ************************************************************************
     *************** Dalton - An Electronic Structure Program ***************
     ************************************************************************

    This is output from DALTON (Release Dalton2013 patch 0)
   ----------------------------------------------------------------------------
    NOTE:
     
    Dalton is an experimental code for the evaluation of molecular
    properties using (MC)SCF, DFT, CI, and CC wave functions.
    The authors accept no responsibility for the performance of
    the code or for the correctness of the results.
     
    The code (in whole or part) is provided under a licence and
    is not to be reproduced for further distribution without
    the written permission of the authors or their representatives.
     
    See the home page "http://daltonprogram.org" for further information.
     
    If results obtained with this code are published,
    the appropriate citations would be both of:
     
       K. Aidas, C. Angeli, K. L. Bak, V. Bakken, R. Bast,
       L. Boman, O. Christiansen, R. Cimiraglia, S. Coriani,
       P. Dahle, E. K. Dalskov, U. Ekstroem, T. Enevoldsen,
       J. J. Eriksen, P. Ettenhuber, B. Fernandez, L. Ferrighi,
       H. Fliegl, L. Frediani, K. Hald, A. Halkier, C. Haettig,
       H. Heiberg, T. Helgaker, A. C. Hennum, H. Hettema,
       E. Hjertenaes, S. Hoest, I.-M. Hoeyvik, M. F. Iozzi,
       B. Jansik, H. J. Aa. Jensen, D. Jonsson, P. Joergensen,
       J. Kauczor, S. Kirpekar, T. Kjaergaard, W. Klopper,
       S. Knecht, R. Kobayashi, H. Koch, J. Kongsted, A. Krapp,
       K. Kristensen, A. Ligabue, O. B. Lutnaes, J. I. Melo,
       K. V. Mikkelsen, R. H. Myhre, C. Neiss, C. B. Nielsen,
       P. Norman, J. Olsen, J. M. H. Olsen, A. Osted,
       M. J. Packer, F. Pawlowski, T. B. Pedersen, P. F. Provasi,
       S. Reine, Z. Rinkevicius, T. A. Ruden, K. Ruud, V. Rybkin,
       P. Salek, C. C. M. Samson, A. Sanchez de Meras, T. Saue,
       S. P. A. Sauer, B. Schimmelpfennig, K. Sneskov,
       A. H. Steindal, K. O. Sylvester-Hvid, P. R. Taylor,
       A. M. Teale, E. I. Tellgren, D. P. Tew, A. J. Thorvaldsen,
       L. Thoegersen, O. Vahtras, M. A. Watson, D. J. D. Wilson,
       M. Ziolkowski and H. Agren,
       "The Dalton quantum chemistry program system",
       WIREs Comput. Mol. Sci. 2013. (doi: 10.1002/wcms.1172)
    
    and
    
       Dalton, a Molecular Electronic Structure Program,
       Release DALTON2013.0 (2013), see http://daltonprogram.org
   ----------------------------------------------------------------------------

    Authors in alphabetical order (major contribution(s) in parenthesis):

  Kestutis Aidas,           Vilnius University,           Lithuania   (QM/MM)
  Celestino Angeli,         University of Ferrara,        Italy       (NEVPT2)
  Keld L. Bak,              UNI-C,                        Denmark     (AOSOPPA, non-adiabatic coupling, magnetic properties)
  Vebjoern Bakken,          University of Oslo,           Norway      (DALTON; geometry optimizer, symmetry detection)
  Radovan Bast,             KTH Stockholm                 Sweden      (DALTON installation and execution frameworks)
  Linus Boman,              NTNU,                         Norway      (Cholesky decomposition and subsystems)
  Ove Christiansen,         Aarhus University,            Denmark     (CC module)
  Renzo Cimiraglia,         University of Ferrara,        Italy       (NEVPT2)
  Sonia Coriani,            University of Trieste,        Italy       (CC module, MCD in RESPONS)
  Paal Dahle,               University of Oslo,           Norway      (Parallelization)
  Erik K. Dalskov,          UNI-C,                        Denmark     (SOPPA)
  Thomas Enevoldsen,        Univ. of Southern Denmark,    Denmark     (SOPPA)
  Janus J. Eriksen,         Aarhus University,            Denmark     (PE-MP2/SOPPA, TDA)
  Berta Fernandez,          U. of Santiago de Compostela, Spain       (doublet spin, ESR in RESPONS)
  Lara Ferrighi,            Aarhus University,            Denmark     (PCM Cubic response)
  Heike Fliegl,             University of Oslo,           Norway      (CCSD(R12))
  Luca Frediani,            UiT The Arctic U. of Norway,  Norway      (PCM)
  Bin Gao,                  UiT The Arctic U. of Norway,  Norway      (Gen1Int library)
  Christof Haettig,         Ruhr-University Bochum,       Germany     (CC module)
  Kasper Hald,              Aarhus University,            Denmark     (CC module)
  Asger Halkier,            Aarhus University,            Denmark     (CC module)
  Hanne Heiberg,            University of Oslo,           Norway      (geometry analysis, selected one-electron integrals)
  Trygve Helgaker,          University of Oslo,           Norway      (DALTON; ABACUS, ERI, DFT modules, London, and much more)
  Alf Christian Hennum,     University of Oslo,           Norway      (Parity violation)
  Hinne Hettema,            University of Auckland,       New Zealand (quadratic response in RESPONS; SIRIUS supersymmetry)
  Eirik Hjertenaes,         NTNU,                         Norway      (Cholesky decomposition)
  Maria Francesca Iozzi,    University of Oslo,           Norway      (RPA)
  Brano Jansik              Technical Univ. of Ostrava    Czech Rep.  (DFT cubic response)
  Hans Joergen Aa. Jensen,  Univ. of Southern Denmark,    Denmark     (DALTON; SIRIUS, RESPONS, ABACUS modules, London, and much more)
  Dan Jonsson,              UiT The Arctic U. of Norway,  Norway      (cubic response in RESPONS module)
  Poul Joergensen,          Aarhus University,            Denmark     (RESPONS, ABACUS, and CC modules)
  Joanna Kauczor,           Linkoeping University,        Sweden      (Complex polarization propagator (CPP) module)
  Sheela Kirpekar,          Univ. of Southern Denmark,    Denmark     (Mass-velocity & Darwin integrals)
  Wim Klopper,              KIT Karlsruhe,                Germany     (R12 code in CC, SIRIUS, and ABACUS modules)
  Stefan Knecht,            ETH Zurich,                   Switzerland (Parallel CI and MCSCF)
  Rika Kobayashi,           Australian National Univ.,    Australia   (DIIS in CC, London in MCSCF)
  Henrik Koch,              NTNU,                         Norway      (CC module, Cholesky decomposition)
  Jacob Kongsted,           Univ. of Southern Denmark,    Denmark     (Polarizable embedding, QM/MM)
  Andrea Ligabue,           University of Modena,         Italy       (CTOCD, AOSOPPA)
  Ola B. Lutnaes,           University of Oslo,           Norway      (DFT Hessian)
  Juan I. Melo,             University of Buenos Aires,   Argentina   (LRESC, Relativistic Effects on NMR Shieldings)
  Kurt V. Mikkelsen,        University of Copenhagen,     Denmark     (MC-SCRF and QM/MM)
  Rolf H. Myhre,            NTNU,                         Norway      (Cholesky, subsystems and ECC2)
  Christian Neiss,          Univ. Erlangen-Nuernberg,     Germany     (CCSD(R12))
  Christian B. Nielsen,     University of Copenhagen,     Denmark     (QM/MM)
  Patrick Norman,           Linkoeping University,        Sweden      (Cubic response and complex response in RESPONS)
  Jeppe Olsen,              Aarhus University,            Denmark     (SIRIUS CI/density modules)
  Jogvan Magnus H. Olsen,   Univ. of Southern Denmark,    Denmark     (Polarizable embedding, PE library, QM/MM)
  Anders Osted,             Copenhagen University,        Denmark     (QM/MM)
  Martin J. Packer,         University of Sheffield,      UK          (SOPPA)
  Filip Pawlowski,          Kazimierz Wielki University   Poland      (CC3)
  Thomas B. Pedersen,       University of Oslo,           Norway      (Cholesky decomposition)
  Patricio F. Provasi,      University of Northeastern,   Argentina   (Analysis of coupling constants in localized orbitals)
  Zilvinas Rinkevicius,     KTH Stockholm,                Sweden      (open-shell DFT, ESR)
  Elias Rudberg,            KTH Stockholm,                Sweden      (DFT grid and basis info)
  Torgeir A. Ruden,         University of Oslo,           Norway      (Numerical derivatives in ABACUS)
  Kenneth Ruud,             UiT The Arctic U. of Norway,  Norway      (DALTON; ABACUS magnetic properties and  much more)
  Pawel Salek,              KTH Stockholm,                Sweden      (DALTON; DFT code)
  Claire C. M. Samson       University of Karlsruhe       Germany     (Boys localization, r12 integrals in ERI)
  Alfredo Sanchez de Meras, University of Valencia,       Spain       (CC module, Cholesky decomposition)
  Trond Saue,               Paul Sabatier University,     France      (direct Fock matrix construction)
  Stephan P. A. Sauer,      University of Copenhagen,     Denmark     (SOPPA(CCSD), SOPPA prop., AOSOPPA, vibrational g-factors)
  Bernd Schimmelpfennig,    Forschungszentrum Karlsruhe,  Germany     (AMFI module)
  Kristian Sneskov,         Aarhus University,            Denmark     (QM/MM, PE-CC)
  Arnfinn H. Steindal,      UiT The Arctic U. of Norway,  Norway      (parallel QM/MM)
  K. O. Sylvester-Hvid,     University of Copenhagen,     Denmark     (MC-SCRF)
  Peter R. Taylor,          VLSCI/Univ. of Melbourne,     Australia   (Symmetry handling ABACUS, integral transformation)
  Andrew M. Teale,          University of Nottingham,     England     (DFT-AC, DFT-D)
  David P. Tew,             University of Bristol,        England     (CCSD(R12))
  Olav Vahtras,             KTH Stockholm,                Sweden      (triplet response, spin-orbit, ESR, TDDFT, open-shell DFT)
  David J. Wilson,          La Trobe University,          Australia   (DFT Hessian and DFT magnetizabilities)
  Hans Agren,               KTH Stockholm,                Sweden      (SIRIUS module, RESPONS, MC-SCRF solvation model)
 --------------------------------------------------------------------------------

     Date and time (Linux)  : Mon Oct 21 14:57:33 2013
     Host name              : c10-6.local                             

 * Work memory size             :    64000000 =  488.28 megabytes.

 * Directories for basis set searches:
   1) /home/arnfinn/release_dalton/DALTON/test/2013-10-21T14_57-testjob-pid-50319
   2) /home/arnfinn/release_dalton/build-RB-intel12.1.2-release/basis


Compilation information
-----------------------

 Who compiled             | arnfinn
 Host                     | stallo-2.local
 System                   | Linux-2.6.32-358.6.2.el6.x86_64
 CMake generator          | Unix Makefiles
 Processor                | x86_64
 64-bit integers          | OFF
 MPI                      | OFF
 Fortran compiler         | /global/apps/intel/composer_xe_2011_sp1.8.273/bin/
                          | intel64/ifort
 C compiler               | /global/apps/intel/composer_xe_2011_sp1.8.273/bin/
                          | intel64/icc
 C compiler version       | icc (ICC) 13.0.1 20121010
 C++ compiler             | /global/apps/intel/composer_xe_2011_sp1.8.273/bin/
                          | intel64/icpc
 C++ compiler version     | icpc (ICC) 13.0.1 20121010
 BLAS                     | -Wl,--start-group;/global/apps/intel/2013.1/mkl/li
                          | b/intel64/libmkl_core.so;/global/apps/intel/2013.1
                          | /mkl/lib/intel64/libmkl_intel_lp64.so;/global/apps
                          | /intel/2013.1/mkl/lib/intel64/libmkl_sequential.so
                          | ;/usr/lib64/libpthread.so;/usr/lib64/libm.so;-open
                          | mp;-Wl,--end-group
 LAPACK                   | -Wl,--start-group;/global/apps/intel/2013.1/mkl/li
                          | b/intel64/libmkl_lapack95_lp64.a;/global/apps/inte
                          | l/2013.1/mkl/lib/intel64/libmkl_intel_lp64.so;-ope
                          | nmp;-Wl,--end-group
 Static linking           | OFF
 Last Git revision        | 9e5bb7f558e1ee66d0614a37cb4fb8c71086ba4e
 Configuration time       | 2013-10-15 12:56:50.249803


   Content of the .dal input file
 ----------------------------------

**DALTON INPUT                                    
.NMDDRV                                           
**NMDDRV                                          
.DORDR                                            
  2  0                                            
.SYMMETRY                                         
  C2v                                             
.NORMAL                                           
**WAVE FUNCTIONS                                  
.HF                                               
*SCF INP                                          
.THRESH                                           
 1.0D-12                                          
**END OF DALTON INPUT                             


   Content of the .mol file
 ----------------------------

BASIS                                                                          
cc-pVDZ                                                                        
H2O                                                                            
                                                                               
    2    0                                                                     
        8.    1                                                                
O      0.0000000000            0.0000000000           -0.7289126837            
        1.    2                                                                
H      0.0000000000            1.4150113018            0.3644563419            
H      0.0000000000           -1.4150113018            0.3644563419            


       *******************************************************************
       *********** Output from DALTON general input processing ***********
       *******************************************************************

 --------------------------------------------------------------------------------
   Overall default print level:    0
   Print level for DALTON.STAT:    1

    Geometry optimization
      Starting at iteration:    0
      Maximum number of iterations:   20
    "Old" integral transformation used (limited to max 255 basis functions)
    Numerical derivatives will be calculated
 --------------------------------------------------------------------------------


                  .----------------------------------------------.
                  | Commencing geometry optimization using .WALK |
                  `----------------------------------------------'



     @@>>>>>>>>>> Geometry walk iteration number:    0 <<<<<<<<<<




   ****************************************************************************
   *************** Output of molecule and basis set information ***************
   ****************************************************************************


    The two title cards from your ".mol" input:
    ------------------------------------------------------------------------
 1: H2O                                                                     
 2:                                                                         
    ------------------------------------------------------------------------

  Atomic type no.    1
  --------------------
  Nuclear charge:   8.00000
  Number of symmetry independent centers:    1
  Number of basis sets to read;    2
  Basis set file used for this atomic type with Z =   8 :
     "/home/arnfinn/release_dalton/build-RB-intel12.1.2-release/basis/cc-pVDZ"

  Atomic type no.    2
  --------------------
  Nuclear charge:   1.00000
  Number of symmetry independent centers:    2
  Number of basis sets to read;    2
  Basis set file used for this atomic type with Z =   1 :
     "/home/arnfinn/release_dalton/build-RB-intel12.1.2-release/basis/cc-pVDZ"


                         SYMGRP: Point group information
                         -------------------------------

Point group: C1 


                                 Isotopic Masses
                                 ---------------

                           O          15.994915
                           H           1.007825
                           H           1.007825

                       Total mass:    18.010565 amu
                       Natural abundance:  99.730 %

 Center-of-mass coordinates (a.u.):    0.000000    0.000000   -0.606548


  Atoms and basis sets
  --------------------

  Number of atom types :    2
  Total number of atoms:    3

  Basis set used is "cc-pVDZ" from the basis set library.

  label    atoms   charge   prim   cont     basis
  ----------------------------------------------------------------------
  O           1    8.0000    26    14      [9s4p1d|3s2p1d]                                    
  H           2    1.0000     7     5      [4s1p|2s1p]                                        
  ----------------------------------------------------------------------
  total:      3   10.0000    40    24
  ----------------------------------------------------------------------
  Spherical harmonic basis used.

  Threshold for neglecting AO integrals:  1.00D-12


  Cartesian Coordinates (a.u.)
  ----------------------------

  Total number of coordinates:    9
  O       :     1  x   0.0000000000    2  y   0.0000000000    3  z  -0.7289126837
  H       :     4  x   0.0000000000    5  y   1.4150113018    6  z   0.3644563419
  H       :     7  x   0.0000000000    8  y  -1.4150113018    9  z   0.3644563419


   Interatomic separations (in Angstrom):
   --------------------------------------

            O           H           H     
            ------      ------      ------
 O     :    0.000000
 H     :    0.946283    0.000000
 H     :    0.946283    1.497583    0.000000


  Max    interatomic separation is    1.4976 Angstrom (    2.8300 Bohr)
  between atoms    3 and    2, "H     " and "H     ".

  Min HX interatomic separation is    0.9463 Angstrom (    1.7882 Bohr)


  Bond distances (Angstrom):
  --------------------------

                  atom 1     atom 2       distance
                  ------     ------       --------
  bond distance:  H          O            0.946283
  bond distance:  H          O            0.946283


  Bond angles (degrees):
  ----------------------

                  atom 1     atom 2     atom 3         angle
                  ------     ------     ------         -----
  bond angle:     H          O          H            104.614




 Principal moments of inertia (u*A**2) and principal axes
 --------------------------------------------------------

   IA       0.599247          0.000000    1.000000    0.000000
   IB       1.130153          0.000000    0.000000    1.000000
   IC       1.729399          1.000000    0.000000    0.000000


 Rotational constants
 --------------------

 The molecule is planar.

               A                   B                   C

         843357.4310         447177.5488         292228.0408 MHz
           28.131376           14.916237            9.747678 cm-1


@  Nuclear repulsion energy :    9.300824137369 Hartree


                     .---------------------------------------.
                     | Starting in Integral Section (HERMIT) |
                     `---------------------------------------'



    *************************************************************************
    ****************** Output from HERMIT input processing ******************
    *************************************************************************



     ************************************************************************
     ************************** Output from HERINT **************************
     ************************************************************************


 Threshold for neglecting two-electron integrals:  1.00D-12
 Number of two-electron integrals written:       21643 ( 47.9% )
 Megabytes written:                              0.254

 >>>> Total CPU  time used in HERMIT:   0.03 seconds
 >>>> Total wall time used in HERMIT:   0.04 seconds


                        .----------------------------------.
                        | End of Integral Section (HERMIT) |
                        `----------------------------------'



                   .--------------------------------------------.
                   | Starting in Wave Function Section (SIRIUS) |
                   `--------------------------------------------'


 *** Output from Huckel module :

     Using EWMO model:          T
     Using EHT  model:          F
     Number of Huckel orbitals each symmetry:    7

 EWMO - Energy Weighted Maximum Overlap - is a Huckel type method,
        which normally is better than Extended Huckel Theory.
 Reference: Linderberg and Ohrn, Propagators in Quantum Chemistry (Wiley, 1973)

 Huckel EWMO eigenvalues for symmetry :  1
          -20.685149      -1.619060      -0.778634      -0.687641      -0.616200
           -0.228604      -0.164612

 **********************************************************************
 *SIRIUS* a direct, restricted step, second order MCSCF program       *
 **********************************************************************

 
     Date and time (Linux)  : Mon Oct 21 14:57:33 2013
     Host name              : c10-6.local                             

 Title lines from ".mol" input file:
     H2O                                                                     
                                                                             

 Print level on unit LUPRI =   2 is   0
 Print level on unit LUW4  =   2 is   5

@    Restricted, closed shell Hartree-Fock calculation.

 Initial molecular orbitals are obtained according to
 ".MOSTART EWMO  " input option

     Wave function specification
     ============================
@    For the wave function of type :      >>> HF <<<
@    Number of closed shell electrons          10
@    Number of electrons in active shells       0
@    Total charge of the molecule               0

@    Spin multiplicity and 2 M_S                1         0
     Total number of symmetries                 1
@    Reference state symmetry                   1

     Orbital specifications
     ======================
     Abelian symmetry species          All |    1
                                       --- |  ---
@    Occupied SCF orbitals               5 |    5
     Secondary orbitals                 19 |   19
     Total number of orbitals           24 |   24
     Number of basis functions          24 |   24

     Optimization information
     ========================
@    Number of configurations                 1
@    Number of orbital rotations             95
     ------------------------------------------
@    Total number of variables               96

     Maximum number of Fock   iterations      0
     Maximum number of DIIS   iterations     60
     Maximum number of QC-SCF iterations     60
     Threshold for SCF convergence     1.00D-12


 >>>>> DIIS optimization of Hartree-Fock <<<<<

 C1-DIIS algorithm; max error vectors =    5

 Iter      Total energy        Error norm    Delta(E)  DIIS dim.
 -----------------------------------------------------------------------------
     (Precalculated two-electron integrals are transformed to P-supermatrix elements.
      Threshold for discarding integrals :  1.00D-12 )
@  1    -75.8445809052        1.67156D+00   -7.58D+01    1
      Virial theorem: -V/T =      1.999808
@      MULPOP O      -0.55; H       0.28; H       0.28; 
 -----------------------------------------------------------------------------
@  2    -76.0208616398        3.22311D-01   -1.76D-01    2
      Virial theorem: -V/T =      2.000493
@      MULPOP O      -0.25; H       0.13; H       0.13; 
 -----------------------------------------------------------------------------
@  3    -76.0265200646        6.94135D-02   -5.66D-03    3
      Virial theorem: -V/T =      1.999799
@      MULPOP O      -0.28; H       0.14; H       0.14; 
 -----------------------------------------------------------------------------
@  4    -76.0270319919        1.41756D-02   -5.12D-04    4
      Virial theorem: -V/T =      2.000076
@      MULPOP O      -0.29; H       0.14; H       0.14; 
 -----------------------------------------------------------------------------
@  5    -76.0270498526        6.94558D-03   -1.79D-05    5
      Virial theorem: -V/T =      1.999805
@      MULPOP O      -0.29; H       0.15; H       0.15; 
 -----------------------------------------------------------------------------
@  6    -76.0270531810        1.34174D-03   -3.33D-06    5
      Virial theorem: -V/T =      1.999925
@      MULPOP O      -0.29; H       0.15; H       0.15; 
 -----------------------------------------------------------------------------
@  7    -76.0270534980        3.16171D-04   -3.17D-07    5
      Virial theorem: -V/T =      1.999933
@      MULPOP O      -0.29; H       0.15; H       0.15; 
 -----------------------------------------------------------------------------
@  8    -76.0270535126        3.21925D-05   -1.45D-08    5
      Virial theorem: -V/T =      1.999937
@      MULPOP O      -0.29; H       0.15; H       0.15; 
 -----------------------------------------------------------------------------
@  9    -76.0270535127        7.99292D-06   -1.33D-10    5
      Virial theorem: -V/T =      1.999937
@      MULPOP O      -0.29; H       0.15; H       0.15; 
 -----------------------------------------------------------------------------
@ 10    -76.0270535127        1.14342D-06   -8.58D-12    5
      Virial theorem: -V/T =      1.999937
@      MULPOP O      -0.29; H       0.15; H       0.15; 
 -----------------------------------------------------------------------------
@ 11    -76.0270535127        1.55869D-07   -1.28D-13    5
      Virial theorem: -V/T =      1.999937
@      MULPOP O      -0.29; H       0.15; H       0.15; 
 -----------------------------------------------------------------------------
@ 12    -76.0270535127        6.33081D-08   -1.42D-14    5
      Virial theorem: -V/T =      1.999937
@      MULPOP O      -0.29; H       0.15; H       0.15; 
 -----------------------------------------------------------------------------
@ 13    -76.0270535127        6.40426D-09    5.68D-14    5
      Virial theorem: -V/T =      1.999937
@      MULPOP O      -0.29; H       0.15; H       0.15; 
 -----------------------------------------------------------------------------
@ 14    -76.0270535127        1.46724D-09   -5.68D-14    5
      Virial theorem: -V/T =      1.999937
@      MULPOP O      -0.29; H       0.15; H       0.15; 
 -----------------------------------------------------------------------------
@ 15    -76.0270535127        2.67699D-10   -4.26D-14    5
      Virial theorem: -V/T =      1.999937
@      MULPOP O      -0.29; H       0.15; H       0.15; 
 -----------------------------------------------------------------------------
@ 16    -76.0270535127        3.79956D-11    7.11D-14    5
      Virial theorem: -V/T =      1.999937
@      MULPOP O      -0.29; H       0.15; H       0.15; 
 -----------------------------------------------------------------------------
@ 17    -76.0270535127        8.10917D-12    0.00D+00    5
      Virial theorem: -V/T =      1.999937
@      MULPOP O      -0.29; H       0.15; H       0.15; 
 -----------------------------------------------------------------------------
@ 18    -76.0270535127        2.17671D-12    1.42D-14    5
      Virial theorem: -V/T =      1.999937
@      MULPOP O      -0.29; H       0.15; H       0.15; 
 -----------------------------------------------------------------------------
@ 19    -76.0270535127        7.69924D-13    1.42D-14    5

@ *** DIIS converged in  19 iterations !
@     Converged SCF energy, gradient:    -76.027053512722    7.70D-13
    - total time used in SIRFCK :              0.00 seconds


 *** SCF orbital energy analysis ***

 Only the five lowest virtual orbital energies printed in each symmetry.

 Number of electrons :   10
 Orbital occupations :    5

 Sym       Hartree-Fock orbital energies

  1    -20.54842862    -1.34227091    -0.70542716    -0.56840093    -0.49392413
         0.18741320     0.25781084     0.79767309     0.86438284     1.16263559

    E(LUMO) :     0.18741320 au (symmetry 1)
  - E(HOMO) :    -0.49392413 au (symmetry 1)
  ------------------------------------------
    gap     :     0.68133733 au

 >>> Writing SIRIFC interface file <<<

 >>>> CPU and wall time for SCF :       0.046       0.076


                       .-----------------------------------.
                       | >>> Final results from SIRIUS <<< |
                       `-----------------------------------'


@    Spin multiplicity:           1
@    Spatial symmetry:            1
@    Total charge of molecule:    0

@    Final HF energy:             -76.027053512722                 
@    Nuclear repulsion:             9.300824137369
@    Electronic energy:           -85.327877650091

@    Final gradient norm:           0.000000000001

 
     Date and time (Linux)  : Mon Oct 21 14:57:33 2013
     Host name              : c10-6.local                             

 (Only coefficients >0.0100 are printed.)

 Molecular orbitals for symmetry species  1
 ------------------------------------------

    Orbital         1        2        3        4        5        6        7
   1 O   :1s    -1.0004   0.0087   0.0000   0.0021   0.0000   0.0521   0.0000
   2 O   :1s    -0.0025  -0.8678   0.0000  -0.2971   0.0000  -0.1425   0.0000
   3 O   :1s     0.0014   0.1292  -0.0000  -0.1831   0.0000  -0.9319  -0.0000
   4 O   :2px    0.0000   0.0000  -0.0000   0.0000   0.9191   0.0000   0.0000
   5 O   :2py   -0.0000  -0.0000  -0.7161   0.0000   0.0000  -0.0000  -0.4078
   6 O   :2pz   -0.0026  -0.1178   0.0000   0.7966  -0.0000  -0.2715   0.0000
   7 O   :2px    0.0000   0.0000  -0.0000   0.0000   0.0719   0.0000   0.0000
   8 O   :2py    0.0000  -0.0000   0.1114   0.0000  -0.0000  -0.0000  -0.4836
   9 O   :2pz    0.0017   0.0691  -0.0000  -0.0024  -0.0000  -0.2068  -0.0000
  11 O   :3d1-  -0.0000  -0.0000  -0.0273   0.0000   0.0000  -0.0000  -0.0221
  12 O   :3d0   -0.0000  -0.0012  -0.0000   0.0180  -0.0000  -0.0075   0.0000
  13 O   :3d1+   0.0000   0.0000  -0.0000   0.0000   0.0184   0.0000   0.0000
  14 O   :3d2+   0.0002   0.0031   0.0000  -0.0046  -0.0000   0.0106   0.0000
  15 H   :1s     0.0005  -0.3372  -0.5621   0.3506  -0.0000   0.0966   0.0399
  16 H   :1s    -0.0007   0.1593   0.1942  -0.1378   0.0000   0.7856   1.4452
  17 H   :2px   -0.0000  -0.0000   0.0000  -0.0000   0.0315  -0.0000  -0.0000
  18 H   :2py   -0.0006   0.0381   0.0233  -0.0318   0.0000  -0.0186  -0.0216
  19 H   :2pz   -0.0005   0.0207   0.0328   0.0080   0.0000  -0.0168  -0.0182
  20 H   :1s     0.0005  -0.3372   0.5621   0.3506  -0.0000   0.0966  -0.0399
  21 H   :1s    -0.0007   0.1593  -0.1942  -0.1378   0.0000   0.7856  -1.4452
  22 H   :2px   -0.0000  -0.0000   0.0000  -0.0000   0.0315  -0.0000  -0.0000
  23 H   :2py    0.0006  -0.0381   0.0233   0.0318  -0.0000   0.0186  -0.0216
  24 H   :2pz   -0.0005   0.0207  -0.0328   0.0080   0.0000  -0.0168   0.0182



 >>>> Total CPU  time used in SIRIUS :      0.06 seconds
 >>>> Total wall time used in SIRIUS :      0.10 seconds

 
     Date and time (Linux)  : Mon Oct 21 14:57:33 2013
     Host name              : c10-6.local                             


                     .---------------------------------------.
                     | End of Wave Function Section (SIRIUS) |
                     `---------------------------------------'



                  .----------------------------------------------.
                  | Geometry steps to make numerical derivatives |
                  `----------------------------------------------'


     Order of analytical energy-derivatives available:   2
     This will be the default.


 Changes of defaults for **NMDDR:
 --------------------------------


     Numerical derivatives calculated to order   2
     using analytical   0. derivatives
     Group used for force constants: C2v            
     Step size used:     0.0100

     Normal coordinates will be found.
     Energy and property derivativeswill be with respect to these coordinates.


           ************************************************************
           ****************** Numerical derivatives. ******************
           ************************************************************



 Derivatives calculated:
 -----------------------

           Derivatives calculated to order  2
           Analytical derivatives from energies to   0 order.
           2. numerical derivatives from  0. order analytical derivatives


                       Making symmetry adapted coor in C2v
                       -----------------------------------



                     Group matrix elements for the group C2v
                     ---------------------------------------

 1. irep:
  1.00  1.00  1.00  1.00
 2. irep:
  1.00 -1.00  1.00 -1.00
 3. irep:
  1.00  1.00 -1.00 -1.00
 4. irep:
  1.00 -1.00 -1.00  1.00
                                      


 Characters for the group C2v
 ----------------------------

 1. irep:
  1.0  1.0  1.0  1.0
 2. irep:
  1.0 -1.0  1.0 -1.0
 3. irep:
  1.0  1.0 -1.0 -1.0
 4. irep:
  1.0 -1.0 -1.0  1.0
                                      


                               Symmetry coordinates
                               --------------------

Symmetry   1       1       1       2       2       3       4       4       4
        0.0000  0.0000  0.0000  1.0000  0.0000  0.0000  0.0000  0.0000  0.0000
        0.0000  0.0000  0.0000  0.0000  0.0000  0.0000  1.0000  0.0000  0.0000
        1.0000  0.0000  0.0000  0.0000  0.0000  0.0000  0.0000  0.0000  0.0000
        0.0000  0.0000  0.0000  0.0000  0.7071  0.7071  0.0000  0.0000  0.0000
        0.0000  0.7071  0.0000  0.0000 -0.0000 -0.0000  0.0000  0.7071  0.0000
        0.0000  0.0000  0.7071  0.0000  0.0000  0.0000  0.0000  0.0000  0.7071
        0.0000  0.0000  0.0000  0.0000  0.7071 -0.7071  0.0000 -0.0000  0.0000
        0.0000 -0.7071  0.0000  0.0000  0.0000 -0.0000  0.0000  0.7071  0.0000
        0.0000  0.0000  0.7071  0.0000  0.0000  0.0000  0.0000  0.0000 -0.7071
                             
                             
                                


                   Dependent and indepenent force coefficients
                   -------------------------------------------

     Dependent components   Independent components     coefficients


 Next numerical derivative component
 -----------------------------------

    1


 **************************************************************************************
 ****************** Output of molecule and basis set info suppressed ******************
 **************************************************************************************



                     .---------------------------------------.
                     | Starting in Integral Section (HERMIT) |
                     `---------------------------------------'



    *************************************************************************
    ****************** Output from HERMIT input processing ******************
    *************************************************************************


 Threshold for neglecting two-electron integrals:  1.00D-12
 Number of two-electron integrals written:       21643 ( 47.9% )
 Megabytes written:                              0.254

 >>>> Total CPU  time used in HERMIT:   0.03 seconds
 >>>> Total wall time used in HERMIT:   0.04 seconds


                        .----------------------------------.
                        | End of Integral Section (HERMIT) |
                        `----------------------------------'



                   .--------------------------------------------.
                   | Starting in Wave Function Section (SIRIUS) |
                   `--------------------------------------------'


 *** Output from Huckel module :

     Using EWMO model:          T
     Using EHT  model:          F
     Number of Huckel orbitals each symmetry:    7

 EWMO - Energy Weighted Maximum Overlap - is a Huckel type method,
        which normally is better than Extended Huckel Theory.
 Reference: Linderberg and Ohrn, Propagators in Quantum Chemistry (Wiley, 1973)

 Huckel EWMO eigenvalues for symmetry :  1
          -20.685204      -1.620844      -0.779758      -0.686710      -0.616200
           -0.227696      -0.163489

 **********************************************************************
 *SIRIUS* a direct, restricted step, second order MCSCF program       *
 **********************************************************************

 (Wave function specification NOT suppressed here, because symmetry has changed.)

 
     Date and time (Linux)  : Mon Oct 21 14:57:33 2013
     Host name              : c10-6.local                             

 Title lines from ".mol" input file:
     H2O                                                                     
                                                                             

 Print level on unit LUPRI =   2 is   0
 Print level on unit LUW4  =   2 is   3

@    Restricted, closed shell Hartree-Fock calculation.

 Initial molecular orbitals are obtained according to
 ".MOSTART EWMO  " input option

     Wave function specification
     ============================
@    For the wave function of type :      >>> HF <<<
@    Number of closed shell electrons          10
@    Number of electrons in active shells       0
@    Total charge of the molecule               0

@    Spin multiplicity and 2 M_S                1         0
     Total number of symmetries                 1
@    Reference state symmetry                   1

     Orbital specifications
     ======================
     Abelian symmetry species          All |    1
                                       --- |  ---
@    Occupied SCF orbitals               5 |    5
     Secondary orbitals                 19 |   19
     Total number of orbitals           24 |   24
     Number of basis functions          24 |   24

     Optimization information
     ========================
@    Number of configurations                 1
@    Number of orbital rotations             95
     ------------------------------------------
@    Total number of variables               96

     Maximum number of Fock   iterations      0
     Maximum number of DIIS   iterations     60
     Maximum number of QC-SCF iterations     60
     Threshold for SCF convergence     1.00D-12


 >>>>> DIIS optimization of Hartree-Fock <<<<<

 C1-DIIS algorithm; max error vectors =    5

 Iter      Total energy        Error norm    Delta(E)  DIIS dim.
 -----------------------------------------------------------------------------
     (Precalculated two-electron integrals are transformed to P-supermatrix elements.
      Threshold for discarding integrals :  1.00D-12 )
@  1    -75.8436146960        1.67625D+00    1.83D-01    1
      Virial theorem: -V/T =      1.999768
@      MULPOP O      -0.55; H       0.28; H       0.28; 
 -----------------------------------------------------------------------------
@  2    -76.0207979772        3.22805D-01   -1.77D-01    2
      Virial theorem: -V/T =      2.000230
@      MULPOP O      -0.25; H       0.12; H       0.12; 
 -----------------------------------------------------------------------------
@  3    -76.0264957343        6.89916D-02   -5.70D-03    3
      Virial theorem: -V/T =      1.999695
@      MULPOP O      -0.28; H       0.14; H       0.14; 
 -----------------------------------------------------------------------------
@  4    -76.0270069090        1.26721D-02   -5.11D-04    4
      Virial theorem: -V/T =      1.999867
@      MULPOP O      -0.28; H       0.14; H       0.14; 
 -----------------------------------------------------------------------------
@  5    -76.0270236615        6.28973D-03   -1.68D-05    5
      Virial theorem: -V/T =      1.999653
@      MULPOP O      -0.29; H       0.14; H       0.14; 
 -----------------------------------------------------------------------------
@  6    -76.0270261213        1.29815D-03   -2.46D-06    5
      Virial theorem: -V/T =      1.999765
@      MULPOP O      -0.29; H       0.14; H       0.14; 
 -----------------------------------------------------------------------------
@  7    -76.0270264239        3.15482D-04   -3.03D-07    5
      Virial theorem: -V/T =      1.999771
@      MULPOP O      -0.29; H       0.14; H       0.14; 
 -----------------------------------------------------------------------------
@  8    -76.0270264381        3.21656D-05   -1.42D-08    5
      Virial theorem: -V/T =      1.999775
@      MULPOP O      -0.29; H       0.14; H       0.14; 
 -----------------------------------------------------------------------------
@  9    -76.0270264382        7.90853D-06   -1.34D-10    5
      Virial theorem: -V/T =      1.999775
@      MULPOP O      -0.29; H       0.14; H       0.14; 
 -----------------------------------------------------------------------------
@ 10    -76.0270264382        1.11963D-06   -8.43D-12    5
      Virial theorem: -V/T =      1.999775
@      MULPOP O      -0.29; H       0.14; H       0.14; 
 -----------------------------------------------------------------------------
@ 11    -76.0270264382        1.49328D-07   -1.99D-13    5
      Virial theorem: -V/T =      1.999775
@      MULPOP O      -0.29; H       0.14; H       0.14; 
 -----------------------------------------------------------------------------
@ 12    -76.0270264382        5.44858D-08    7.11D-14    5
      Virial theorem: -V/T =      1.999775
@      MULPOP O      -0.29; H       0.14; H       0.14; 
 -----------------------------------------------------------------------------
@ 13    -76.0270264382        6.90761D-09   -2.84D-14    5
      Virial theorem: -V/T =      1.999775
@      MULPOP O      -0.29; H       0.14; H       0.14; 
 -----------------------------------------------------------------------------
@ 14    -76.0270264382        1.73524D-09   -1.42D-14    5
      Virial theorem: -V/T =      1.999775
@      MULPOP O      -0.29; H       0.14; H       0.14; 
 -----------------------------------------------------------------------------
@ 15    -76.0270264382        2.91307D-10    1.42D-14    5
      Virial theorem: -V/T =      1.999775
@      MULPOP O      -0.29; H       0.14; H       0.14; 
 -----------------------------------------------------------------------------
@ 16    -76.0270264382        3.87759D-11   -2.84D-14    5
      Virial theorem: -V/T =      1.999775
@      MULPOP O      -0.29; H       0.14; H       0.14; 
 -----------------------------------------------------------------------------
@ 17    -76.0270264382        7.87642D-12    9.95D-14    5
      Virial theorem: -V/T =      1.999775
@      MULPOP O      -0.29; H       0.14; H       0.14; 
 -----------------------------------------------------------------------------
@ 18    -76.0270264382        2.02180D-12   -2.84D-14    5
      Virial theorem: -V/T =      1.999775
@      MULPOP O      -0.29; H       0.14; H       0.14; 
 -----------------------------------------------------------------------------
@ 19    -76.0270264382        6.91219D-13    2.84D-14    5

@ *** DIIS converged in  19 iterations !
@     Converged SCF energy, gradient:    -76.027026438216    6.91D-13
    - total time used in SIRFCK :              0.00 seconds


 *** SCF orbital energy analysis ***

 Only the five lowest virtual orbital energies printed in each symmetry.

 Number of electrons :   10
 Orbital occupations :    5

 Sym       Hartree-Fock orbital energies

  1    -20.54757902    -1.34355031    -0.70818527    -0.56795065    -0.49399072
         0.18805294     0.25818629     0.80188108     0.86514301     1.16199409

    E(LUMO) :     0.18805294 au (symmetry 1)
  - E(HOMO) :    -0.49399072 au (symmetry 1)
  ------------------------------------------
    gap     :     0.68204366 au

 >>> Writing SIRIFC interface file <<<

 >>>> CPU and wall time for SCF :       0.044       0.073


                       .-----------------------------------.
                       | >>> Final results from SIRIUS <<< |
                       `-----------------------------------'


@    Spin multiplicity:           1
@    Spatial symmetry:            1
@    Total charge of molecule:    0

@    Final HF energy:             -76.027026438216                 
@    Nuclear repulsion:             9.331433984217
@    Electronic energy:           -85.358460422433

@    Final gradient norm:           0.000000000001

 
     Date and time (Linux)  : Mon Oct 21 14:57:33 2013
     Host name              : c10-6.local                             



 >>>> Total CPU  time used in SIRIUS :      0.06 seconds
 >>>> Total wall time used in SIRIUS :      0.09 seconds

 
     Date and time (Linux)  : Mon Oct 21 14:57:33 2013
     Host name              : c10-6.local                             


                     .---------------------------------------.
                     | End of Wave Function Section (SIRIUS) |
                     `---------------------------------------'



 Next numerical derivative component
 -----------------------------------

    1


 **************************************************************************************
 ****************** Output of molecule and basis set info suppressed ******************
 **************************************************************************************



                     .---------------------------------------.
                     | Starting in Integral Section (HERMIT) |
                     `---------------------------------------'



    *************************************************************************
    ****************** Output from HERMIT input processing ******************
    *************************************************************************


 Threshold for neglecting two-electron integrals:  1.00D-12
 Number of two-electron integrals written:       21643 ( 47.9% )
 Megabytes written:                              0.254

 >>>> Total CPU  time used in HERMIT:   0.03 seconds
 >>>> Total wall time used in HERMIT:   0.03 seconds


                        .----------------------------------.
                        | End of Integral Section (HERMIT) |
                        `----------------------------------'



                   .--------------------------------------------.
                   | Starting in Wave Function Section (SIRIUS) |
                   `--------------------------------------------'


 *** Output from Huckel module :

     Using EWMO model:          T
     Using EHT  model:          F
     Number of Huckel orbitals each symmetry:    7

 EWMO - Energy Weighted Maximum Overlap - is a Huckel type method,
        which normally is better than Extended Huckel Theory.
 Reference: Linderberg and Ohrn, Propagators in Quantum Chemistry (Wiley, 1973)

 Huckel EWMO eigenvalues for symmetry :  1
          -20.685095      -1.617266      -0.777510      -0.688571      -0.616200
           -0.229522      -0.165736

 **********************************************************************
 *SIRIUS* a direct, restricted step, second order MCSCF program       *
 **********************************************************************

 (Wave function specification NOT suppressed here, because symmetry has changed.)

 
     Date and time (Linux)  : Mon Oct 21 14:57:34 2013
     Host name              : c10-6.local                             

 Title lines from ".mol" input file:
     H2O                                                                     
                                                                             

 Print level on unit LUPRI =   2 is   0
 Print level on unit LUW4  =   2 is   3

@    Restricted, closed shell Hartree-Fock calculation.

 Initial molecular orbitals are obtained according to
 ".MOSTART EWMO  " input option

     Wave function specification
     ============================
@    For the wave function of type :      >>> HF <<<
@    Number of closed shell electrons          10
@    Number of electrons in active shells       0
@    Total charge of the molecule               0

@    Spin multiplicity and 2 M_S                1         0
     Total number of symmetries                 1
@    Reference state symmetry                   1

     Orbital specifications
     ======================
     Abelian symmetry species          All |    1
                                       --- |  ---
@    Occupied SCF orbitals               5 |    5
     Secondary orbitals                 19 |   19
     Total number of orbitals           24 |   24
     Number of basis functions          24 |   24

     Optimization information
     ========================
@    Number of configurations                 1
@    Number of orbital rotations             95
     ------------------------------------------
@    Total number of variables               96

     Maximum number of Fock   iterations      0
     Maximum number of DIIS   iterations     60
     Maximum number of QC-SCF iterations     60
     Threshold for SCF convergence     1.00D-12


 >>>>> DIIS optimization of Hartree-Fock <<<<<

 C1-DIIS algorithm; max error vectors =    5

 Iter      Total energy        Error norm    Delta(E)  DIIS dim.
 -----------------------------------------------------------------------------
     (Precalculated two-electron integrals are transformed to P-supermatrix elements.
      Threshold for discarding integrals :  1.00D-12 )
@  1    -75.8454956852        1.66684D+00    1.82D-01    1
      Virial theorem: -V/T =      1.999847
@      MULPOP O      -0.55; H       0.28; H       0.28; 
 -----------------------------------------------------------------------------
@  2    -76.0208678935        3.21910D-01   -1.75D-01    2
      Virial theorem: -V/T =      2.000756
@      MULPOP O      -0.25; H       0.13; H       0.13; 
 -----------------------------------------------------------------------------
@  3    -76.0264895385        6.99741D-02   -5.62D-03    3
      Virial theorem: -V/T =      1.999902
@      MULPOP O      -0.28; H       0.14; H       0.14; 
 -----------------------------------------------------------------------------
@  4    -76.0270025530        1.59400D-02   -5.13D-04    4
      Virial theorem: -V/T =      2.000283
@      MULPOP O      -0.29; H       0.14; H       0.14; 
 -----------------------------------------------------------------------------
@  5    -76.0270223621        7.12312D-03   -1.98D-05    5
      Virial theorem: -V/T =      1.999966
@      MULPOP O      -0.30; H       0.15; H       0.15; 
 -----------------------------------------------------------------------------
@  6    -76.0270263590        1.37708D-03   -4.00D-06    5
      Virial theorem: -V/T =      2.000084
@      MULPOP O      -0.30; H       0.15; H       0.15; 
 -----------------------------------------------------------------------------
@  7    -76.0270266889        3.17544D-04   -3.30D-07    5
      Virial theorem: -V/T =      2.000094
@      MULPOP O      -0.30; H       0.15; H       0.15; 
 -----------------------------------------------------------------------------
@  8    -76.0270267037        3.22260D-05   -1.48D-08    5
      Virial theorem: -V/T =      2.000097
@      MULPOP O      -0.30; H       0.15; H       0.15; 
 -----------------------------------------------------------------------------
@  9    -76.0270267038        8.06431D-06   -1.32D-10    5
      Virial theorem: -V/T =      2.000097
@      MULPOP O      -0.30; H       0.15; H       0.15; 
 -----------------------------------------------------------------------------
@ 10    -76.0270267038        1.16633D-06   -8.58D-12    5
      Virial theorem: -V/T =      2.000097
@      MULPOP O      -0.30; H       0.15; H       0.15; 
 -----------------------------------------------------------------------------
@ 11    -76.0270267038        1.71077D-07   -1.99D-13    5
      Virial theorem: -V/T =      2.000097
@      MULPOP O      -0.30; H       0.15; H       0.15; 
 -----------------------------------------------------------------------------
@ 12    -76.0270267038        6.90458D-08    0.00D+00    5
      Virial theorem: -V/T =      2.000097
@      MULPOP O      -0.30; H       0.15; H       0.15; 
 -----------------------------------------------------------------------------
@ 13    -76.0270267038        6.06881D-09   -7.11D-14    5
      Virial theorem: -V/T =      2.000097
@      MULPOP O      -0.30; H       0.15; H       0.15; 
 -----------------------------------------------------------------------------
@ 14    -76.0270267038        1.34278D-09    9.95D-14    5
      Virial theorem: -V/T =      2.000097
@      MULPOP O      -0.30; H       0.15; H       0.15; 
 -----------------------------------------------------------------------------
@ 15    -76.0270267038        2.54106D-10   -5.68D-14    5
      Virial theorem: -V/T =      2.000097
@      MULPOP O      -0.30; H       0.15; H       0.15; 
 -----------------------------------------------------------------------------
@ 16    -76.0270267038        3.70986D-11   -1.42D-14    5
      Virial theorem: -V/T =      2.000097
@      MULPOP O      -0.30; H       0.15; H       0.15; 
 -----------------------------------------------------------------------------
@ 17    -76.0270267038        8.00701D-12    7.11D-14    5
      Virial theorem: -V/T =      2.000097
@      MULPOP O      -0.30; H       0.15; H       0.15; 
 -----------------------------------------------------------------------------
@ 18    -76.0270267038        2.20870D-12    5.68D-14    5
      Virial theorem: -V/T =      2.000097
@      MULPOP O      -0.30; H       0.15; H       0.15; 
 -----------------------------------------------------------------------------
@ 19    -76.0270267038        7.90846D-13   -7.11D-14    5

@ *** DIIS converged in  19 iterations !
@     Converged SCF energy, gradient:    -76.027026703832    7.91D-13
    - total time used in SIRFCK :              0.00 seconds


 *** SCF orbital energy analysis ***

 Only the five lowest virtual orbital energies printed in each symmetry.

 Number of electrons :   10
 Orbital occupations :    5

 Sym       Hartree-Fock orbital energies

  1    -20.54927915    -1.34098985    -0.70268057    -0.56883960    -0.49386010
         0.18676896     0.25742126     0.79352291     0.86357332     1.16329089

    E(LUMO) :     0.18676896 au (symmetry 1)
  - E(HOMO) :    -0.49386010 au (symmetry 1)
  ------------------------------------------
    gap     :     0.68062906 au

 >>> Writing SIRIFC interface file <<<

 >>>> CPU and wall time for SCF :       0.044       0.073


                       .-----------------------------------.
                       | >>> Final results from SIRIUS <<< |
                       `-----------------------------------'


@    Spin multiplicity:           1
@    Spatial symmetry:            1
@    Total charge of molecule:    0

@    Final HF energy:             -76.027026703832                 
@    Nuclear repulsion:             9.270248291574
@    Electronic energy:           -85.297274995406

@    Final gradient norm:           0.000000000001

 
     Date and time (Linux)  : Mon Oct 21 14:57:34 2013
     Host name              : c10-6.local                             



 >>>> Total CPU  time used in SIRIUS :      0.05 seconds
 >>>> Total wall time used in SIRIUS :      0.09 seconds

 
     Date and time (Linux)  : Mon Oct 21 14:57:34 2013
     Host name              : c10-6.local                             


                     .---------------------------------------.
                     | End of Wave Function Section (SIRIUS) |
                     `---------------------------------------'



 Next numerical derivative component
 -----------------------------------

    2


 **************************************************************************************
 ****************** Output of molecule and basis set info suppressed ******************
 **************************************************************************************



                     .---------------------------------------.
                     | Starting in Integral Section (HERMIT) |
                     `---------------------------------------'



    *************************************************************************
    ****************** Output from HERMIT input processing ******************
    *************************************************************************


 Threshold for neglecting two-electron integrals:  1.00D-12
 Number of two-electron integrals written:       21643 ( 47.9% )
 Megabytes written:                              0.254

 >>>> Total CPU  time used in HERMIT:   0.03 seconds
 >>>> Total wall time used in HERMIT:   0.03 seconds


                        .----------------------------------.
                        | End of Integral Section (HERMIT) |
                        `----------------------------------'



                   .--------------------------------------------.
                   | Starting in Wave Function Section (SIRIUS) |
                   `--------------------------------------------'


 *** Output from Huckel module :

     Using EWMO model:          T
     Using EHT  model:          F
     Number of Huckel orbitals each symmetry:    7

 EWMO - Energy Weighted Maximum Overlap - is a Huckel type method,
        which normally is better than Extended Huckel Theory.
 Reference: Linderberg and Ohrn, Propagators in Quantum Chemistry (Wiley, 1973)

 Huckel EWMO eigenvalues for symmetry :  1
          -20.685099      -1.616802      -0.779180      -0.687392      -0.616200
           -0.229712      -0.165515

 **********************************************************************
 *SIRIUS* a direct, restricted step, second order MCSCF program       *
 **********************************************************************

 (Wave function specification NOT suppressed here, because symmetry has changed.)

 
     Date and time (Linux)  : Mon Oct 21 14:57:34 2013
     Host name              : c10-6.local                             

 Title lines from ".mol" input file:
     H2O                                                                     
                                                                             

 Print level on unit LUPRI =   2 is   0
 Print level on unit LUW4  =   2 is   3

@    Restricted, closed shell Hartree-Fock calculation.

 Initial molecular orbitals are obtained according to
 ".MOSTART EWMO  " input option

     Wave function specification
     ============================
@    For the wave function of type :      >>> HF <<<
@    Number of closed shell electrons          10
@    Number of electrons in active shells       0
@    Total charge of the molecule               0

@    Spin multiplicity and 2 M_S                1         0
     Total number of symmetries                 1
@    Reference state symmetry                   1

     Orbital specifications
     ======================
     Abelian symmetry species          All |    1
                                       --- |  ---
@    Occupied SCF orbitals               5 |    5
     Secondary orbitals                 19 |   19
     Total number of orbitals           24 |   24
     Number of basis functions          24 |   24

     Optimization information
     ========================
@    Number of configurations                 1
@    Number of orbital rotations             95
     ------------------------------------------
@    Total number of variables               96

     Maximum number of Fock   iterations      0
     Maximum number of DIIS   iterations     60
     Maximum number of QC-SCF iterations     60
     Threshold for SCF convergence     1.00D-12


 >>>>> DIIS optimization of Hartree-Fock <<<<<

 C1-DIIS algorithm; max error vectors =    5

 Iter      Total energy        Error norm    Delta(E)  DIIS dim.
 -----------------------------------------------------------------------------
     (Precalculated two-electron integrals are transformed to P-supermatrix elements.
      Threshold for discarding integrals :  1.00D-12 )
@  1    -75.8464807926        1.66192D+00    1.81D-01    1
      Virial theorem: -V/T =      1.999890
@      MULPOP O      -0.55; H       0.28; H       0.28; 
 -----------------------------------------------------------------------------
@  2    -76.0209003021        3.20313D-01   -1.74D-01    2
      Virial theorem: -V/T =      2.000718
@      MULPOP O      -0.25; H       0.13; H       0.13; 
 -----------------------------------------------------------------------------
@  3    -76.0265022287        6.93057D-02   -5.60D-03    3
      Virial theorem: -V/T =      1.999934
@      MULPOP O      -0.28; H       0.14; H       0.14; 
 -----------------------------------------------------------------------------
@  4    -76.0270083051        1.49353D-02   -5.06D-04    4
      Virial theorem: -V/T =      2.000261
@      MULPOP O      -0.29; H       0.15; H       0.15; 
 -----------------------------------------------------------------------------
@  5    -76.0270266207        7.02518D-03   -1.83D-05    5
      Virial theorem: -V/T =      1.999966
@      MULPOP O      -0.30; H       0.15; H       0.15; 
 -----------------------------------------------------------------------------
@  6    -76.0270302209        1.34156D-03   -3.60D-06    5
      Virial theorem: -V/T =      2.000085
@      MULPOP O      -0.30; H       0.15; H       0.15; 
 -----------------------------------------------------------------------------
@  7    -76.0270305351        3.16597D-04   -3.14D-07    5
      Virial theorem: -V/T =      2.000095
@      MULPOP O      -0.30; H       0.15; H       0.15; 
 -----------------------------------------------------------------------------
@  8    -76.0270305499        3.24126D-05   -1.48D-08    5
      Virial theorem: -V/T =      2.000098
@      MULPOP O      -0.30; H       0.15; H       0.15; 
 -----------------------------------------------------------------------------
@  9    -76.0270305500        8.05490D-06   -1.35D-10    5
      Virial theorem: -V/T =      2.000098
@      MULPOP O      -0.30; H       0.15; H       0.15; 
 -----------------------------------------------------------------------------
@ 10    -76.0270305500        1.16020D-06   -8.81D-12    5
      Virial theorem: -V/T =      2.000098
@      MULPOP O      -0.30; H       0.15; H       0.15; 
 -----------------------------------------------------------------------------
@ 11    -76.0270305500        1.61777D-07   -1.56D-13    5
      Virial theorem: -V/T =      2.000098
@      MULPOP O      -0.30; H       0.15; H       0.15; 
 -----------------------------------------------------------------------------
@ 12    -76.0270305500        6.63912D-08    1.42D-14    5
      Virial theorem: -V/T =      2.000098
@      MULPOP O      -0.30; H       0.15; H       0.15; 
 -----------------------------------------------------------------------------
@ 13    -76.0270305500        6.25873D-09   -2.84D-14    5
      Virial theorem: -V/T =      2.000098
@      MULPOP O      -0.30; H       0.15; H       0.15; 
 -----------------------------------------------------------------------------
@ 14    -76.0270305500        1.35849D-09    0.00D+00    5
      Virial theorem: -V/T =      2.000098
@      MULPOP O      -0.30; H       0.15; H       0.15; 
 -----------------------------------------------------------------------------
@ 15    -76.0270305500        2.53397D-10    0.00D+00    5
      Virial theorem: -V/T =      2.000098
@      MULPOP O      -0.30; H       0.15; H       0.15; 
 -----------------------------------------------------------------------------
@ 16    -76.0270305500        3.78762D-11    1.42D-14    5
      Virial theorem: -V/T =      2.000098
@      MULPOP O      -0.30; H       0.15; H       0.15; 
 -----------------------------------------------------------------------------
@ 17    -76.0270305500        8.29755D-12   -1.42D-14    5
      Virial theorem: -V/T =      2.000098
@      MULPOP O      -0.30; H       0.15; H       0.15; 
 -----------------------------------------------------------------------------
@ 18    -76.0270305500        2.29289D-12    8.53D-14    5
      Virial theorem: -V/T =      2.000098
@      MULPOP O      -0.30; H       0.15; H       0.15; 
 -----------------------------------------------------------------------------
@ 19    -76.0270305500        8.36036D-13   -5.68D-14    5

@ *** DIIS converged in  19 iterations !
@     Converged SCF energy, gradient:    -76.027030550011    8.36D-13
    - total time used in SIRFCK :              0.00 seconds


 *** SCF orbital energy analysis ***

 Only the five lowest virtual orbital energies printed in each symmetry.

 Number of electrons :   10
 Orbital occupations :    5

 Sym       Hartree-Fock orbital energies

  1    -20.54880485    -1.34049940    -0.70434479    -0.56728143    -0.49360033
         0.18698379     0.25735539     0.79645749     0.86023182     1.16264161

    E(LUMO) :     0.18698379 au (symmetry 1)
  - E(HOMO) :    -0.49360033 au (symmetry 1)
  ------------------------------------------
    gap     :     0.68058412 au

 >>> Writing SIRIFC interface file <<<

 >>>> CPU and wall time for SCF :       0.043       0.073


                       .-----------------------------------.
                       | >>> Final results from SIRIUS <<< |
                       `-----------------------------------'


@    Spin multiplicity:           1
@    Spatial symmetry:            1
@    Total charge of molecule:    0

@    Final HF energy:             -76.027030550011                 
@    Nuclear repulsion:             9.271131937130
@    Electronic energy:           -85.298162487141

@    Final gradient norm:           0.000000000001

 
     Date and time (Linux)  : Mon Oct 21 14:57:34 2013
     Host name              : c10-6.local                             



 >>>> Total CPU  time used in SIRIUS :      0.05 seconds
 >>>> Total wall time used in SIRIUS :      0.09 seconds

 
     Date and time (Linux)  : Mon Oct 21 14:57:34 2013
     Host name              : c10-6.local                             


                     .---------------------------------------.
                     | End of Wave Function Section (SIRIUS) |
                     `---------------------------------------'



 Next numerical derivative component
 -----------------------------------

    2


 **************************************************************************************
 ****************** Output of molecule and basis set info suppressed ******************
 **************************************************************************************



                     .---------------------------------------.
                     | Starting in Integral Section (HERMIT) |
                     `---------------------------------------'



    *************************************************************************
    ****************** Output from HERMIT input processing ******************
    *************************************************************************


 Threshold for neglecting two-electron integrals:  1.00D-12
 Number of two-electron integrals written:       21643 ( 47.9% )
 Megabytes written:                              0.254

 >>>> Total CPU  time used in HERMIT:   0.03 seconds
 >>>> Total wall time used in HERMIT:   0.04 seconds


                        .----------------------------------.
                        | End of Integral Section (HERMIT) |
                        `----------------------------------'



                   .--------------------------------------------.
                   | Starting in Wave Function Section (SIRIUS) |
                   `--------------------------------------------'


 *** Output from Huckel module :

     Using EWMO model:          T
     Using EHT  model:          F
     Number of Huckel orbitals each symmetry:    7

 EWMO - Energy Weighted Maximum Overlap - is a Huckel type method,
        which normally is better than Extended Huckel Theory.
 Reference: Linderberg and Ohrn, Propagators in Quantum Chemistry (Wiley, 1973)

 Huckel EWMO eigenvalues for symmetry :  1
          -20.685200      -1.621323      -0.778080      -0.687891      -0.616200
           -0.227498      -0.163708

 **********************************************************************
 *SIRIUS* a direct, restricted step, second order MCSCF program       *
 **********************************************************************

 (Wave function specification NOT suppressed here, because symmetry has changed.)

 
     Date and time (Linux)  : Mon Oct 21 14:57:35 2013
     Host name              : c10-6.local                             

 Title lines from ".mol" input file:
     H2O                                                                     
                                                                             

 Print level on unit LUPRI =   2 is   0
 Print level on unit LUW4  =   2 is   3

@    Restricted, closed shell Hartree-Fock calculation.

 Initial molecular orbitals are obtained according to
 ".MOSTART EWMO  " input option

     Wave function specification
     ============================
@    For the wave function of type :      >>> HF <<<
@    Number of closed shell electrons          10
@    Number of electrons in active shells       0
@    Total charge of the molecule               0

@    Spin multiplicity and 2 M_S                1         0
     Total number of symmetries                 1
@    Reference state symmetry                   1

     Orbital specifications
     ======================
     Abelian symmetry species          All |    1
                                       --- |  ---
@    Occupied SCF orbitals               5 |    5
     Secondary orbitals                 19 |   19
     Total number of orbitals           24 |   24
     Number of basis functions          24 |   24

     Optimization information
     ========================
@    Number of configurations                 1
@    Number of orbital rotations             95
     ------------------------------------------
@    Total number of variables               96

     Maximum number of Fock   iterations      0
     Maximum number of DIIS   iterations     60
     Maximum number of QC-SCF iterations     60
     Threshold for SCF convergence     1.00D-12


 >>>>> DIIS optimization of Hartree-Fock <<<<<

 C1-DIIS algorithm; max error vectors =    5

 Iter      Total energy        Error norm    Delta(E)  DIIS dim.
 -----------------------------------------------------------------------------
     (Precalculated two-electron integrals are transformed to P-supermatrix elements.
      Threshold for discarding integrals :  1.00D-12 )
@  1    -75.8426119706        1.68126D+00    1.84D-01    1
      Virial theorem: -V/T =      1.999724
@      MULPOP O      -0.55; H       0.28; H       0.28; 
 -----------------------------------------------------------------------------
@  2    -76.0207752510        3.24352D-01   -1.78D-01    2
      Virial theorem: -V/T =      2.000267
@      MULPOP O      -0.25; H       0.12; H       0.12; 
 -----------------------------------------------------------------------------
@  3    -76.0264913564        6.95633D-02   -5.72D-03    3
      Virial theorem: -V/T =      1.999662
@      MULPOP O      -0.28; H       0.14; H       0.14; 
 -----------------------------------------------------------------------------
@  4    -76.0270092880        1.34916D-02   -5.18D-04    4
      Virial theorem: -V/T =      1.999889
@      MULPOP O      -0.28; H       0.14; H       0.14; 
 -----------------------------------------------------------------------------
@  5    -76.0270269191        6.74490D-03   -1.76D-05    5
      Virial theorem: -V/T =      1.999644
@      MULPOP O      -0.29; H       0.14; H       0.14; 
 -----------------------------------------------------------------------------
@  6    -76.0270299066        1.33942D-03   -2.99D-06    5
      Virial theorem: -V/T =      1.999762
@      MULPOP O      -0.29; H       0.14; H       0.14; 
 -----------------------------------------------------------------------------
@  7    -76.0270302258        3.15879D-04   -3.19D-07    5
      Virial theorem: -V/T =      1.999770
@      MULPOP O      -0.29; H       0.14; H       0.14; 
 -----------------------------------------------------------------------------
@  8    -76.0270302401        3.19725D-05   -1.43D-08    5
      Virial theorem: -V/T =      1.999773
@      MULPOP O      -0.29; H       0.14; H       0.14; 
 -----------------------------------------------------------------------------
@  9    -76.0270302402        7.92715D-06   -1.30D-10    5
      Virial theorem: -V/T =      1.999773
@      MULPOP O      -0.29; H       0.14; H       0.14; 
 -----------------------------------------------------------------------------
@ 10    -76.0270302402        1.12600D-06   -8.38D-12    5
      Virial theorem: -V/T =      1.999773
@      MULPOP O      -0.29; H       0.14; H       0.14; 
 -----------------------------------------------------------------------------
@ 11    -76.0270302402        1.51867D-07   -1.99D-13    5
      Virial theorem: -V/T =      1.999773
@      MULPOP O      -0.29; H       0.14; H       0.14; 
 -----------------------------------------------------------------------------
@ 12    -76.0270302402        5.97427D-08    2.84D-14    5
      Virial theorem: -V/T =      1.999773
@      MULPOP O      -0.29; H       0.14; H       0.14; 
 -----------------------------------------------------------------------------
@ 13    -76.0270302402        6.57876D-09    5.68D-14    5
      Virial theorem: -V/T =      1.999773
@      MULPOP O      -0.29; H       0.14; H       0.14; 
 -----------------------------------------------------------------------------
@ 14    -76.0270302402        1.60198D-09   -2.84D-14    5
      Virial theorem: -V/T =      1.999773
@      MULPOP O      -0.29; H       0.14; H       0.14; 
 -----------------------------------------------------------------------------
@ 15    -76.0270302402        2.82459D-10   -2.84D-14    5
      Virial theorem: -V/T =      1.999773
@      MULPOP O      -0.29; H       0.14; H       0.14; 
 -----------------------------------------------------------------------------
@ 16    -76.0270302402        3.79058D-11    2.84D-14    5
      Virial theorem: -V/T =      1.999773
@      MULPOP O      -0.29; H       0.14; H       0.14; 
 -----------------------------------------------------------------------------
@ 17    -76.0270302402        7.83685D-12    2.84D-14    5
      Virial theorem: -V/T =      1.999773
@      MULPOP O      -0.29; H       0.14; H       0.14; 
 -----------------------------------------------------------------------------
@ 18    -76.0270302402        2.02189D-12    5.68D-14    5
      Virial theorem: -V/T =      1.999773
@      MULPOP O      -0.29; H       0.14; H       0.14; 
 -----------------------------------------------------------------------------
@ 19    -76.0270302402        7.23736D-13   -2.84D-14    5

@ *** DIIS converged in  19 iterations !
@     Converged SCF energy, gradient:    -76.027030240244    7.24D-13
    - total time used in SIRFCK :              0.00 seconds


 *** SCF orbital energy analysis ***

 Only the five lowest virtual orbital energies printed in each symmetry.

 Number of electrons :   10
 Orbital occupations :    5

 Sym       Hartree-Fock orbital energies

  1    -20.54805043    -1.34405622    -0.70650137    -0.56952528    -0.49424978
         0.18783422     0.25826395     0.79889330     0.86856391     1.16264629

    E(LUMO) :     0.18783422 au (symmetry 1)
  - E(HOMO) :    -0.49424978 au (symmetry 1)
  ------------------------------------------
    gap     :     0.68208400 au

 >>> Writing SIRIFC interface file <<<

 >>>> CPU and wall time for SCF :       0.045       0.072


                       .-----------------------------------.
                       | >>> Final results from SIRIUS <<< |
                       `-----------------------------------'


@    Spin multiplicity:           1
@    Spatial symmetry:            1
@    Total charge of molecule:    0

@    Final HF energy:             -76.027030240244                 
@    Nuclear repulsion:             9.330656884763
@    Electronic energy:           -85.357687125007

@    Final gradient norm:           0.000000000001

 
     Date and time (Linux)  : Mon Oct 21 14:57:35 2013
     Host name              : c10-6.local                             



 >>>> Total CPU  time used in SIRIUS :      0.05 seconds
 >>>> Total wall time used in SIRIUS :      0.10 seconds

 
     Date and time (Linux)  : Mon Oct 21 14:57:35 2013
     Host name              : c10-6.local                             


                     .---------------------------------------.
                     | End of Wave Function Section (SIRIUS) |
                     `---------------------------------------'



 Next numerical derivative component
 -----------------------------------

    3


 **************************************************************************************
 ****************** Output of molecule and basis set info suppressed ******************
 **************************************************************************************



                     .---------------------------------------.
                     | Starting in Integral Section (HERMIT) |
                     `---------------------------------------'



    *************************************************************************
    ****************** Output from HERMIT input processing ******************
    *************************************************************************


 Threshold for neglecting two-electron integrals:  1.00D-12
 Number of two-electron integrals written:       21643 ( 47.9% )
 Megabytes written:                              0.254

 >>>> Total CPU  time used in HERMIT:   0.03 seconds
 >>>> Total wall time used in HERMIT:   0.03 seconds


                        .----------------------------------.
                        | End of Integral Section (HERMIT) |
                        `----------------------------------'



                   .--------------------------------------------.
                   | Starting in Wave Function Section (SIRIUS) |
                   `--------------------------------------------'


 *** Output from Huckel module :

     Using EWMO model:          T
     Using EHT  model:          F
     Number of Huckel orbitals each symmetry:    7

 EWMO - Energy Weighted Maximum Overlap - is a Huckel type method,
        which normally is better than Extended Huckel Theory.
 Reference: Linderberg and Ohrn, Propagators in Quantum Chemistry (Wiley, 1973)

 Huckel EWMO eigenvalues for symmetry :  1
          -20.685111      -1.617792      -0.777840      -0.688299      -0.616200
           -0.229252      -0.165406

 **********************************************************************
 *SIRIUS* a direct, restricted step, second order MCSCF program       *
 **********************************************************************

 (Wave function specification NOT suppressed here, because symmetry has changed.)

 
     Date and time (Linux)  : Mon Oct 21 14:57:35 2013
     Host name              : c10-6.local                             

 Title lines from ".mol" input file:
     H2O                                                                     
                                                                             

 Print level on unit LUPRI =   2 is   0
 Print level on unit LUW4  =   2 is   3

@    Restricted, closed shell Hartree-Fock calculation.

 Initial molecular orbitals are obtained according to
 ".MOSTART EWMO  " input option

[...]

 
     Date and time (Linux)  : Mon Oct 21 14:57:41 2013
     Host name              : c10-6.local                             



 >>>> Total CPU  time used in SIRIUS :      0.06 seconds
 >>>> Total wall time used in SIRIUS :      0.09 seconds

 
     Date and time (Linux)  : Mon Oct 21 14:57:41 2013
     Host name              : c10-6.local                             


                     .---------------------------------------.
                     | End of Wave Function Section (SIRIUS) |
                     `---------------------------------------'



 Next numerical derivative component
 -----------------------------------

     Starting geometry.


 **************************************************************************************
 ****************** Output of molecule and basis set info suppressed ******************
 **************************************************************************************



                     .---------------------------------------.
                     | Starting in Integral Section (HERMIT) |
                     `---------------------------------------'



    *************************************************************************
    ****************** Output from HERMIT input processing ******************
    *************************************************************************


 Threshold for neglecting two-electron integrals:  1.00D-12
 Number of two-electron integrals written:       21643 ( 47.9% )
 Megabytes written:                              0.254

 >>>> Total CPU  time used in HERMIT:   0.03 seconds
 >>>> Total wall time used in HERMIT:   0.03 seconds


                        .----------------------------------.
                        | End of Integral Section (HERMIT) |
                        `----------------------------------'



                   .--------------------------------------------.
                   | Starting in Wave Function Section (SIRIUS) |
                   `--------------------------------------------'


 *** Output from Huckel module :

     Using EWMO model:          T
     Using EHT  model:          F
     Number of Huckel orbitals each symmetry:    7

 EWMO - Energy Weighted Maximum Overlap - is a Huckel type method,
        which normally is better than Extended Huckel Theory.
 Reference: Linderberg and Ohrn, Propagators in Quantum Chemistry (Wiley, 1973)

 Huckel EWMO eigenvalues for symmetry :  1
          -20.685149      -1.619060      -0.778634      -0.687641      -0.616200
           -0.228604      -0.164612

 **********************************************************************
 *SIRIUS* a direct, restricted step, second order MCSCF program       *
 **********************************************************************

 (Wave function specification NOT suppressed here, because symmetry has changed.)

 
     Date and time (Linux)  : Mon Oct 21 14:57:41 2013
     Host name              : c10-6.local                             

 Title lines from ".mol" input file:
     H2O                                                                     
                                                                             

 Print level on unit LUPRI =   2 is   0
 Print level on unit LUW4  =   2 is   3

@    Restricted, closed shell Hartree-Fock calculation.

 Initial molecular orbitals are obtained according to
 ".MOSTART EWMO  " input option

     Wave function specification
     ============================
@    For the wave function of type :      >>> HF <<<
@    Number of closed shell electrons          10
@    Number of electrons in active shells       0
@    Total charge of the molecule               0

@    Spin multiplicity and 2 M_S                1         0
     Total number of symmetries                 1
@    Reference state symmetry                   1

     Orbital specifications
     ======================
     Abelian symmetry species          All |    1
                                       --- |  ---
@    Occupied SCF orbitals               5 |    5
     Secondary orbitals                 19 |   19
     Total number of orbitals           24 |   24
     Number of basis functions          24 |   24

     Optimization information
     ========================
@    Number of configurations                 1
@    Number of orbital rotations             95
     ------------------------------------------
@    Total number of variables               96

     Maximum number of Fock   iterations      0
     Maximum number of DIIS   iterations     60
     Maximum number of QC-SCF iterations     60
     Threshold for SCF convergence     1.00D-12


 >>>>> DIIS optimization of Hartree-Fock <<<<<

 C1-DIIS algorithm; max error vectors =    5

 Iter      Total energy        Error norm    Delta(E)  DIIS dim.
 -----------------------------------------------------------------------------
     (Precalculated two-electron integrals are transformed to P-supermatrix elements.
      Threshold for discarding integrals :  1.00D-12 )
@  1    -75.8445809052        1.67156D+00    1.82D-01    1
      Virial theorem: -V/T =      1.999808
@      MULPOP O      -0.55; H       0.28; H       0.28; 
 -----------------------------------------------------------------------------
@  2    -76.0208616398        3.22311D-01   -1.76D-01    2
      Virial theorem: -V/T =      2.000493
@      MULPOP O      -0.25; H       0.13; H       0.13; 
 -----------------------------------------------------------------------------
@  3    -76.0265200646        6.94135D-02   -5.66D-03    3
      Virial theorem: -V/T =      1.999799
@      MULPOP O      -0.28; H       0.14; H       0.14; 
 -----------------------------------------------------------------------------
@  4    -76.0270319919        1.41756D-02   -5.12D-04    4
      Virial theorem: -V/T =      2.000076
@      MULPOP O      -0.29; H       0.14; H       0.14; 
 -----------------------------------------------------------------------------
@  5    -76.0270498526        6.94558D-03   -1.79D-05    5
      Virial theorem: -V/T =      1.999805
@      MULPOP O      -0.29; H       0.15; H       0.15; 
 -----------------------------------------------------------------------------
@  6    -76.0270531810        1.34174D-03   -3.33D-06    5
      Virial theorem: -V/T =      1.999925
@      MULPOP O      -0.29; H       0.15; H       0.15; 
 -----------------------------------------------------------------------------
@  7    -76.0270534980        3.16171D-04   -3.17D-07    5
      Virial theorem: -V/T =      1.999933
@      MULPOP O      -0.29; H       0.15; H       0.15; 
 -----------------------------------------------------------------------------
@  8    -76.0270535126        3.21925D-05   -1.45D-08    5
      Virial theorem: -V/T =      1.999937
@      MULPOP O      -0.29; H       0.15; H       0.15; 
 -----------------------------------------------------------------------------
@  9    -76.0270535127        7.99292D-06   -1.33D-10    5
      Virial theorem: -V/T =      1.999937
@      MULPOP O      -0.29; H       0.15; H       0.15; 
 -----------------------------------------------------------------------------
@ 10    -76.0270535127        1.14342D-06   -8.57D-12    5
      Virial theorem: -V/T =      1.999937
@      MULPOP O      -0.29; H       0.15; H       0.15; 
 -----------------------------------------------------------------------------
@ 11    -76.0270535127        1.55869D-07   -1.42D-13    5
      Virial theorem: -V/T =      1.999937
@      MULPOP O      -0.29; H       0.15; H       0.15; 
 -----------------------------------------------------------------------------
@ 12    -76.0270535127        6.33081D-08   -4.26D-14    5
      Virial theorem: -V/T =      1.999937
@      MULPOP O      -0.29; H       0.15; H       0.15; 
 -----------------------------------------------------------------------------
@ 13    -76.0270535127        6.40426D-09    5.68D-14    5
      Virial theorem: -V/T =      1.999937
@      MULPOP O      -0.29; H       0.15; H       0.15; 
 -----------------------------------------------------------------------------
@ 14    -76.0270535127        1.46724D-09   -2.84D-14    5
      Virial theorem: -V/T =      1.999937
@      MULPOP O      -0.29; H       0.15; H       0.15; 
 -----------------------------------------------------------------------------
@ 15    -76.0270535127        2.67698D-10    2.84D-14    5
      Virial theorem: -V/T =      1.999937
@      MULPOP O      -0.29; H       0.15; H       0.15; 
 -----------------------------------------------------------------------------
@ 16    -76.0270535127        3.79914D-11   -2.84D-14    5
      Virial theorem: -V/T =      1.999937
@      MULPOP O      -0.29; H       0.15; H       0.15; 
 -----------------------------------------------------------------------------
@ 17    -76.0270535127        8.11054D-12    2.84D-14    5
      Virial theorem: -V/T =      1.999937
@      MULPOP O      -0.29; H       0.15; H       0.15; 
 -----------------------------------------------------------------------------
@ 18    -76.0270535127        2.19067D-12    4.26D-14    5
      Virial theorem: -V/T =      1.999937
@      MULPOP O      -0.29; H       0.15; H       0.15; 
 -----------------------------------------------------------------------------
@ 19    -76.0270535127        7.81458D-13    2.84D-14    5

@ *** DIIS converged in  19 iterations !
@     Converged SCF energy, gradient:    -76.027053512722    7.81D-13
    - total time used in SIRFCK :              0.00 seconds


 *** SCF orbital energy analysis ***

 Only the five lowest virtual orbital energies printed in each symmetry.

 Number of electrons :   10
 Orbital occupations :    5

 Sym       Hartree-Fock orbital energies

  1    -20.54842862    -1.34227091    -0.70542716    -0.56840093    -0.49392413
         0.18741320     0.25781084     0.79767309     0.86438284     1.16263559

    E(LUMO) :     0.18741320 au (symmetry 1)
  - E(HOMO) :    -0.49392413 au (symmetry 1)
  ------------------------------------------
    gap     :     0.68133733 au

 >>> Writing SIRIFC interface file <<<

 >>>> CPU and wall time for SCF :       0.044       0.073


                       .-----------------------------------.
                       | >>> Final results from SIRIUS <<< |
                       `-----------------------------------'


@    Spin multiplicity:           1
@    Spatial symmetry:            1
@    Total charge of molecule:    0

@    Final HF energy:             -76.027053512722                 
@    Nuclear repulsion:             9.300824137369
@    Electronic energy:           -85.327877650091

@    Final gradient norm:           0.000000000001

 
     Date and time (Linux)  : Mon Oct 21 14:57:41 2013
     Host name              : c10-6.local                             



 >>>> Total CPU  time used in SIRIUS :      0.05 seconds
 >>>> Total wall time used in SIRIUS :      0.09 seconds

 
     Date and time (Linux)  : Mon Oct 21 14:57:42 2013
     Host name              : c10-6.local                             


                     .---------------------------------------.
                     | End of Wave Function Section (SIRIUS) |
                     `---------------------------------------'



                    Numerical gradient in symmetry coordinates
                    ------------------------------------------



                         Gradient in symmetry coordinates
                         --------------------------------

                                     0.00001328
                                    -0.00001549
                                    -0.00000699


                        Gradient in cartesian coordinates
                        ---------------------------------

 O          0.0000000000            0.0000000000            0.0000132808
 H         -0.0000000000           -0.0000109519           -0.0000049449
 H         -0.0000000000            0.0000109519           -0.0000049449


                    Numerical hessian in symmetry coordinates
                    -----------------------------------------



                         Hessian in symmetry coordinates
                         -------------------------------


        Notation: irrep/coordinate number

           1/   1      1/   2      1/   3      2/   4      2/   5      3/   6
 1/   1    0.538834
 1/   2   -0.333599    0.462352
 1/   3   -0.380986    0.235883    0.269422
 2/   4    0.000000    0.000000    0.000000    0.000005
 2/   5    0.000000    0.000000    0.000000   -0.000020   -0.000000
 3/   6    0.000000    0.000000    0.000000    0.000000    0.000000    0.000002
 4/   7    0.000000    0.000000    0.000000    0.000000    0.000000    0.000000
 4/   8    0.000000    0.000000    0.000000    0.000000    0.000000    0.000000
 4/   9    0.000000    0.000000    0.000000    0.000000    0.000000    0.000000
                                       
           4/   7      4/   8      4/   9
 4/   7    0.785446
 4/   8   -0.555411    0.392720
 4/   9   -0.429218    0.303480    0.234470
                                       


                           Cartesian Hessian in GSPHES
                           ---------------------------

            O      x    O      y    O      z    H      x    H      y    H      z

 O      x    0.000005
 O      y    0.000000    0.785446
 O      z    0.000000    0.000000    0.538834

 H      x   -0.000014   -0.000000   -0.000000    0.000001
 H      y    0.000000   -0.392735   -0.235890    0.000000    0.427536
 H      z    0.000000   -0.303503   -0.269398    0.000000    0.269681    0.251946

 H      x   -0.000014    0.000000   -0.000000   -0.000001    0.000000   -0.000000
 H      y   -0.000000   -0.392735    0.235890   -0.000000   -0.034816    0.033799
 H      z    0.000000    0.303503   -0.269398   -0.000000   -0.033799    0.017476


            H      x    H      y    H      z

 H      x    0.000001
 H      y   -0.000000    0.427536
 H      z    0.000000   -0.269681    0.251946




                                 Isotopic Masses
                                 ---------------

                           O          15.994915
                           H           1.007825
                           H           1.007825

                       Total mass:    18.010565 amu
                       Natural abundance:  99.730 %

 Center-of-mass coordinates (a.u.):    0.000000    0.000000   -0.606548
          Number of modes with zero frequency:   6


                 Vibrational frequencies harmonic approximation:
                 -----------------------------------------------

                     Mode     cm-1       hartrees  
                       1     4113.91    0.018744
                       1     1775.53    0.008090
                       4     4212.26    0.019192


 Normal coordinates:
 -------------------

          1            1            4
    0.0000000    0.0000000    0.0000000
    0.0000000    0.0000000   -0.0703391
   -0.0505158   -0.0701971    0.0000000
    0.0000000   -0.0000000    0.0000000
    0.5814025   -0.4325552    0.5581414
    0.4008681    0.5571644    0.4312822
    0.0000000   -0.0000000   -0.0000000
   -0.5814025    0.4325552    0.5581414
    0.4008681    0.5571644   -0.4312822
                                        


@>>> Number of energy   calculations done:        33


 *************************************************************************************
 ****************** Numerical derivatives have now been calculated. ******************
 *************************************************************************************



                          .-----------------------------.
                          | Geometry walk has converged |
                          `-----------------------------'


 Center of mass dipole origin  :    0.000000    0.000000   -0.606548

 Center of mass gauge origin   :    0.000000    0.000000   -0.606548


                 .------------------------------------------------.
                 | Starting in Static Property Section (ABACUS) - |
                 `------------------------------------------------'


 
     Date and time (Linux)  : Mon Oct 21 14:57:42 2013
     Host name              : c10-6.local                             


   ***************************************************************************
   ************************ FINAL RESULTS from ABACUS ************************
   ***************************************************************************


 
     Date and time (Linux)  : Mon Oct 21 14:57:42 2013
     Host name              : c10-6.local                             


                             Molecular geometry (au)
                             -----------------------

 O          0.0000000000            0.0000000000           -0.7289126837
 H          0.0000000000            1.4150113018            0.3644563419
 H          0.0000000000           -1.4150113018            0.3644563419





                        Molecular wave function and energy
                        ----------------------------------

     Spin multiplicity  1     State number       1     Total charge       0

     Total energy        -76.0270535127 au (Hartrees)
                         -2068.80136349 eV
                           -199608.9982 kJ/mol


                             Relativistic corrections
                             ------------------------

     Darwin correction:                          0.1989256028 au
     Mass-velocity correction:                  -0.2504251599 au

     Total relativistic correction:             -0.0514995571 au (0.0677%)
     Non-relativistic + relativistic energy:   -76.0785530698 au




                                  Dipole moment
                                  -------------

                 au               Debye          C m (/(10**-30)
              0.804248           2.044194           6.818699


                             Dipole moment components
                             ------------------------

                 au               Debye          C m (/(10**-30)

      x      0.00000000         0.00000000         0.00000000
      y      0.00000000         0.00000000         0.00000000
      z      0.80424801         2.04419441         6.81869860


   Units:   1 a.u. =   2.54175 Debye 
            1 a.u. =   8.47835 (10**-30) C m (SI)




   Interatomic separations (in Angstrom):
   --------------------------------------

            O           H           H     
            ------      ------      ------
 O     :    0.000000
 H     :    0.946283    0.000000
 H     :    0.946283    1.497583    0.000000


  Max    interatomic separation is    1.4976 Angstrom (    2.8300 Bohr)
  between atoms    3 and    2, "H     " and "H     ".

  Min HX interatomic separation is    0.9463 Angstrom (    1.7882 Bohr)


  Bond distances (Angstrom):
  --------------------------

                  atom 1     atom 2       distance
                  ------     ------       --------
  bond distance:  H          O            0.946283
  bond distance:  H          O            0.946283


  Bond angles (degrees):
  ----------------------

                  atom 1     atom 2     atom 3         angle
                  ------     ------     ------         -----
  bond angle:     H          O          H            104.614




 CPU time statistics for ABACUS
 ------------------------------




 >>>> Total CPU  time used in ABACUS:   0.01 seconds
 >>>> Total wall time used in ABACUS:   0.01 seconds


                   .-------------------------------------------.
                   | End of Static Property Section (ABACUS) - |
                   `-------------------------------------------'

 >>>> Total CPU  time used in DALTON:   3.12 seconds
 >>>> Total wall time used in DALTON:   8.39 seconds

 
     Date and time (Linux)  : Mon Oct 21 14:57:42 2013
     Host name              : c10-6.local                             
