

     ************************************************************************
     *************** Dalton - An Electronic Structure Program ***************
     ************************************************************************

    This is output from DALTON (Release Dalton2013 patch 0)
   ----------------------------------------------------------------------------
    NOTE:
     
    Dalton is an experimental code for the evaluation of molecular
    properties using (MC)SCF, DFT, CI, and CC wave functions.
    The authors accept no responsibility for the performance of
    the code or for the correctness of the results.
     
    The code (in whole or part) is provided under a licence and
    is not to be reproduced for further distribution without
    the written permission of the authors or their representatives.
     
    See the home page "http://daltonprogram.org" for further information.
     
    If results obtained with this code are published,
    the appropriate citations would be both of:
     
       K. Aidas, C. Angeli, K. L. Bak, V. Bakken, R. Bast,
       L. Boman, O. Christiansen, R. Cimiraglia, S. Coriani,
       P. Dahle, E. K. Dalskov, U. Ekstroem, T. Enevoldsen,
       J. J. Eriksen, P. Ettenhuber, B. Fernandez, L. Ferrighi,
       H. Fliegl, L. Frediani, K. Hald, A. Halkier, C. Haettig,
       H. Heiberg, T. Helgaker, A. C. Hennum, H. Hettema,
       E. Hjertenaes, S. Hoest, I.-M. Hoeyvik, M. F. Iozzi,
       B. Jansik, H. J. Aa. Jensen, D. Jonsson, P. Joergensen,
       J. Kauczor, S. Kirpekar, T. Kjaergaard, W. Klopper,
       S. Knecht, R. Kobayashi, H. Koch, J. Kongsted, A. Krapp,
       K. Kristensen, A. Ligabue, O. B. Lutnaes, J. I. Melo,
       K. V. Mikkelsen, R. H. Myhre, C. Neiss, C. B. Nielsen,
       P. Norman, J. Olsen, J. M. H. Olsen, A. Osted,
       M. J. Packer, F. Pawlowski, T. B. Pedersen, P. F. Provasi,
       S. Reine, Z. Rinkevicius, T. A. Ruden, K. Ruud, V. Rybkin,
       P. Salek, C. C. M. Samson, A. Sanchez de Meras, T. Saue,
       S. P. A. Sauer, B. Schimmelpfennig, K. Sneskov,
       A. H. Steindal, K. O. Sylvester-Hvid, P. R. Taylor,
       A. M. Teale, E. I. Tellgren, D. P. Tew, A. J. Thorvaldsen,
       L. Thoegersen, O. Vahtras, M. A. Watson, D. J. D. Wilson,
       M. Ziolkowski and H. Agren.
       The Dalton quantum chemistry program system.
       WIREs Comput. Mol. Sci. 2013. doi: 10.1002/wcms.1172
    
    and
    
       Dalton, a Molecular Electronic Structure Program,
       Release DALTON2013.0 (2013), see http://daltonprogram.org
   ----------------------------------------------------------------------------

    Authors in alphabetical order (major contribution(s) in parenthesis):

  Kestutis Aidas,           Vilnius University,           Lithuania   (QM/MM)
  Celestino Angeli,         University of Ferrara,        Italy       (NEVPT2)
  Keld L. Bak,              UNI-C,                        Denmark     (AOSOPPA, non-adiabatic coupling, magnetic properties)
  Vebjoern Bakken,          University of Oslo,           Norway      (DALTON; geometry optimizer, symmetry detection)
  Radovan Bast,             KTH Stockholm                 Sweden      (DALTON installation and execution frameworks)
  Linus Boman,              NTNU,                         Norway      (Cholesky decomposition and subsystems)
  Ove Christiansen,         Aarhus University,            Denmark     (CC module)
  Renzo Cimiraglia,         University of Ferrara,        Italy       (NEVPT2)
  Sonia Coriani,            University of Trieste,        Italy       (CC module, MCD in RESPONS)
  Paal Dahle,               University of Oslo,           Norway      (Parallelization)
  Erik K. Dalskov,          UNI-C,                        Denmark     (SOPPA)
  Thomas Enevoldsen,        Univ. of Southern Denmark,    Denmark     (SOPPA)
  Janus J. Eriksen,         Aarhus University,            Denmark     (PE-MP2/SOPPA, TDA)
  Berta Fernandez,          U. of Santiago de Compostela, Spain       (doublet spin, ESR in RESPONS)
  Lara Ferrighi,            Aarhus University,            Denmark     (PCM Cubic response)
  Heike Fliegl,             University of Oslo,           Norway      (CCSD(R12))
  Luca Frediani,            UiT The Arctic U. of Norway,  Norway      (PCM)
  Bin Gao,                  UiT The Arctic U. of Norway,  Norway      (Gen1Int library)
  Christof Haettig,         Ruhr-University Bochum,       Germany     (CC module)
  Kasper Hald,              Aarhus University,            Denmark     (CC module)
  Asger Halkier,            Aarhus University,            Denmark     (CC module)
  Hanne Heiberg,            University of Oslo,           Norway      (geometry analysis, selected one-electron integrals)
  Trygve Helgaker,          University of Oslo,           Norway      (DALTON; ABACUS, ERI, DFT modules, London, and much more)
  Alf Christian Hennum,     University of Oslo,           Norway      (Parity violation)
  Hinne Hettema,            University of Auckland,       New Zealand (quadratic response in RESPONS; SIRIUS supersymmetry)
  Eirik Hjertenaes,         NTNU,                         Norway      (Cholesky decomposition)
  Maria Francesca Iozzi,    University of Oslo,           Norway      (RPA)
  Brano Jansik              Technical Univ. of Ostrava    Czech Rep.  (DFT cubic response)
  Hans Joergen Aa. Jensen,  Univ. of Southern Denmark,    Denmark     (DALTON; SIRIUS, RESPONS, ABACUS modules, London, and much more)
  Dan Jonsson,              UiT The Arctic U. of Norway,  Norway      (cubic response in RESPONS module)
  Poul Joergensen,          Aarhus University,            Denmark     (RESPONS, ABACUS, and CC modules)
  Joanna Kauczor,           Linkoeping University,        Sweden      (Complex polarization propagator (CPP) module)
  Sheela Kirpekar,          Univ. of Southern Denmark,    Denmark     (Mass-velocity & Darwin integrals)
  Wim Klopper,              KIT Karlsruhe,                Germany     (R12 code in CC, SIRIUS, and ABACUS modules)
  Stefan Knecht,            ETH Zurich,                   Switzerland (Parallel CI and MCSCF)
  Rika Kobayashi,           Australian National Univ.,    Australia   (DIIS in CC, London in MCSCF)
  Henrik Koch,              NTNU,                         Norway      (CC module, Cholesky decomposition)
  Jacob Kongsted,           Univ. of Southern Denmark,    Denmark     (Polarizable embedding, QM/MM)
  Andrea Ligabue,           University of Modena,         Italy       (CTOCD, AOSOPPA)
  Ola B. Lutnaes,           University of Oslo,           Norway      (DFT Hessian)
  Juan I. Melo,             University of Buenos Aires,   Argentina   (LRESC, Relativistic Effects on NMR Shieldings)
  Kurt V. Mikkelsen,        University of Copenhagen,     Denmark     (MC-SCRF and QM/MM)
  Rolf H. Myhre,            NTNU,                         Norway      (Cholesky, subsystems and ECC2)
  Christian Neiss,          Univ. Erlangen-Nuernberg,     Germany     (CCSD(R12))
  Christian B. Nielsen,     University of Copenhagen,     Denmark     (QM/MM)
  Patrick Norman,           Linkoeping University,        Sweden      (Cubic response and complex response in RESPONS)
  Jeppe Olsen,              Aarhus University,            Denmark     (SIRIUS CI/density modules)
  Jogvan Magnus H. Olsen,   Univ. of Southern Denmark,    Denmark     (Polarizable embedding, PE library, QM/MM)
  Anders Osted,             Copenhagen University,        Denmark     (QM/MM)
  Martin J. Packer,         University of Sheffield,      UK          (SOPPA)
  Filip Pawlowski,          Kazimierz Wielki University   Poland      (CC3)
  Thomas B. Pedersen,       University of Oslo,           Norway      (Cholesky decomposition)
  Patricio F. Provasi,      University of Northeastern,   Argentina   (Analysis of coupling constants in localized orbitals)
  Zilvinas Rinkevicius,     KTH Stockholm,                Sweden      (open-shell DFT, ESR)
  Elias Rudberg,            KTH Stockholm,                Sweden      (DFT grid and basis info)
  Torgeir A. Ruden,         University of Oslo,           Norway      (Numerical derivatives in ABACUS)
  Kenneth Ruud,             UiT The Arctic U. of Norway,  Norway      (DALTON; ABACUS magnetic properties and  much more)
  Pawel Salek,              KTH Stockholm,                Sweden      (DALTON; DFT code)
  Claire C. M. Samson       University of Karlsruhe       Germany     (Boys localization, r12 integrals in ERI)
  Alfredo Sanchez de Meras, University of Valencia,       Spain       (CC module, Cholesky decomposition)
  Trond Saue,               Paul Sabatier University,     France      (direct Fock matrix construction)
  Stephan P. A. Sauer,      University of Copenhagen,     Denmark     (SOPPA(CCSD), SOPPA prop., AOSOPPA, vibrational g-factors)
  Bernd Schimmelpfennig,    Forschungszentrum Karlsruhe,  Germany     (AMFI module)
  Kristian Sneskov,         Aarhus University,            Denmark     (QM/MM, PE-CC)
  Arnfinn H. Steindal,      UiT The Arctic U. of Norway,  Norway      (parallel QM/MM)
  K. O. Sylvester-Hvid,     University of Copenhagen,     Denmark     (MC-SCRF)
  Peter R. Taylor,          VLSCI/Univ. of Melbourne,     Australia   (Symmetry handling ABACUS, integral transformation)
  Andrew M. Teale,          University of Nottingham,     England     (DFT-AC, DFT-D)
  David P. Tew,             University of Bristol,        England     (CCSD(R12))
  Olav Vahtras,             KTH Stockholm,                Sweden      (triplet response, spin-orbit, ESR, TDDFT, open-shell DFT)
  David J. Wilson,          La Trobe University,          Australia   (DFT Hessian and DFT magnetizabilities)
  Hans Agren,               KTH Stockholm,                Sweden      (SIRIUS module, RESPONS, MC-SCRF solvation model)
 --------------------------------------------------------------------------------

     Date and time (Linux)  : Sun Sep  8 20:40:08 2013
     Host name              : lpqlx131.ups-tlse.fr                    

 * Work memory size             :    64000000 =  488.28 megabytes.

 * Directories for basis set searches:
   1) /home/bast/DALTON-2013.0-Source/build/test_hfmm_1
   2) /home/bast/DALTON-2013.0-Source/build/basis


Compilation information
-----------------------

 Who compiled             | bast
 Host                     | lpqlx131.ups-tlse.fr
 System                   | Linux-3.8.5-201.fc18.x86_64
 CMake generator          | Unix Makefiles
 Processor                | x86_64
 64-bit integers          | OFF
 MPI                      | OFF
 Fortran compiler         | /usr/bin/gfortran
 Fortran compiler version | GNU Fortran (GCC) 4.7.2 20121109 (Red Hat 4.7.2-8)
 C compiler               | /usr/bin/gcc
 C compiler version       | gcc (GCC) 4.7.2 20121109 (Red Hat 4.7.2-8)
 C++ compiler             | /usr/bin/g++
 C++ compiler version     | g++ (GCC) 4.7.2 20121109 (Red Hat 4.7.2-8)
 Static linking           | OFF
 Last Git revision        | f34203295a86316e27f9e7b44f9b6769c4a046c0
 Configuration time       | 2013-09-08 20:31:27.952056


   Content of the .dal input file
 ----------------------------------

**DALTON                                          
.RUN PROPERTIES                                   
*QM3                                              
.QM3                                              
.PRINT                                            
 1                                                
.THRDIP                                           
 1.0D-12                                          
.MAXDIP                                           
 180                                              
**INTEGRALS                                       
.DIPLEN                                           
.NUCPOT                                           
.NELFLD                                           
.PRINT                                            
 2                                                
**WAVE FUNCTIONS                                  
.HF                                               
*SCF INPUT                                        
.THRESHOLD                                        
 1.0D-12                                          
**PROPERTIES                                      
.EXCITA                                           
*EXCITA                                           
.NEXCIT                                           
 2                                                
.THRESH                                           
 1.0D-9                                           
**END OF DALTON INPUT                             


   Content of the .mol file
 ----------------------------

ATOMBASIS                                                                      
CH2O PLUS 2 WATERS                                                             
------------------------                                                       
    5    0         1 1.00D-12                                                  
        6.0   1    Basis=STO-3G                                                
C           -1.588367    -.770650     .029109 0 1                              
        8.0   1    Basis=STO-3G                                                
O           -1.657083     .436069    -.009750 0 2                              
        1.0   2    Basis=STO-3G                                                
H           -.620668   -1.294822      .054251 0 3                              
H           -2.508043   -1.382001     .040282 0 4                              
   -0.669     2   Basis=MM                                                     
O             .975536    1.507219    -.082590 1 1                              
O            1.633705   -1.233280    -.078786 2 1                              
    0.3345    4   Basis=MM                                                     
H             .023200    1.300096    -.088063 1 2                              
H            1.113831    2.040431     .704778 1 3                              
H            1.600739    -.258639    -.086953 2 2                              
H            2.303878   -1.461228     .570065 2 3                              


       *******************************************************************
       *********** Output from DALTON general input processing ***********
       *******************************************************************

 --------------------------------------------------------------------------------
   Overall default print level:    0
   Print level for DALTON.STAT:    1

    HERMIT 1- and 2-electron integral sections will be executed
    "Old" integral transformation used (limited to max 255 basis functions)
    Wave function sections will be executed (SIRIUS module)
    Static molecular property section will be executed (ABACUS module)
 --------------------------------------------------------------------------------


 Changes of defaults for *QM3   :
 --------------------------------

 +------------------+
 |  WORD: | CHANGE: |
 +------------------+
 |    QM3 |       T |
 | THDISC | 1.0D-12 |
 | MXDIIT |     180 |
 |  PRINT |       1 |
 +------------------+
  Settings for determination of induced dipoles:
  Iterative Method is used
 +------------------+


    *************************************************************************
    *************** Output from MM potential input processing ***************
    *************************************************************************



 ------------------------------------------------------------------------
 | QM-sys type: | Systems:    | Model:  | Electric properties:          |
 ------------------------------------------------------------------------
 |          0   | [   0;   0] | SPC     |     No classical polarization |
 ------------------------------------------------------------------------


 ------------------------------------------------------------------------
 | MM-sys type: | Systems:    | Model:  | Electric properties:          |
 ------------------------------------------------------------------------
 |          1   | [   1;   2] | SPC_E01 | Isotropic polarizability:     |
 |              |             |         | alp( 1)=  9.5010              |
 ------------------------------------------------------------------------




   ****************************************************************************
   *************** Output of molecule and basis set information ***************
   ****************************************************************************


    The two title cards from your ".mol" input:
    ------------------------------------------------------------------------
 1: CH2O PLUS 2 WATERS                                                      
 2: ------------------------                                                
    ------------------------------------------------------------------------

  Coordinates are entered in Angstrom and converted to atomic units.
          - Conversion factor : 1 bohr = 0.52917721 A

  Atomic type no.    1
  --------------------
  Nuclear charge:   6.00000
  Number of symmetry independent centers:    1
  Number of basis sets to read;    2
  The basis set is "STO-3G" from the basis set library.
  Basis set file used for this atomic type with Z =   6 :
     "/home/bast/DALTON-2013.0-Source/build/basis/STO-3G"

  Atomic type no.    2
  --------------------
  Nuclear charge:   8.00000
  Number of symmetry independent centers:    1
  Number of basis sets to read;    2
  The basis set is "STO-3G" from the basis set library.
  Basis set file used for this atomic type with Z =   8 :
     "/home/bast/DALTON-2013.0-Source/build/basis/STO-3G"

  Atomic type no.    3
  --------------------
  Nuclear charge:   1.00000
  Number of symmetry independent centers:    2
  Number of basis sets to read;    2
  The basis set is "STO-3G" from the basis set library.
  Basis set file used for this atomic type with Z =   1 :
     "/home/bast/DALTON-2013.0-Source/build/basis/STO-3G"

  Atomic type no.    4
  --------------------
  Nuclear charge:  -0.66900
  Number of symmetry independent centers:    2
  Number of basis sets to read;    2
  This is an MM atom without basis functions.

  Atomic type no.    5
  --------------------
  Nuclear charge:   0.33450
  Number of symmetry independent centers:    4
  Number of basis sets to read;    2
  This is an MM atom without basis functions.


                         SYMGRP: Point group information
                         -------------------------------

Point group: C1 


                                 Isotopic Masses
                                 ---------------

                           C          12.000000
                           O          15.994915
                           H           1.007825
                           H           1.007825

                       Total mass:    30.010565 amu
                       Natural abundance:  98.633 %

 Center-of-mass coordinates (a.u.):   -3.067740   -0.312997    0.018175


  Atoms and basis sets
  --------------------

  Number of atom types :    6
  Total number of atoms:   12

  label    atoms   charge   prim   cont     basis
  ----------------------------------------------------------------------
  C           1    6.0000    15     5      [6s3p|2s1p]                                        
  O           1    8.0000    15     5      [6s3p|2s1p]                                        
  H           2    1.0000     3     1      [3s|1s]                                            
  O           2   -0.6690     0     0      Point Charge                                       
  H           4    0.3345     0     0      Point Charge                                       
  a           2    0.0000     0     0      Point Charge                                       
  ----------------------------------------------------------------------
  total:     12   16.0000    36    12
  ----------------------------------------------------------------------

  Threshold for neglecting AO integrals:  1.00D-12


  Cartesian Coordinates (a.u.)
  ----------------------------

  Total number of coordinates:   36
  C       :     1  x  -3.0015786160    2  y  -1.4563174382    3  z   0.0550080378
  O       :     4  x  -3.1314330364    5  y   0.8240509816    6  z  -0.0184248297
  H       :     7  x  -1.1728925345    8  y  -2.4468589606    9  z   0.1025195320
  H       :    10  x  -4.7395143797   11  y  -2.6116033945   12  z   0.0761219478


   Interatomic separations (in Angstrom):
   --------------------------------------

            C           O           H           H           O           O     
            ------      ------      ------      ------      ------      ------
 C     :    0.000000
 O     :    1.209298    0.000000
 H     :    1.100831    2.018474    0.000000
 H     :    1.104391    2.007988    1.889439    0.000000
 O     :    3.431437    2.843123    3.227697    4.527473    0.000000
 O     :    3.256903    3.690634    2.259133    4.146127    2.818428    0.000000
 H     :    2.626569    1.891038    2.677390    3.690164    0.974615    3.001967
 H     :    3.957345    3.280624    3.815178    5.027183    0.960931    3.406086
 H     :    3.232031    3.331964    2.455252    4.261481    1.873273    0.975233
 H     :    3.989875    4.430026    2.974344    4.841645    3.316946    0.960260
 a  1  :    3.408645    2.807232    3.219816    4.503294    0.065744    2.847367
 a  2  :    3.285589    3.703418    2.294418    4.182574    2.786761    0.065593

            H           H           H           H           a  1        a  2  
            ------      ------      ------      ------      ------      ------
 H     :    0.000000
 H     :    1.538236    0.000000
 H     :    2.217721    2.479847    0.000000
 H     :    3.641364    3.700807    1.540226    0.000000
 a  1  :    0.935667    0.923012    1.906635    3.343454    0.000000
 a  2  :    2.986623    3.363487    0.936414    0.922570    2.815774    0.000000


  Max    interatomic separation is    2.0185 Angstrom (    3.8144 Bohr)
  between atoms    3 and    2, "H     " and "O     ".

  Min HX interatomic separation is    1.1008 Angstrom (    2.0803 Bohr)

  Min YX interatomic separation is    1.2093 Angstrom (    2.2852 Bohr)

  Max QM+MM interatomic separation is    5.0272 Angstrom (    9.5000 Bohr)
  between the QM+MM centers    8 and    4, "H     " and "H     ".




 Principal moments of inertia (u*A**2) and principal axes
 --------------------------------------------------------

   IA       1.798871         -0.056827    0.997867   -0.032124
   IB      13.009178          0.998345    0.057081    0.007042
   IC      14.808049         -0.008861    0.031671    0.999459


 Rotational constants
 --------------------

 The molecule is planar.

               A                   B                   C

         280942.3015          38847.8806          34128.6681 MHz
            9.371226            1.295826            1.138410 cm-1


@  Nuclear repulsion energy :   31.249215315972 Hartree
      QM3 induced dipole vector converged in  13 iterations.
      Final norm2 of QM3 induced dipole moment vector:    0.020409711895445


    **************************************************************************
    ***************** The MM/MM classical interaction energy *****************
    **************************************************************************


 ------------------------------------------------------------------------
 |  Eelec = Sum_n,s[ (Q_n*Q_s)/|R_n - R_s| ]        |       -0.00626437 |
 |  Epol  = - 1/2*Sum_a[ Pind_a*E^site_a ]          |       -0.00096177 |
 |  Evdw  = Sum_a[ A_ma/|R_ma|^12 - B_ma/|R_ma|^6 ] |        0.00000000 |
 ------------------------------------------------------------------------
 |  E(MM/MM) = Eelec + Epol + Evdw                  |       -0.00722614 |
 ------------------------------------------------------------------------




     ************************************************************************
     *************** The "QM"/MM classical interaction energy ***************
     ************************************************************************


 ------------------------------------------------------------------------
 |  Eelec = Sum_n,s[ (Q_n*Q_s)/|R_n - R_s| ]        |        0.00000000 |
 |  Epol  = - 1/2*Sum_a[ Pind_a*E^(QMclassic)_a ]   |        0.00000000 |
 |  Evdw  = Sum_a[ A_ma/|R_ma|^12 - B_ma/|R_ma|^6 ] |        0.00000000 |
 ------------------------------------------------------------------------
 |  E("QM"/MM) = Eelec + Epol + Evdw                |        0.00000000 |
 ------------------------------------------------------------------------




                     .---------------------------------------.
                     | Starting in Integral Section (HERMIT) |
                     `---------------------------------------'



    *************************************************************************
    ****************** Output from HERMIT input processing ******************
    *************************************************************************


 Default print level:        2

 * Nuclear model: Point charge

 Calculation of one- and two-electron Hamiltonian integrals.

 The following one-electron property integrals are calculated as requested:
          - overlap integrals
          - dipole length integrals
          - Electric field at the nuclei
          - Potential energy at the nuclei

 Center of mass  (bohr):     -3.067740315293     -0.312997395263      0.018174673399
 Operator center (bohr):      0.000000000000      0.000000000000      0.000000000000
 Gauge origin    (bohr):      0.000000000000      0.000000000000      0.000000000000
 Dipole origin   (bohr):      0.000000000000      0.000000000000      0.000000000000


     ************************************************************************
     ************************** Output from HERONE **************************
     ************************************************************************



     ************************************************************************
     ************************** Output from TWOINT **************************
     ************************************************************************


 Threshold for neglecting two-electron integrals:  1.00D-12
 Number of two-electron integrals written:        2907 ( 94.4% )
 Megabytes written:                              0.034

 >>>> Total CPU  time used in HERMIT:   0.02 seconds
 >>>> Total wall time used in HERMIT:   0.02 seconds


                        .----------------------------------.
                        | End of Integral Section (HERMIT) |
                        `----------------------------------'



                   .--------------------------------------------.
                   | Starting in Wave Function Section (SIRIUS) |
                   `--------------------------------------------'


 *** Output from Huckel module :

     Using EWMO model:          F
     Using EHT  model:          T
     Number of Huckel orbitals each symmetry:   12

 Huckel EHT eigenvalues for symmetry :  1
          -20.705291     -11.377081      -1.496925      -0.962689      -0.743251
           -0.672270      -0.593413      -0.504635      -0.350830      -0.253214
           -0.198302      -0.193199

 **********************************************************************
 *SIRIUS* a direct, restricted step, second order MCSCF program       *
 **********************************************************************

 
     Date and time (Linux)  : Sun Sep  8 20:40:08 2013
     Host name              : lpqlx131.ups-tlse.fr                    

 Title lines from ".mol" input file:
     CH2O PLUS 2 WATERS                                                      
     ------------------------                                                

 Print level on unit LUPRI =   2 is   0
 Print level on unit LUW4  =   2 is   5

@    Restricted, closed shell Hartree-Fock calculation.

 Initial molecular orbitals are obtained according to
 ".MOSTART EHT   " input option

@    QM part is embedded in an environment :

@         Model: QM3

     Wave function specification
     ============================
@    For the wave function of type :      >>> HF <<<
@    Number of closed shell electrons          16
@    Number of electrons in active shells       0
@    Total charge of the molecule               0

@    Spin multiplicity and 2 M_S                1         0
     Total number of symmetries                 1
@    Reference state symmetry                   1

     Orbital specifications
     ======================
     Abelian symmetry species          All |    1
                                       --- |  ---
@    Occupied SCF orbitals               8 |    8
     Secondary orbitals                  4 |    4
     Total number of orbitals           12 |   12
     Number of basis functions          12 |   12

     Optimization information
     ========================
@    Number of configurations                 1
@    Number of orbital rotations             32
     ------------------------------------------
@    Total number of variables               33

     Maximum number of Fock   iterations      0
     Maximum number of DIIS   iterations     60
     Maximum number of QC-SCF iterations     60
     Threshold for SCF convergence     1.00D-12


 >>>>> DIIS optimization of Hartree-Fock <<<<<

 C1-DIIS algorithm; max error vectors =   10

 Iter      Total energy       Solvation energy    Error norm    Delta(E)
 -----------------------------------------------------------------------------


     ***********************************************************************
     ************************* Output from FORMSUP *************************
     ***********************************************************************

    Precalculated two-electron integrals are transformed to P-supermatrix elements.
    Threshold for discarding integrals            :  1.00D-12
    Include integrals for general density matrices:         F


          NUMBER OF INTEGRALS READ        2907
          NUMBER OF INTEGRALS SORTED      2907
          NUMBER OF BUFFERS ON LUDASP        2

    TIME IN SUP_SORT :     0.00 SEC.

    TIME IN SUP1  :     0.00 SEC.

    TOTAL TIME    :     0.00 SEC.
      QM3 induced Dipole vector converged in  13 iterations.
      Final norm2 of QM3 induced dipole moment vector:    0.068478740049335
@  1  -112.126403541     -1.770440366844E-02    2.30072D+00   -1.12D+02
      Virial theorem: -V/T =      1.999994
@      MULPOP C       0.99; O      -0.72; H      -0.14; H      -0.14; 
 -----------------------------------------------------------------------------
      QM3 induced Dipole vector converged in  13 iterations.
      Final norm2 of QM3 induced dipole moment vector:    0.024063477740832
@  2  -112.310313994     -2.680445054798E-03    9.04947D-01   -1.84D-01
      Virial theorem: -V/T =      2.011133
@      MULPOP C      -0.39; O       0.18; H       0.12; H       0.09; 
 -----------------------------------------------------------------------------
      QM3 induced Dipole vector converged in  13 iterations.
      Final norm2 of QM3 induced dipole moment vector:    0.045397782305973
@  3  -112.358745327     -1.113623923093E-02    2.09857D-01   -4.84D-02
      Virial theorem: -V/T =      2.007654
@      MULPOP C       0.18; O      -0.32; H       0.08; H       0.05; 
 -----------------------------------------------------------------------------
      QM3 induced Dipole vector converged in  12 iterations.
      Final norm2 of QM3 induced dipole moment vector:    0.040061857165178
@  4  -112.362226972     -9.318762664935E-03    2.01413D-02   -3.48D-03
      Virial theorem: -V/T =      2.008312
@      MULPOP C       0.07; O      -0.22; H       0.09; H       0.06; 
 -----------------------------------------------------------------------------
      QM3 induced Dipole vector converged in   9 iterations.
      Final norm2 of QM3 induced dipole moment vector:    0.040105012416760
@  5  -112.362259124     -9.340070436434E-03    2.19614D-03   -3.22D-05
      Virial theorem: -V/T =      2.008232
@      MULPOP C       0.08; O      -0.23; H       0.09; H       0.06; 
 -----------------------------------------------------------------------------
      QM3 induced Dipole vector converged in   9 iterations.
      Final norm2 of QM3 induced dipole moment vector:    0.040094762110942
@  6  -112.362260003     -9.337135889955E-03    6.39602D-04   -8.79D-07
      Virial theorem: -V/T =      2.008231
@      MULPOP C       0.08; O      -0.23; H       0.09; H       0.06; 
 -----------------------------------------------------------------------------
      QM3 induced Dipole vector converged in   8 iterations.
      Final norm2 of QM3 induced dipole moment vector:    0.040089693229916
@  7  -112.362260142     -9.335425145172E-03    2.41577D-04   -1.39D-07
      Virial theorem: -V/T =      2.008232
@      MULPOP C       0.08; O      -0.23; H       0.09; H       0.06; 
 -----------------------------------------------------------------------------
      QM3 induced Dipole vector converged in   7 iterations.
      Final norm2 of QM3 induced dipole moment vector:    0.040088579867745
@  8  -112.362260166     -9.335065470535E-03    3.33302D-05   -2.36D-08
      Virial theorem: -V/T =      2.008233
@      MULPOP C       0.08; O      -0.23; H       0.09; H       0.06; 
 -----------------------------------------------------------------------------
      QM3 induced Dipole vector converged in   6 iterations.
      Final norm2 of QM3 induced dipole moment vector:    0.040088496163557
@  9  -112.362260167     -9.335046937121E-03    1.89785D-05   -1.59D-09
      Virial theorem: -V/T =      2.008233
@      MULPOP C       0.08; O      -0.23; H       0.09; H       0.06; 
 -----------------------------------------------------------------------------
      QM3 induced Dipole vector converged in   6 iterations.
      Final norm2 of QM3 induced dipole moment vector:    0.040088491028749
@ 10  -112.362260168     -9.335063325573E-03    4.86185D-06   -6.22D-10
      Virial theorem: -V/T =      2.008233
@      MULPOP C       0.08; O      -0.23; H       0.09; H       0.06; 
 -----------------------------------------------------------------------------
      QM3 induced Dipole vector converged in   5 iterations.
      Final norm2 of QM3 induced dipole moment vector:    0.040088496096129
@ 11  -112.362260168     -9.335070732262E-03    5.15052D-07   -6.94D-11
      Virial theorem: -V/T =      2.008233
@      MULPOP C       0.08; O      -0.23; H       0.09; H       0.06; 
 -----------------------------------------------------------------------------
      QM3 induced Dipole vector converged in   3 iterations.
      Final norm2 of QM3 induced dipole moment vector:    0.040088496399598
@ 12  -112.362260168     -9.335070815504E-03    1.98739D-07    5.12D-13
      Virial theorem: -V/T =      2.008233
@      MULPOP C       0.08; O      -0.23; H       0.09; H       0.06; 
 -----------------------------------------------------------------------------
      QM3 induced Dipole vector converged in   2 iterations.
      Final norm2 of QM3 induced dipole moment vector:    0.040088496581399
@ 13  -112.362260168     -9.335070761585E-03    5.40019D-08    3.50D-12
      Virial theorem: -V/T =      2.008233
@      MULPOP C       0.08; O      -0.23; H       0.09; H       0.06; 
 -----------------------------------------------------------------------------
      QM3 induced Dipole vector converged in   3 iterations.
      Final norm2 of QM3 induced dipole moment vector:    0.040088496524645
@ 14  -112.362260168     -9.335070686336E-03    4.84258D-09    1.14D-13
      Virial theorem: -V/T =      2.008233
@      MULPOP C       0.08; O      -0.23; H       0.09; H       0.06; 
 -----------------------------------------------------------------------------
      QM3 induced Dipole vector converged in   2 iterations.
      Final norm2 of QM3 induced dipole moment vector:    0.040088496530757
@ 15  -112.362260168     -9.335070684648E-03    1.16020D-09    1.99D-13
      Virial theorem: -V/T =      2.008233
@      MULPOP C       0.08; O      -0.23; H       0.09; H       0.06; 
 -----------------------------------------------------------------------------
      QM3 induced Dipole vector converged in   2 iterations.
      Final norm2 of QM3 induced dipole moment vector:    0.040088496521182
@ 16  -112.362260168     -9.335070680499E-03    1.45810D-10   -1.71D-13
      Virial theorem: -V/T =      2.008233
@      MULPOP C       0.08; O      -0.23; H       0.09; H       0.06; 
 -----------------------------------------------------------------------------
      QM3 induced Dipole vector converged in   2 iterations.
      Final norm2 of QM3 induced dipole moment vector:    0.040088496522004
@ 17  -112.362260168     -9.335070680763E-03    4.04605D-11    2.84D-14
      Virial theorem: -V/T =      2.008233
@      MULPOP C       0.08; O      -0.23; H       0.09; H       0.06; 
 -----------------------------------------------------------------------------
      QM3 induced Dipole vector converged in   2 iterations.
      Final norm2 of QM3 induced dipole moment vector:    0.040088496521799
@ 18  -112.362260168     -9.335070680669E-03    6.24335D-12   -2.84D-14
      Virial theorem: -V/T =      2.008233
@      MULPOP C       0.08; O      -0.23; H       0.09; H       0.06; 
 -----------------------------------------------------------------------------
      QM3 induced Dipole vector converged in   2 iterations.
      Final norm2 of QM3 induced dipole moment vector:    0.040088496521833
@ 19  -112.362260168     -9.335070680677E-03    1.07475D-12    5.68D-14
      Virial theorem: -V/T =      2.008233
@      MULPOP C       0.08; O      -0.23; H       0.09; H       0.06; 
 -----------------------------------------------------------------------------
      QM3 induced Dipole vector converged in   2 iterations.
      Final norm2 of QM3 induced dipole moment vector:    0.040088496521835
@ 20  -112.362260168     -9.335070680678E-03    1.26878D-13   -2.84D-14

@ *** DIIS converged in  20 iterations !
@     Converged SCF energy, gradient:   -112.362260167937    1.27D-13
    - total time used in SIRFCK :              0.00 seconds


 *** SCF orbital energy analysis ***
    (incl. solvent contribution)

 Only the five lowest virtual orbital energies printed in each symmetry.

 Number of electrons :   16
 Orbital occupations :    8

 Sym       Hartree-Fock orbital energies

  1    -20.30527576   -11.12640425    -1.34614552    -0.80226057    -0.63878022
        -0.55018858    -0.45036821    -0.35656745     0.28323055     0.62789650
         0.75019399     0.92002058

    E(LUMO) :     0.28323055 au (symmetry 1)
  - E(HOMO) :    -0.35656745 au (symmetry 1)
  ------------------------------------------
    gap     :     0.63979800 au

 >>> Writing SIRIFC interface file <<<

 >>>> CPU and wall time for SCF :       0.018       0.018


                       .-----------------------------------.
                       | >>> Final results from SIRIUS <<< |
                       `-----------------------------------'


@    Spin multiplicity:           1
@    Spatial symmetry:            1
@    Total charge of molecule:    0

     QM/MM "QM3" calculation converged :

        Electrostatic energy:      -0.008726038283
        Polarization energy:       -0.000609032397
        van der Waals energy:       0.000000000000
        Total QM/MM energy:        -0.009335070681

@    Final HF energy:            -112.362260167937                 
@    Nuclear repulsion:            31.249215315972
@    Electronic energy:          -143.602140413228

@    Final gradient norm:           0.000000000000

 
     Date and time (Linux)  : Sun Sep  8 20:40:08 2013
     Host name              : lpqlx131.ups-tlse.fr                    

 (Only coefficients >0.0100 are printed.)

 Molecular orbitals for symmetry species  1
 ------------------------------------------

    Orbital         1        2        3        4        5        6        7
   1 C   :1s     0.0005   0.9926  -0.1230  -0.1875  -0.0045   0.0256   0.0001
   2 C   :1s    -0.0074   0.0329   0.2758   0.5862   0.0173  -0.0763   0.0001
   3 C   :2px    0.0004  -0.0001  -0.0086   0.0049   0.5328   0.0144  -0.0066
   4 C   :2py   -0.0064   0.0009   0.1584  -0.2139   0.0144  -0.4530   0.0214
   5 C   :2pz    0.0002  -0.0000  -0.0043   0.0090   0.0058   0.0167   0.5981
   6 O   :1s     0.9943   0.0001  -0.2197   0.1018   0.0015  -0.0892   0.0007
   7 O   :1s     0.0262  -0.0059   0.7685  -0.4462  -0.0043   0.4797  -0.0033
   8 O   :2px    0.0004  -0.0001   0.0158  -0.0016   0.4551  -0.0282  -0.0067
   9 O   :2py   -0.0057   0.0016  -0.1680  -0.1863   0.0315   0.6772   0.0193
  10 O   :2pz    0.0002  -0.0001   0.0065   0.0055   0.0043  -0.0177   0.6839
  11 H   :1s     0.0002  -0.0065   0.0304   0.2493   0.2887   0.1534  -0.0022
  12 H   :1s     0.0003  -0.0065   0.0312   0.2654  -0.2856   0.1757  -0.0009

    Orbital         8        9       10
   1 C   :1s     0.0012  -0.0000   0.2012
   2 C   :1s    -0.0066   0.0013  -1.2607
   3 C   :2px   -0.2007  -0.0074   0.0445
   4 C   :2py    0.0000   0.0264   0.4880
   5 C   :2pz   -0.0028   0.8294  -0.0136
   6 O   :1s     0.0032  -0.0001  -0.0221
   7 O   :1s    -0.0149   0.0004   0.1201
   8 O   :2px    0.8642   0.0073  -0.0095
   9 O   :2py    0.0376  -0.0223  -0.1933
  10 O   :2pz    0.0071  -0.7605   0.0053
  11 H   :1s    -0.3527  -0.0022   0.8532
  12 H   :1s     0.3614  -0.0008   0.9336



 >>>> Total CPU  time used in SIRIUS :      0.02 seconds
 >>>> Total wall time used in SIRIUS :      0.02 seconds

 
     Date and time (Linux)  : Sun Sep  8 20:40:08 2013
     Host name              : lpqlx131.ups-tlse.fr                    

 NOTE:    1 warnings have been issued.
 Check output, result, and error files for "WARNING".


                     .---------------------------------------.
                     | End of Wave Function Section (SIRIUS) |
                     `---------------------------------------'



        *****************************************************************
        ******** Output from **PROPE input processing for ABACUS ********
        *****************************************************************



 The following molecular properties will be calculated in this run:
 ------------------------------------------------------------------

 Default print level:        0

      Electronic excitation energies 
      Natural orbital connection is used
      for perturbation dependent basis sets.


 Changes of defaults for .EXCITA:
 --------------------------------

 Number of excitation energies:    2    0    0    0    0    0    0    0
 Print level          :    0
 Integral print level :    0
 Threshold            : 1.00E-09
 Maximum iterations   :   60

 Center of mass dipole origin  :   -3.067740   -0.312997    0.018175

 Center of mass gauge origin   :   -3.067740   -0.312997    0.018175


                 .------------------------------------------------.
                 | Starting in Static Property Section (ABACUS) - |
                 `------------------------------------------------'


 
     Date and time (Linux)  : Sun Sep  8 20:40:08 2013
     Host name              : lpqlx131.ups-tlse.fr                    

 Integral transformation: Total CPU and WALL times (sec)       0.001       0.002


   ***************************************************************************
   ************************ FINAL RESULTS from ABACUS ************************
   ***************************************************************************


 
     Date and time (Linux)  : Sun Sep  8 20:40:08 2013
     Host name              : lpqlx131.ups-tlse.fr                    


                             Molecular geometry (au)
                             -----------------------

 C         -3.0015786160           -1.4563174382            0.0550080378
 O         -3.1314330364            0.8240509816           -0.0184248297
 H         -1.1728925345           -2.4468589606            0.1025195320
 H         -4.7395143797           -2.6116033945            0.0761219478





                        Molecular wave function and energy
                        ----------------------------------

     Spin multiplicity  1     State number       1     Total charge       0

     Total energy       -112.3622601679 au (Hartrees)
                         -3057.53263213 eV
                           -295007.0686 kJ/mol


                             Relativistic corrections
                             ------------------------

     Darwin correction:                          0.1684639046 au
     Mass-velocity correction:                  -0.2161969335 au

     Total relativistic correction:             -0.0477330289 au (0.0425%)
     Non-relativistic + relativistic energy:  -112.4099931969 au




                                  Dipole moment
                                  -------------

                 au               Debye          C m (/(10**-30)
              0.709359           1.803011           6.014199


                             Dipole moment components
                             ------------------------

                 au               Debye          C m (/(10**-30)

      x      0.08582084         0.21813479         0.72761935
      y     -0.70392496        -1.78919866        -5.96812433
      z      0.01775025         0.04511662         0.15049285


   Units:   1 a.u. =   2.54175 Debye 
            1 a.u. =   8.47835 (10**-30) C m (SI)




                Singlet electronic excitation energies
                --------------------------------------

               ========================================
                 Sym.   Mode   Frequency    Frequency
                ex. st.  No.      (au)         (eV)
               ----------------------------------------
                   1      1     0.158383     4.309819
                   1      2     0.341981     9.305766
               ========================================


   Interatomic separations (in Angstrom):
   --------------------------------------

            C           O           H           H           O           O     
            ------      ------      ------      ------      ------      ------
 C     :    0.000000
 O     :    1.209298    0.000000
 H     :    1.100831    2.018474    0.000000
 H     :    1.104391    2.007988    1.889439    0.000000
 O     :    3.431437    2.843123    3.227697    4.527473    0.000000
 O     :    3.256903    3.690634    2.259133    4.146127    2.818428    0.000000
 H     :    2.626569    1.891038    2.677390    3.690164    0.974615    3.001967
 H     :    3.957345    3.280624    3.815178    5.027183    0.960931    3.406086
 H     :    3.232031    3.331964    2.455252    4.261481    1.873273    0.975233
 H     :    3.989875    4.430026    2.974344    4.841645    3.316946    0.960260
 a  1  :    3.408645    2.807232    3.219816    4.503294    0.065744    2.847367
 a  2  :    3.285589    3.703418    2.294418    4.182574    2.786761    0.065593

            H           H           H           H           a  1        a  2  
            ------      ------      ------      ------      ------      ------
 H     :    0.000000
 H     :    1.538236    0.000000
 H     :    2.217721    2.479847    0.000000
 H     :    3.641364    3.700807    1.540226    0.000000
 a  1  :    0.935667    0.923012    1.906635    3.343454    0.000000
 a  2  :    2.986623    3.363487    0.936414    0.922570    2.815774    0.000000


  Max    interatomic separation is    2.0185 Angstrom (    3.8144 Bohr)
  between atoms    3 and    2, "H     " and "O     ".

  Min HX interatomic separation is    1.1008 Angstrom (    2.0803 Bohr)

  Min YX interatomic separation is    1.2093 Angstrom (    2.2852 Bohr)

  Max QM+MM interatomic separation is    5.0272 Angstrom (    9.5000 Bohr)
  between the QM+MM centers    8 and    4, "H     " and "H     ".




 CPU time statistics for ABACUS
 ------------------------------




 >>>> Total CPU  time used in ABACUS:   0.04 seconds
 >>>> Total wall time used in ABACUS:   0.04 seconds


                   .-------------------------------------------.
                   | End of Static Property Section (ABACUS) - |
                   `-------------------------------------------'

 >>>> Total CPU  time used in DALTON:   0.09 seconds
 >>>> Total wall time used in DALTON:   0.09 seconds

 
     Date and time (Linux)  : Sun Sep  8 20:40:08 2013
     Host name              : lpqlx131.ups-tlse.fr                    
