

     ************************************************************************
     *************** Dalton - An Electronic Structure Program ***************
     ************************************************************************

    This is output from DALTON release Dalton2017.alpha (2016)
         ( Web site: http://daltonprogram.org )

   ----------------------------------------------------------------------------

    NOTE:
     
    Dalton is an experimental code for the evaluation of molecular
    properties using (MC)SCF, DFT, CI, and CC wave functions.
    The authors accept no responsibility for the performance of
    the code or for the correctness of the results.
     
    The code (in whole or part) is provided under a licence and
    is not to be reproduced for further distribution without
    the written permission of the authors or their representatives.
     
    See the home page "http://daltonprogram.org" for further information.
     
    If results obtained with this code are published,
    the appropriate citations would be both of:
     
       K. Aidas, C. Angeli, K. L. Bak, V. Bakken, R. Bast,
       L. Boman, O. Christiansen, R. Cimiraglia, S. Coriani,
       P. Dahle, E. K. Dalskov, U. Ekstroem,
       T. Enevoldsen, J. J. Eriksen, P. Ettenhuber, B. Fernandez,
       L. Ferrighi, H. Fliegl, L. Frediani, K. Hald, A. Halkier,
       C. Haettig, H. Heiberg, T. Helgaker, A. C. Hennum,
       H. Hettema, E. Hjertenaes, S. Hoest, I.-M. Hoeyvik,
       M. F. Iozzi, B. Jansik, H. J. Aa. Jensen, D. Jonsson,
       P. Joergensen, J. Kauczor, S. Kirpekar,
       T. Kjaergaard, W. Klopper, S. Knecht, R. Kobayashi, H. Koch,
       J. Kongsted, A. Krapp, K. Kristensen, A. Ligabue,
       O. B. Lutnaes, J. I. Melo, K. V. Mikkelsen, R. H. Myhre,
       C. Neiss, C. B. Nielsen, P. Norman, J. Olsen,
       J. M. H. Olsen, A. Osted, M. J. Packer, F. Pawlowski,
       T. B. Pedersen, P. F. Provasi, S. Reine, Z. Rinkevicius,
       T. A. Ruden, K. Ruud, V. Rybkin, P. Salek, C. C. M. Samson,
       A. Sanchez de Meras, T. Saue, S. P. A. Sauer,
       B. Schimmelpfennig, K. Sneskov, A. H. Steindal,
       K. O. Sylvester-Hvid, P. R. Taylor, A. M. Teale,
       E. I. Tellgren, D. P. Tew, A. J. Thorvaldsen, L. Thoegersen,
       O. Vahtras, M. A. Watson, D. J. D. Wilson, M. Ziolkowski
       and H. Agren,
       "The Dalton quantum chemistry program system",
       WIREs Comput. Mol. Sci. 2014, 4:269–284 (doi: 10.1002/wcms.1172)
     
    and
     
       Dalton, a Molecular Electronic Structure Program,
       Release Dalton2017.alpha (2016), see http://daltonprogram.org
   ----------------------------------------------------------------------------

    Authors in alphabetical order (major contribution(s) in parenthesis):

  Kestutis Aidas,           Vilnius University,           Lithuania   (QM/MM)
  Celestino Angeli,         University of Ferrara,        Italy       (NEVPT2)
  Keld L. Bak,              UNI-C,                        Denmark     (AOSOPPA, non-adiabatic coupling, magnetic properties)
  Vebjoern Bakken,          University of Oslo,           Norway      (DALTON; geometry optimizer, symmetry detection)
  Radovan Bast,             UiT The Arctic U. of Norway,  Norway      (DALTON installation and execution frameworks)
  Pablo Baudin,             University of Valencia,       Spain       (Cholesky excitation energies)
  Linus Boman,              NTNU,                         Norway      (Cholesky decomposition and subsystems)
  Ove Christiansen,         Aarhus University,            Denmark     (CC module)
  Renzo Cimiraglia,         University of Ferrara,        Italy       (NEVPT2)
  Sonia Coriani,            University of Trieste,        Italy       (CC module, MCD in RESPONS)
  Janusz Cukras,            University of Trieste,        Italy       (MChD in RESPONS)
  Paal Dahle,               University of Oslo,           Norway      (Parallelization)
  Erik K. Dalskov,          UNI-C,                        Denmark     (SOPPA)
  Thomas Enevoldsen,        Univ. of Southern Denmark,    Denmark     (SOPPA)
  Janus J. Eriksen,         Aarhus University,            Denmark     (Polarizable embedding model, TDA)
  Rasmus Faber,             University of Copenhagen,     Denmark     (Vib.avg. NMR with SOPPA, parallel AO-SOPPA)
  Berta Fernandez,          U. of Santiago de Compostela, Spain       (doublet spin, ESR in RESPONS)
  Lara Ferrighi,            Aarhus University,            Denmark     (PCM Cubic response)
  Heike Fliegl,             University of Oslo,           Norway      (CCSD(R12))
  Luca Frediani,            UiT The Arctic U. of Norway,  Norway      (PCM)
  Bin Gao,                  UiT The Arctic U. of Norway,  Norway      (Gen1Int library)
  Christof Haettig,         Ruhr-University Bochum,       Germany     (CC module)
  Kasper Hald,              Aarhus University,            Denmark     (CC module)
  Asger Halkier,            Aarhus University,            Denmark     (CC module)
  Frederik Beyer Hansen,    University of Copenhagen,     Denmark     (Parallel AO-SOPPA)
  Erik D. Hedegaard,        Univ. of Southern Denmark,    Denmark     (Polarizable embedding model, QM/MM)
  Hanne Heiberg,            University of Oslo,           Norway      (geometry analysis, selected one-electron integrals)
  Trygve Helgaker,          University of Oslo,           Norway      (DALTON; ABACUS, ERI, DFT modules, London, and much more)
  Alf Christian Hennum,     University of Oslo,           Norway      (Parity violation)
  Hinne Hettema,            University of Auckland,       New Zealand (quadratic response in RESPONS; SIRIUS supersymmetry)
  Eirik Hjertenaes,         NTNU,                         Norway      (Cholesky decomposition)
  Pi A. B. Haase,           University of Copenhagen,     Denmark     (Triplet AO-SOPPA)
  Maria Francesca Iozzi,    University of Oslo,           Norway      (RPA)
  Brano Jansik              Technical Univ. of Ostrava    Czech Rep.  (DFT cubic response)
  Hans Joergen Aa. Jensen,  Univ. of Southern Denmark,    Denmark     (DALTON; SIRIUS, RESPONS, ABACUS modules, London, and much more)
  Dan Jonsson,              UiT The Arctic U. of Norway,  Norway      (cubic response in RESPONS module)
  Poul Joergensen,          Aarhus University,            Denmark     (RESPONS, ABACUS, and CC modules)
  Maciej Kaminski,          University of Warsaw,         Poland      (CPPh in RESPONS)
  Joanna Kauczor,           Linkoeping University,        Sweden      (Complex polarization propagator (CPP) module)
  Sheela Kirpekar,          Univ. of Southern Denmark,    Denmark     (Mass-velocity & Darwin integrals)
  Wim Klopper,              KIT Karlsruhe,                Germany     (R12 code in CC, SIRIUS, and ABACUS modules)
  Stefan Knecht,            ETH Zurich,                   Switzerland (Parallel CI and MCSCF)
  Rika Kobayashi,           Australian National Univ.,    Australia   (DIIS in CC, London in MCSCF)
  Henrik Koch,              NTNU,                         Norway      (CC module, Cholesky decomposition)
  Jacob Kongsted,           Univ. of Southern Denmark,    Denmark     (Polarizable embedding model, QM/MM)
  Andrea Ligabue,           University of Modena,         Italy       (CTOCD, AOSOPPA)
  Nanna H. List             Univ. of Southern Denmark,    Denmark     (Polarizable embedding model)
  Ola B. Lutnaes,           University of Oslo,           Norway      (DFT Hessian)
  Juan I. Melo,             University of Buenos Aires,   Argentina   (LRESC, Relativistic Effects on NMR Shieldings)
  Kurt V. Mikkelsen,        University of Copenhagen,     Denmark     (MC-SCRF and QM/MM)
  Rolf H. Myhre,            NTNU,                         Norway      (Cholesky, subsystems and ECC2)
  Christian Neiss,          Univ. Erlangen-Nuernberg,     Germany     (CCSD(R12))
  Christian B. Nielsen,     University of Copenhagen,     Denmark     (QM/MM)
  Patrick Norman,           Linkoeping University,        Sweden      (Cubic response and complex frequency response in RESPONS)
  Jeppe Olsen,              Aarhus University,            Denmark     (SIRIUS CI/density modules)
  Jogvan Magnus H. Olsen,   Univ. of Southern Denmark,    Denmark     (Polarizable embedding model, QM/MM)
  Anders Osted,             Copenhagen University,        Denmark     (QM/MM)
  Martin J. Packer,         University of Sheffield,      UK          (SOPPA)
  Filip Pawlowski,          Kazimierz Wielki University,  Poland      (CC3)
  Morten N. Pedersen,       Univ. of Southern Denmark,    Denmark     (Polarizable embedding model)
  Thomas B. Pedersen,       University of Oslo,           Norway      (Cholesky decomposition)
  Patricio F. Provasi,      University of Northeastern,   Argentina   (Analysis of coupling constants in localized orbitals)
  Zilvinas Rinkevicius,     KTH Stockholm,                Sweden      (open-shell DFT, ESR)
  Elias Rudberg,            KTH Stockholm,                Sweden      (DFT grid and basis info)
  Torgeir A. Ruden,         University of Oslo,           Norway      (Numerical derivatives in ABACUS)
  Kenneth Ruud,             UiT The Arctic U. of Norway,  Norway      (DALTON; ABACUS magnetic properties and much more)
  Pawel Salek,              KTH Stockholm,                Sweden      (DALTON; DFT code)
  Claire C. M. Samson       University of Karlsruhe       Germany     (Boys localization, r12 integrals in ERI)
  Alfredo Sanchez de Meras, University of Valencia,       Spain       (CC module, Cholesky decomposition)
  Trond Saue,               Paul Sabatier University,     France      (direct Fock matrix construction)
  Stephan P. A. Sauer,      University of Copenhagen,     Denmark     (SOPPA(CCSD), SOPPA prop., AOSOPPA, vibrational g-factors)
  Bernd Schimmelpfennig,    Forschungszentrum Karlsruhe,  Germany     (AMFI module)
  Kristian Sneskov,         Aarhus University,            Denmark     (Polarizable embedding model, QM/MM)
  Arnfinn H. Steindal,      UiT The Arctic U. of Norway,  Norway      (parallel QM/MM, Polarizable embedding model)
  Casper Steinmann,         Univ. of Southern Denmark,    Denmark     (QFIT, Polarizable embedding model)
  K. O. Sylvester-Hvid,     University of Copenhagen,     Denmark     (MC-SCRF)
  Peter R. Taylor,          VLSCI/Univ. of Melbourne,     Australia   (Symmetry handling ABACUS, integral transformation)
  Andrew M. Teale,          University of Nottingham,     England     (DFT-AC, DFT-D)
  David P. Tew,             University of Bristol,        England     (CCSD(R12))
  Olav Vahtras,             KTH Stockholm,                Sweden      (triplet response, spin-orbit, ESR, TDDFT, open-shell DFT)
  David J. Wilson,          La Trobe University,          Australia   (DFT Hessian and DFT magnetizabilities)
  Hans Agren,               KTH Stockholm,                Sweden      (SIRIUS module, RESPONS, MC-SCRF solvation model)
 --------------------------------------------------------------------------------

     Date and time (Linux)  : Wed Feb 15 12:28:06 2017
     Host name              : TESD11                                  

 * Work memory size             :    64000000 =  488.28 megabytes.

 * Directories for basis set searches:
   1) /home/rasmus/source/dalton/build/test/prop_exci_ao
   2) /home/rasmus/source/dalton/build/basis


Compilation information
-----------------------

 Who compiled             | rasmus
 Host                     | TESD11
 System                   | Linux-3.13.0-85-generic
 CMake generator          | Unix Makefiles
 Processor                | x86_64
 64-bit integers          | OFF
 MPI                      | OFF
 Fortran compiler         | /usr/bin/gfortran
 Fortran compiler version | GNU Fortran (Ubuntu 4.8.4-2ubuntu1~14.04.3) 4.8.4
 C compiler               | /usr/bin/gcc
 C compiler version       | gcc (Ubuntu 4.8.4-2ubuntu1~14.04.3) 4.8.4
 C++ compiler             | /usr/bin/g++
 C++ compiler version     | g++ (Ubuntu 4.8.4-2ubuntu1~14.04.3) 4.8.4
 Static linking           | OFF
 Last Git revision        | 91645032c965e11aa26b4092e270c21d9ce41180
 Git branch               | aosoppa_devel
 Configuration time       | 2017-02-15 12:01:11.611345


   Content of the .dal input file
 ----------------------------------

**DALTON INPUT
.RUN PROPERTIES
**WAVE FUNCTIONS
.HF
.CC
*CC INPUT
.MP2
.CC2
.CCSD
.AO-SOPPA
**PROPERTIES
.SOPPA
.EXCITA
.PRINT
 2
*SOPPA
.AORPA
.DCRPA
.AOSOP
.AOCC2
.AOSOC
.NSAVMX
 4
.NEXCI2
   0    1    0    0    0    0    0    0
*EXCITA
.DIPSTR
.ROTVEL
.NEXCITA
    5    6    5    5    0    0    0    0
**END OF DALTON INPUT


   Content of the .mol file
 ----------------------------

INTGRL
Calculation of excitation energies through ABACUS

c   2    2  X  Y      0.10D-14
      8.00    1    3    6    5    1
O   0.00000             0.00000              0.1241444240
F  6    1
31195.6 0.00021
4669.38 0.001628
1062.62 0.00845
301.426 0.034191
98.5153 0.110311
35.4609 .269493
F  1    1
13.6179 .423545
F  1    1
5.38618 .283038
F  1    1
1.53873 .027484
F  1    1
.6055 -.005144
F  1    1
.22054 .00164
F  3    1
114.863 .002266
26.8767 0.017192
8.32077 0.075341
F  1    1
2.97237 .212775
F  1    1
1.12848 .370478
F  1    1
.4236 .398523
F  1    1
.15074 .184703
F  2    1
1.21879 .357851
.36102 .759561
      1.00    1    2    3    1
H   0.00000             1.43153              -0.985265576
F  3    1
33.865014 .006068
5.094788 0.045316
1.158786 0.202846
F  1    1
0.32584 0.503709
F  1    1
.102741 .383568
F  1    1
1.16 1.0


       *******************************************************************
       *********** Output from DALTON general input processing ***********
       *******************************************************************

 --------------------------------------------------------------------------------
   Overall default print level:    0
   Print level for DALTON.STAT:    1

    HERMIT 1- and 2-electron integral sections will be executed
    "Old" integral transformation used (limited to max 255 basis functions)
    Wave function sections will be executed (SIRIUS module)
    Static molecular property section will be executed (ABACUS module)
 --------------------------------------------------------------------------------


   ****************************************************************************
   *************** Output of molecule and basis set information ***************
   ****************************************************************************


    The two title cards from your ".mol" input:
    ------------------------------------------------------------------------
 1: Calculation of excitation energies through ABACUS                       
 2:                                                                         
    ------------------------------------------------------------------------



@ WARNING - deprecated old .mol fixed format input has been detected:
C   2    2  X  Y      0.10D-14                                                  
@ WARNING - this input format may not be supported in future releases.




  Atomic type no.    1
  --------------------
  Nuclear charge:   8.00000
  Number of symmetry independent centers:    1
  Number of basis sets to read;    2

  Atomic type no.    2
  --------------------
  Nuclear charge:   1.00000
  Number of symmetry independent centers:    1
  Number of basis sets to read;    2


                         SYMGRP: Point group information
                         -------------------------------

@    Point group: C2v

@  * The irrep name for each symmetry:    1: A1     2: B1     3: B2     4: A2 

   * The point group was generated by:

      Reflection in the yz-plane
      Reflection in the xz-plane

   * Group multiplication table

        |  E   C2z  Oxz  Oyz
   -----+--------------------
     E  |  E   C2z  Oxz  Oyz
    C2z | C2z   E   Oyz  Oxz
    Oxz | Oxz  Oyz   E   C2z
    Oyz | Oyz  Oxz  C2z   E 

   * Character table

        |  E   C2z  Oxz  Oyz
   -----+--------------------
    A1  |   1    1    1    1
    B1  |   1   -1    1   -1
    B2  |   1   -1   -1    1
    A2  |   1    1   -1   -1

   * Direct product table

        | A1   B1   B2   A2 
   -----+--------------------
    A1  | A1   B1   B2   A2 
    B1  | B1   A1   A2   B2 
    B2  | B2   A2   A1   B1 
    A2  | A2   B2   B1   A1 


                                 Isotopic Masses
                                 ---------------

                           O          15.994915
                           H   _1      1.007825
                           H   _2      1.007825

                       Total mass:    18.010565 amu
                       Natural abundance:  99.730 %

 Center-of-mass coordinates (a.u.):    0.000000    0.000000   -0.000015


  Atoms and basis sets
  --------------------

  Number of atom types :    2
  Total number of atoms:    3

  label    atoms   charge   prim   cont     basis
  ----------------------------------------------------------------------
  O           1    8.0000    44    27      [11s7p2d|6s5p1d]                                   
  H           2    1.0000     8     6      [5s1p|3s1p]                                        
  ----------------------------------------------------------------------
  total:      3   10.0000    60    39
  ----------------------------------------------------------------------
  Cartesian basis used.
  (Note that d, f, ... atomic GTOs are not all normalized.)

  Threshold for neglecting AO integrals:  1.00D-15


  Cartesian Coordinates (a.u.)
  ----------------------------

  Total number of coordinates:    9
  O       :     1  x   0.0000000000    2  y   0.0000000000    3  z   0.1241444240
  H   / 1 :     4  x   0.0000000000    5  y   1.4315300000    6  z  -0.9852655760
  H   / 2 :     7  x   0.0000000000    8  y  -1.4315300000    9  z  -0.9852655760


  Symmetry Coordinates
  --------------------

  Number of coordinates in each symmetry:     3    2    3    1

  Symmetry  A1  ( 1)

    1   O     z    3
    2   H     y    [  5  -    8 ]/2
    3   H     z    [  6  +    9 ]/2

  Symmetry  B1  ( 2)

    4   O     x    1
    5   H     x    [  4  +    7 ]/2

  Symmetry  B2  ( 3)

    6   O     y    2
    7   H     y    [  5  +    8 ]/2
    8   H     z    [  6  -    9 ]/2

  Symmetry  A2  ( 4)

    9   H     x    [  4  -    7 ]/2


   Interatomic separations (in Angstrom):
   --------------------------------------

            O           H   _1      H   _2
            ------      ------      ------
 O     :    0.000000
 H   _1:    0.958391    0.000000
 H   _2:    0.958391    1.515066    0.000000


  Max    interatomic separation is    1.5151 Angstrom (    2.8631 Bohr)
  between atoms    3 and    2, "H   _2" and "H   _1".

  Min HX interatomic separation is    0.9584 Angstrom (    1.8111 Bohr)


  Bond distances (Angstrom):
  --------------------------

                  atom 1     atom 2       distance
                  ------     ------       --------
  bond distance:  H   _1     O            0.958391
  bond distance:  H   _2     O            0.958391


  Bond angles (degrees):
  ----------------------

                  atom 1     atom 2     atom 3         angle
                  ------     ------     ------         -----
  bond angle:     H   _1     O          H   _2       104.450




 Principal moments of inertia (u*A**2) and principal axes
 --------------------------------------------------------

   IA       0.616959          0.000000    1.000000    0.000000
   IB       1.156694          0.000000    0.000000    1.000000
   IC       1.773652          1.000000    0.000000    0.000000


 Rotational constants
 --------------------

@    The molecule is planar.

               A                   B                   C

         819145.5126         436916.9575         284936.9149 MHz
           27.323753           14.573981            9.504472 cm-1


@  Nuclear repulsion energy :    9.183706230245 Hartree


  Symmetry Orbitals
  -----------------

  Number of orbitals in each symmetry:          19    7   11    2


  Symmetry  A1 ( 1)

    1     O        s          1
    2     O        s          2
    3     O        s          3
    4     O        s          4
    5     O        s          5
    6     O        s          6
    7     O        pz         9
    8     O        pz        12
    9     O        pz        15
   10     O        pz        18
   11     O        pz        21
   12     O        dxx       22
   13     O        dyy       25
   14     O        dzz       27
   15     H        s         28 +   29
   16     H        s         30 +   31
   17     H        s         32 +   33
   18     H        py        36 -   37
   19     H        pz        38 +   39


  Symmetry  B1 ( 2)

   20     O        px         7
   21     O        px        10
   22     O        px        13
   23     O        px        16
   24     O        px        19
   25     O        dxz       24
   26     H        px        34 +   35


  Symmetry  B2 ( 3)

   27     O        py         8
   28     O        py        11
   29     O        py        14
   30     O        py        17
   31     O        py        20
   32     O        dyz       26
   33     H        s         28 -   29
   34     H        s         30 -   31
   35     H        s         32 -   33
   36     H        py        36 +   37
   37     H        pz        38 -   39


  Symmetry  A2 ( 4)

   38     O        dxy       23
   39     H        px        34 -   35

  Symmetries of electric field:  B1 (2)  B2 (3)  A1 (1)

  Symmetries of magnetic field:  B2 (3)  B1 (2)  A2 (4)


                     .---------------------------------------.
                     | Starting in Integral Section (HERMIT) |
                     `---------------------------------------'



 ***************************************************************************************
 ****************** Output from **INTEGRALS input processing (HERMIT) ******************
 ***************************************************************************************


 - Using defaults, no **INTEGRALS input found

 Default print level:        1

 * Nuclear model: Point charge

 Calculation of one- and two-electron Hamiltonian integrals.

 Center of mass  (bohr):      0.000000000000      0.000000000000     -0.000015049426
 Operator center (bohr):      0.000000000000      0.000000000000      0.000000000000
 Gauge origin    (bohr):      0.000000000000      0.000000000000      0.000000000000
 Dipole origin   (bohr):      0.000000000000      0.000000000000      0.000000000000


     ************************************************************************
     ************************** Output from HERINT **************************
     ************************************************************************


 Threshold for neglecting two-electron integrals:  1.00D-15
 HERMIT - Number of two-electron integrals written:       75206 ( 24.7% )
 HERMIT - Megabytes written:                              0.866

  Time used in TWOINT     is       0.12 seconds
  Total CPU  time used in HERMIT:   0.13 seconds
  Total wall time used in HERMIT:   0.13 seconds


                        .----------------------------------.
                        | End of Integral Section (HERMIT) |
                        `----------------------------------'



                   .--------------------------------------------.
                   | Starting in Wave Function Section (SIRIUS) |
                   `--------------------------------------------'


 *** Output from Huckel module :

     Using EWMO model:          F
     Using EHT  model:          T
     Number of Huckel orbitals each symmetry:    4    1    2    0

 Huckel EHT eigenvalues for symmetry :  1
          -20.705520      -1.505990      -0.670643      -0.292535

 Huckel EHT eigenvalues for symmetry :  2
           -0.616200

 Huckel EHT eigenvalues for symmetry :  3
           -0.731199      -0.257813

 **********************************************************************
 *SIRIUS* a direct, restricted step, second order MCSCF program       *
 **********************************************************************

 
     Date and time (Linux)  : Wed Feb 15 12:28:06 2017
     Host name              : TESD11                                  

 Title lines from ".mol" input file:
     Calculation of excitation energies through ABACUS                       
                                                                             

 Print level on unit LUPRI =   2 is   0
 Print level on unit LUW4  =   2 is   5

@    (Integral direct) CC calculation.

@    This is a combination run starting with
@              a restricted, closed shell Hartree-Fock calculation


 Initial molecular orbitals are obtained according to
 ".MOSTART EHT   " input option

     Wave function specification
     ============================

     For the specification of the Coupled Cluster: see later.

@    Wave function type        --- CC ---
@    Number of closed shell electrons          10
@    Number of electrons in active shells       0
@    Total charge of the molecule               0

@    Spin multiplicity and 2 M_S                1         0
@    Total number of symmetries                 4 (point group: C2v)
@    Reference state symmetry                   1 (irrep name : A1 )

     Orbital specifications
     ======================
@    Abelian symmetry species          All |    1    2    3    4
@                                          |  A1   B1   B2   A2 
                                       --- |  ---  ---  ---  ---
@    Total number of orbitals           39 |   19    7   11    2
@    Number of basis functions          39 |   19    7   11    2

      ** Automatic occupation of RHF orbitals **

      -- Initial occupation of symmetries is determined from extended Huckel guess.           
      -- Initial occupation of symmetries is :
@    Occupied SCF orbitals               5 |    3    1    1    0

     Maximum number of Fock   iterations      0
     Maximum number of DIIS   iterations     60
     Maximum number of QC-SCF iterations     60
     Threshold for SCF convergence     1.00D-06


 Changes of defaults for CC:
 ---------------------------


 MP2 Amplitudes written for atom integral direct SOPPA calculations
  


 ***********************************************
 ***** DIIS acceleration of SCF iterations *****
 ***********************************************

 C1-DIIS algorithm; max error vectors =    8

 Automatic occupation of symmetries with  10 electrons.

 Iter     Total energy    Error norm  Delta(E)    SCF occupation
 -----------------------------------------------------------------------------
 Calculating AOSUPINT
     (Precalculated two-electron integrals are transformed to P-supermatrix elements.
      Threshold for discarding integrals :  1.00D-15 )
@  1  -75.8289971698       2.45D+00  -7.58D+01     3   1   1   0
      Virial theorem: -V/T =      1.995901
@      MULPOP O      -0.57; H   _1  0.28; H   _2  0.28; 
   1  Level shift: doubly occupied orbital energies shifted by -2.00D-01
 -----------------------------------------------------------------------------
@  2  -76.0477191037       4.04D-01  -2.19D-01     3   1   1   0
      Virial theorem: -V/T =      2.001925
@      MULPOP O      -0.76; H   _1  0.38; H   _2  0.38; 
   2  Level shift: doubly occupied orbital energies shifted by -5.00D-02
 -----------------------------------------------------------------------------
@  3  -76.0596167013       1.04D-01  -1.19D-02     3   1   1   0
      Virial theorem: -V/T =      2.001234
@      MULPOP O      -0.81; H   _1  0.40; H   _2  0.40; 
   3  Level shift: doubly occupied orbital energies shifted by -2.50D-02
 -----------------------------------------------------------------------------
@  4  -76.0607459910       1.62D-02  -1.13D-03     3   1   1   0
      Virial theorem: -V/T =      2.000745
@      MULPOP O      -0.83; H   _1  0.41; H   _2  0.41; 
 -----------------------------------------------------------------------------
@  5  -76.0607821294       4.23D-03  -3.61D-05     3   1   1   0
      Virial theorem: -V/T =      2.000842
@      MULPOP O      -0.83; H   _1  0.41; H   _2  0.41; 
 -----------------------------------------------------------------------------
@  6  -76.0607839031       1.99D-03  -1.77D-06     3   1   1   0
      Virial theorem: -V/T =      2.000771
@      MULPOP O      -0.83; H   _1  0.42; H   _2  0.42; 
 -----------------------------------------------------------------------------
@  7  -76.0607842040       3.09D-04  -3.01D-07     3   1   1   0
      Virial theorem: -V/T =      2.000810
@      MULPOP O      -0.83; H   _1  0.42; H   _2  0.42; 
 -----------------------------------------------------------------------------
@  8  -76.0607842184       4.49D-05  -1.44D-08     3   1   1   0
      Virial theorem: -V/T =      2.000809
@      MULPOP O      -0.83; H   _1  0.42; H   _2  0.42; 
 -----------------------------------------------------------------------------
@  9  -76.0607842187       9.49D-06  -2.34D-10     3   1   1   0
      Virial theorem: -V/T =      2.000810
@      MULPOP O      -0.83; H   _1  0.42; H   _2  0.42; 
 -----------------------------------------------------------------------------
@ 10  -76.0607842187       1.81D-06  -1.22D-11     3   1   1   0
      Virial theorem: -V/T =      2.000810
@      MULPOP O      -0.83; H   _1  0.42; H   _2  0.42; 
 -----------------------------------------------------------------------------
@ 11  -76.0607842187       4.60D-07  -5.97D-13     3   1   1   0

@ *** DIIS converged in  11 iterations !
@     Converged SCF energy, gradient:    -76.060784218682    4.60D-07
    - total time used in SIRFCK :              0.00 seconds


 *** SCF orbital energy analysis ***

 Only the 20 lowest virtual orbital energies printed in each symmetry.

 Number of electrons :   10
 Orbital occupations :    3    1    1    0

 Sym       Hartree-Fock orbital energies

1 A1    -20.56238099    -1.35070292    -0.58322552     0.13488236     0.46314710
          0.61795220     0.96390625     1.24752064     1.69113077     2.01359248
          2.63200618     3.49717243     3.65989625     4.20360190     6.56227717
          7.19443823    20.57248744    23.27802619    94.32736808

2 B1     -0.50745990     0.47365390     1.30684668     2.03588081     3.06713277
          6.59507911    23.12059735

3 B2     -0.71596732     0.19111002     0.50061393     0.67340606     1.74928910
          2.12363466     2.66276194     3.17158895     4.26606044     6.89290269
         23.35853257

4 A2      1.26154317     2.98152149

    E(LUMO) :     0.13488236 au (symmetry 1)
  - E(HOMO) :    -0.50745990 au (symmetry 2)
  ------------------------------------------
    gap     :     0.64234226 au

 --- Writing SIRIFC interface file

 CPU and wall time for SCF :       0.014       0.013


                       .-----------------------------------.
                       | --- Final results from SIRIUS --- |
                       `-----------------------------------'


@    Spin multiplicity:           1
@    Spatial symmetry:            1 ( irrep  A1  in C2v )
@    Total charge of molecule:    0

@    Final HF energy:             -76.060784218682                 
@    Nuclear repulsion:             9.183706230245
@    Electronic energy:           -85.244490448927

@    Final gradient norm:           0.000000459675

 
     Date and time (Linux)  : Wed Feb 15 12:28:06 2017
     Host name              : TESD11                                  


 INFO: Sorry, plot of MOs with Molden is only implemented for spherical GTOs

File label for MO orbitals:  15Feb17   FOCKDIIS

 (Only coefficients > 0.0100 are printed.)

 Molecular orbitals for symmetry species 1  (A1 )
 ------------------------------------------------

    Orbital         1        2        3        4        5        6        7
   1 O   :s      0.3905  -0.0859  -0.0284   0.0258   0.0135  -0.0243  -0.0527
   2 O   :s      0.4237  -0.1378  -0.0459   0.0378   0.0306  -0.0418  -0.1024
   3 O   :s      0.2819  -0.1215  -0.0431   0.0497  -0.0041  -0.0322  -0.0455
   4 O   :s      0.0265   0.2173   0.0651  -0.2180  -0.2033  -0.0920  -0.7995
   5 O   :s      0.0055  -0.5023  -0.2007  -0.1581  -0.0657  -0.4170  -2.7662
   6 O   :s      0.0155   0.1756   0.2265  -0.9082  -0.1321   1.2037  -2.0988
   7 O   :pz    -0.0012  -0.0103   0.0721   0.0191  -0.0321  -0.0358  -0.0099
   8 O   :pz    -0.0004  -0.0234   0.1696   0.0449  -0.1369  -0.1136   0.0050
   9 O   :pz    -0.0002  -0.0499   0.2999   0.0858   0.0069  -0.0686  -0.1231
  10 O   :pz     0.0004  -0.0487   0.3172   0.0693  -0.7063  -0.7586   0.1956
  11 O   :pz    -0.0006  -0.0078   0.1975   0.2876   1.6736  -0.2159   0.6462
  12 O   :dxx   -0.0029   0.0146   0.0070  -0.0620  -0.1443  -0.0762  -0.4781
  13 O   :dyy   -0.0030   0.0263   0.0015  -0.0507  -0.1683  -0.0954  -0.3585
  14 O   :dzz   -0.0030   0.0251  -0.0304  -0.0614  -0.1732  -0.0406  -0.4599
  15 H   :s      0.0003   0.0918  -0.0879   0.0285  -0.0105  -0.0786  -0.0035
  16 H   :s      0.0001   0.0539  -0.1102  -0.0295   0.5540  -1.6009   0.5652
  17 H   :s     -0.0008   0.0066  -0.0189   0.9445   0.1271   0.5950   0.6123
  18 H   :py    -0.0001  -0.0144   0.0141   0.0199  -0.0037   0.0211  -0.0016
  19 H   :pz     0.0000   0.0099   0.0025  -0.0117   0.0068  -0.0216   0.0157

    Orbital         8        9       10       11       12       13
   1 O   :s      0.0047  -0.0171   0.0046  -0.0281  -0.0020   0.0912
   2 O   :s      0.0067  -0.0145   0.0222  -0.0270  -0.0115   0.2204
   3 O   :s      0.0113  -0.0713  -0.0376  -0.1082   0.0213  -0.0481
   4 O   :s      0.1225  -0.3010  -0.8015   0.6807  -0.1638  -5.6649
   5 O   :s      0.3122  -0.9036  -0.6756   0.9619  -0.3907  -4.1119
   6 O   :s      0.2539  -1.5286   3.2439  -0.2230   0.2048  13.1395
   7 O   :pz    -0.0126   0.0276   0.1202   0.0351  -0.0216  -0.0034
   8 O   :pz    -0.0246   0.0120   0.0773  -0.0702   0.0148  -0.0155
   9 O   :pz    -0.0712   0.2360   1.2486   0.5817  -0.3253  -0.0162
  10 O   :pz    -0.0172   0.0949  -2.3112  -0.8385   0.4675   0.3803
  11 O   :pz    -0.2407   1.0674   0.3849   0.4402  -0.1067   0.0290
  12 O   :dxx    0.2638   0.3573  -0.7613  -0.0814  -0.0447  -3.5738
  13 O   :dyy    0.4225  -0.8437  -0.3715   0.3493   0.4714  -3.6561
  14 O   :dzz   -0.4223  -0.4831  -0.5750   0.1066  -0.4376  -3.6819
  15 H   :s      0.0245  -0.1796   0.2629  -1.0162   0.0494  -0.2883
  16 H   :s     -0.2971   1.9104  -1.3825   0.9737  -0.3155   0.8020
  17 H   :s     -0.0165  -0.1029   0.2815  -0.2882   0.0324  -0.3363
  18 H   :py     0.0643  -0.0712   0.1309  -0.1610  -0.3415  -0.1988
  19 H   :pz     0.0879  -0.0001  -0.1107   0.0381  -0.8623   0.0580

 Molecular orbitals for symmetry species 2  (B1 )
 ------------------------------------------------

    Orbital         1        2        3        4        5        6        7
   1 O   :px     0.0819  -0.0403   0.0108  -0.1313   0.0141   0.1217   1.5399
   2 O   :px     0.1941  -0.1683   0.0187  -0.0592  -0.0257   1.6013  -2.0382
   3 O   :px     0.3396  -0.0020   0.0667  -1.3510   0.3082  -2.3944   1.4609
   4 O   :px     0.3822  -0.8903  -0.0370   2.0398  -0.7722   1.4421  -0.7019
   5 O   :px     0.2591   1.3740   0.0656  -0.8684   0.0825  -0.4459   0.2130
   6 O   :dxz   -0.0383  -0.0021   0.9472   0.0925   0.5456  -0.0083   0.0025
   7 H   :px     0.0183   0.0056  -0.0833   0.0549   0.8327  -0.0113   0.0044

 Molecular orbitals for symmetry species 3  (B2 )
 ------------------------------------------------

    Orbital         1        2        3        4        5        6        7
   1 O   :py     0.0653  -0.0306   0.0081  -0.0562  -0.0104   0.1221  -0.0103
   2 O   :py     0.1529  -0.0600  -0.0127  -0.1975   0.0405   0.0827   0.0059
   3 O   :py     0.2746  -0.1667   0.0964  -0.0661  -0.1524   1.3118  -0.1680
   4 O   :py     0.2860   0.0539  -0.0558  -1.2727  -0.3338  -2.7315   0.3863
   5 O   :py     0.1253  -0.9468   1.9322   1.8395  -1.3313   1.2963  -0.1686
   6 O   :dyz   -0.0554  -0.0253  -0.0628   0.0252   1.3378   0.2320   0.3824
   7 H   :s      0.1438   0.0176  -0.0539   0.0836  -0.3943  -0.2494   0.1431
   8 H   :s      0.1473  -0.1648  -1.1763   0.8659   2.1172   1.2338  -0.0498
   9 H   :s      0.0368   2.0991  -0.4183  -1.9482  -0.1311  -1.1970   0.1506
  10 H   :py    -0.0096   0.0204   0.0307  -0.0153  -0.0445  -0.1808  -0.4615
  11 H   :pz     0.0163  -0.0225  -0.0098   0.0090   0.1201   0.0658  -0.5722

    Orbital         8        9       10       11
   1 O   :py     0.0541   0.0372   0.1201   1.5515
   2 O   :py    -0.0647   0.1597   1.6501  -2.1181
   3 O   :py     0.7951  -0.2746  -2.6103   1.6274
   4 O   :py    -0.9576   2.8181   1.2723  -0.7636
   5 O   :py     0.2767   0.2531  -0.8272   0.3994
   6 O   :dyz    0.5781  -1.8478   0.3032  -0.0740
   7 H   :s      0.9279  -0.7307   0.1517  -0.0444
   8 H   :s     -0.6677  -2.1365   0.1993  -0.0076
   9 H   :s      0.1823   0.4026   0.4000  -0.2168
  10 H   :py     0.3953   0.8963  -0.2566   0.0784
  11 H   :pz    -0.1816  -0.8537   0.2111  -0.0610

 Molecular orbitals for symmetry species 4  (A2 )
 ------------------------------------------------

    Orbital         1        2
   1 O   :dxy    0.9129   0.7003
   2 H   :px     0.1116  -0.8095

  Total CPU  time used in SIRIUS :   0.02 seconds
  Total wall time used in SIRIUS :   0.02 seconds

 
     Date and time (Linux)  : Wed Feb 15 12:28:06 2017
     Host name              : TESD11                                  

 NOTE:    1 informational messages have been issued.
 Check output, result, and error files for "INFO".

 NOTE:    1 warnings have been issued.
 Check output, result, and error files for "WARNING".


                     .---------------------------------------.
                     | End of Wave Function Section (SIRIUS) |
                     `---------------------------------------'



                    .------------------------------------------.
                    | Starting in Coupled Cluster Section (CC) |
                    `------------------------------------------'

  

 *******************************************************************************
 *******************************************************************************
 *                                                                             *
 *                                                                             *
 *                    START OF COUPLED CLUSTER CALCULATION                     *
 *                                                                             *
 *                                                                             *
 *******************************************************************************
 *******************************************************************************



 CCR12 ANSATZ =   0

 CCR12 APPROX =   0

   

 *******************************************************************
 *                                                                 *
 *----------                                             >---------*
 *---------- OUTPUT FROM COUPLED CLUSTER ENERGY PROGRAM  >---------*
 *----------                                             >---------*
 *                                                                 *
 *******************************************************************


             The Direct Coupled Cluster Energy Program
             -----------------------------------------


          Number of t1 amplitudes                 :        64
          Number of t2 amplitudes                 :      4175
          Total number of amplitudes in ccsd      :      4239

 Iter.  1: Coupled cluster MP2   energy :     -76.3109682858375891





             +-------------------------------------------------------+
             ! Final results from the Coupled Cluster energy program !
             +-------------------------------------------------------+



            Total SCF   energy:                   -76.0607842187

            Total MP2   energy:                   -76.3109682858



 CCR12 ANSATZ =   0

 CCR12 APPROX =   0

   

 *******************************************************************
 *                                                                 *
 *----------                                             >---------*
 *---------- OUTPUT FROM COUPLED CLUSTER ENERGY PROGRAM  >---------*
 *----------                                             >---------*
 *                                                                 *
 *******************************************************************


             The Direct Coupled Cluster Energy Program
             -----------------------------------------


          Number of t1 amplitudes                 :        64
          Number of t2 amplitudes                 :      4175
          Total number of amplitudes in ccsd      :      4239

 Iter.  1: Coupled cluster RSTAR energy :     -76.3109682858375891
 Iter.  1: Coupled cluster CC2   energy :     -76.3108952877558693
 Iter.  2: Coupled cluster CC2   energy :     -76.3132627869395606
 Iter.  3: Coupled cluster CC2   energy :     -76.3136188531736934
 Iter.  4: Coupled cluster CC2   energy :     -76.3135358210629562
 Iter.  5: Coupled cluster CC2   energy :     -76.3135383479883842
 Iter.  6: Coupled cluster CC2   energy :     -76.3135432749571692
 Iter.  7: Coupled cluster CC2   energy :     -76.3135427793159806
 Iter.  8: Coupled cluster CC2   energy :     -76.3135426983328671
 Iter.  9: Coupled cluster CC2   energy :     -76.3135426988517906

 CC2   energy converged to within   0.10D-07 is          -76.313542698852
 Final 2-norm of the CC vector function:  1.41241447D-06





             +-------------------------------------------------------+
             ! Final results from the Coupled Cluster energy program !
             +-------------------------------------------------------+



            Total SCF   energy:                   -76.0607842187

            Total RSTAR energy:                   -76.3109682858

            Total CC2   energy:                   -76.3135426989


 CCR12 ANSATZ =   0

 CCR12 APPROX =   0

   

 *******************************************************************
 *                                                                 *
 *----------                                             >---------*
 *---------- OUTPUT FROM COUPLED CLUSTER ENERGY PROGRAM  >---------*
 *----------                                             >---------*
 *                                                                 *
 *******************************************************************


             The Direct Coupled Cluster Energy Program
             -----------------------------------------


          Number of t1 amplitudes                 :        64
          Number of t2 amplitudes                 :      4175
          Total number of amplitudes in ccsd      :      4239

 Iter.  1: Coupled cluster RSTAR energy :     -76.3135426988517906
 Iter.  1: Coupled cluster CCSD  energy :     -76.3131503336835664
 Iter.  2: Coupled cluster CCSD  energy :     -76.3167129119619574
 Iter.  3: Coupled cluster CCSD  energy :     -76.3172564217502725
 Iter.  4: Coupled cluster CCSD  energy :     -76.3173262154876539
 Iter.  5: Coupled cluster CCSD  energy :     -76.3173560500218144
 Iter.  6: Coupled cluster CCSD  energy :     -76.3173571230711048
 Iter.  7: Coupled cluster CCSD  energy :     -76.3173569682869584
 Iter.  8: Coupled cluster CCSD  energy :     -76.3173570753077399
 Iter.  9: Coupled cluster CCSD  energy :     -76.3173570559566912
 Iter. 10: Coupled cluster CCSD  energy :     -76.3173570551614233

 CCSD  energy converged to within   0.10D-07 is          -76.317357055161
 Final 2-norm of the CC vector function:  4.64302399D-07





             +-------------------------------------------------------+
             ! Final results from the Coupled Cluster energy program !
             +-------------------------------------------------------+



            Total SCF   energy:                   -76.0607842187

            Total RSTAR energy:                   -76.3135426989

            Total CCSD  energy:                   -76.3173570552
  

 *******************************************************************************
 *******************************************************************************
 *                                                                             *
 *                                                                             *
 *                   SUMMARY OF COUPLED CLUSTER CALCULATION                    *
 *                                                                             *
 *                                                                             *
 *******************************************************************************
 *******************************************************************************

                                                                                
                                                                                
            Total SCF   energy:                   -76.0607842187                
            Total MP2   energy:                   -76.3109682858                
                                                                                
                                                                                
            Total SCF   energy:                   -76.0607842187                
            Total RSTAR energy:                   -76.3109682858                
            Total CC2   energy:                   -76.3135426989                
                                                                                
                                                                                
            Total SCF   energy:                   -76.0607842187                
            Total RSTAR energy:                   -76.3135426989                
            Total CCSD  energy:                   -76.3173570552                
  

 *******************************************************************************
 *******************************************************************************
 *                                                                             *
 *                                                                             *
 *                      END OF COUPLED CLUSTER CALCULATION                     *
 *                                                                             *
 *                                                                             *
 *******************************************************************************
 *******************************************************************************


 CPU and wall time for CC :       0.394       0.394

 
     Date and time (Linux)  : Wed Feb 15 12:28:06 2017
     Host name              : TESD11                                  


                      .-------------------------------------.
                      | End of Coupled Cluster Section (CC) |
                      `-------------------------------------'



        *****************************************************************
        ******** Output from **PROPE input processing for ABACUS ********
        *****************************************************************



      SOPPA : Second Order Polarization Propagator Approximation



 The following molecular properties will be calculated in this run:
 ------------------------------------------------------------------

 Default print level:        2

      Electronic excitation energies 
      No mass-velocity energy correction calculated
      No Darwin energy correction calculated
      Natural orbital connection is used
      for perturbation dependent basis sets.


 Changes of defaults in SOPPA:
 -----------------------------

 AO integral driven RPA
 AO integral driven Double corrected RPA :
    (Ref.: O. Christiansen, K. L. Bak, H. Koch and S. P. A. Sauer
     Chem. Phys. Lett. 284, 47-62 (1998))
 AO integral driven SOPPA :
    (Ref.: K. L. Bak, H. Koch, J. Oddershede, O. Christiansen and S. P. A. Sauer
     J. Chem. Phys. 112, 4173-4185 (2000))
 AO integral driven SOPPA(CC2) :
 AO integral driven SOPPA(CCSD)
    (Ref.: H. H. Falden, K. R. Falster-Hansen, K. L. Bak, S. Rettrup and S. P. A. Sauer,
     J. Phys. Chem. A 113, 11995-12012 (2009))
 The maximum number of trial vectors for each excitation is changed to :   4
 The last :     0    1    0    0    0    0    0    0 excitation energies
    are only converged to :  1.00E-02


 Changes of defaults for .EXCITA:
 --------------------------------

 Number of excitation energies:    5    6    5    5
 Print level          :    2
 Integral print level :    2
 Convergence threshold: 1.00E-04
 Maximum iterations   :   60
 Conventional rotational strength
 Dipole strength


                                 Isotopic Masses
                                 ---------------

                           O          15.994915
                           H   _1      1.007825
                           H   _2      1.007825

                       Total mass:    18.010565 amu
                       Natural abundance:  99.730 %

 Center-of-mass coordinates (a.u.):    0.000000    0.000000   -0.000015

 Center of mass dipole origin  :    0.000000    0.000000   -0.000015

 Center of mass gauge origin   :    0.000000    0.000000   -0.000015


                 .------------------------------------------------.
                 | Starting in Static Property Section (ABACUS) - |
                 `------------------------------------------------'


 
     Date and time (Linux)  : Wed Feb 15 12:28:06 2017
     Host name              : TESD11                                  


                            **************************
                            *** Output from TROINV ***
                            **************************



  Translational and rotational coordinates
  ----------------------------------------


  Symmetry  1

        Translation along Z axis

  Symmetry  2

        Translation along X axis
        Rotation around Y axis

  Symmetry  3

        Translation along Y axis
        Rotation around X axis

  Symmetry  4

        Rotation around Z axis


                  **********************************************
                  *** ABACUS - Excitation energies (.EXCITA) ***
                  **********************************************


 Maximum number of trial vectors for each excitation is  4


 -----------------------------------
 RPA:
 Perturbation symmetry     :       1
 p-h variables             :     128
 -----------------------------------

  ******************************************************************
                   RPA iterations, Excitation symmetry 1
  ******************************************************************

  ==================================================================
             1. RPA  iteration, Excitation symmetry 1
  ==================================================================

            --------------------------------------------------
            Excitation   Energy (au)     Residual    Converged
            --------------------------------------------------
                 1       0.43386667     1.1505D-01       no
                 2       0.63291921     1.2162D-01       no
                 3       0.66739369     1.2928D-01       no
                 4       0.80367702     1.8537D-01       no
                 5       0.89580542     3.9241D-01       no
            --------------------------------------------------

  ==================================================================
             2. RPA  iteration, Excitation symmetry 1
  ==================================================================

            --------------------------------------------------
            Excitation   Energy (au)     Residual    Converged
            --------------------------------------------------
                 1       0.42388470     1.5067D-02       no
                 2       0.61224366     2.8986D-02       no
                 3       0.65690798     2.1882D-02       no
                 4       0.78146370     4.2392D-02       no
                 5       0.83976293     4.8964D-02       no
            --------------------------------------------------

  ==================================================================
             3. RPA  iteration, Excitation symmetry 1
  ==================================================================

            --------------------------------------------------
            Excitation   Energy (au)     Residual    Converged
            --------------------------------------------------
                 1       0.42380667     1.7290D-03       no
                 2       0.61179812     6.1788D-03       no
                 3       0.65675916     5.2011D-03       no
                 4       0.78083336     8.2276D-03       no
                 5       0.83891480     9.7696D-03       no
            --------------------------------------------------

  ==================================================================
             4. RPA  iteration, Excitation symmetry 1
  ==================================================================

            --------------------------------------------------
            Excitation   Energy (au)     Residual    Converged
            --------------------------------------------------
                 1       0.42380591     2.5485D-04       no
                 2       0.61178349     6.1753D-04       no
                 3       0.65675076     6.1185D-04       no
                 4       0.78081914     1.0977D-03       no
                 5       0.83882476     3.8717D-03       no
            --------------------------------------------------

  ==================================================================
             5. RPA  iteration, Excitation symmetry 1
  ==================================================================

            --------------------------------------------------
            Excitation   Energy (au)     Residual    Converged
            --------------------------------------------------
                 1       0.42380590     1.6643D-05      yes
                 2       0.61178343     4.9356D-05      yes
                 3       0.65675071     4.4790D-05      yes
                 4       0.78081899     9.9527D-05      yes
                 5       0.83882089     5.1125D-04       no
            --------------------------------------------------

  ==================================================================
             6. RPA  iteration, Excitation symmetry 1
  ==================================================================

            --------------------------------------------------
            Excitation   Energy (au)     Residual    Converged
            --------------------------------------------------
                 1       0.42380590     1.2749D-05      yes
                 2       0.61178343     4.3347D-05      yes
                 3       0.65675071     3.7870D-05      yes
                 4       0.78081899     8.8174D-05      yes
                 5       0.83882086     7.1816D-05      yes
            --------------------------------------------------

 -------------------------------------------------------------
 Iterations stopped since: 
 -------------------------
 All of the excitations are converged.
 -------------------------------------------------------------


 --------------------------------------------------------------

                 Singlet Excitation Energies

 --------------------------------------------------------------
 Excitation symmetry  1, state no.  1

        RPA excitation energy :  0.42380590     au
                                   11.532345     eV
                                   93014.642     cm-1
                                   1112.7022     kj / mole

 1p-1h + 1h-1p excitation weight:  -0.01 + -0.00  =  -0.01 %
 |=====================================================|
 |          | Symmetry|  Orbital index  |   Amplitude  |
 |          | index   |   a   b   i   j |              |
 |=====================================================|
 |    exci. | 1   1   |   1       3     |   -0.979170  |
 |    exci. | 1   1   |   3       3     |    0.141817  |
 |    exci. | 2   2   |   1       1     |   -0.100550  |
 |-----------------------------------------------------|

 Printed all single excitation amplitudes greater than  0.100000

 --------------------------------------------------------------

                 Singlet Excitation Energies

 --------------------------------------------------------------
 Excitation symmetry  1, state no.  2

        RPA excitation energy :  0.61178343     au
                                   16.647474     eV
                                   134270.94     cm-1
                                   1606.2371     kj / mole

 1p-1h + 1h-1p excitation weight:  -0.00 + -0.00  =  -0.00 %
 |=====================================================|
 |          | Symmetry|  Orbital index  |   Amplitude  |
 |          | index   |   a   b   i   j |              |
 |=====================================================|
 |    exci. | 2   2   |   1       1     |    0.628159  |
 |    exci. | 3   3   |   1       1     |   -0.750069  |
 |    exci. | 3   3   |   3       1     |   -0.187236  |
 |-----------------------------------------------------|

 Printed all single excitation amplitudes greater than  0.100000

 --------------------------------------------------------------

                 Singlet Excitation Energies

 --------------------------------------------------------------
 Excitation symmetry  1, state no.  3

        RPA excitation energy :  0.65675071     au
                                   17.871096     eV
                                   144140.12     cm-1
                                   1724.2987     kj / mole

 1p-1h + 1h-1p excitation weight:   0.00 + -0.00  =   0.00 %
 |=====================================================|
 |          | Symmetry|  Orbital index  |   Amplitude  |
 |          | index   |   a   b   i   j |              |
 |=====================================================|
 |    exci. | 1   1   |   1       3     |   -0.102657  |
 |    exci. | 1   1   |   2       3     |   -0.625551  |
 |    exci. | 1   1   |   3       3     |   -0.154709  |
 |    exci. | 2   2   |   1       1     |    0.584651  |
 |    exci. | 3   3   |   1       1     |    0.473550  |
 |-----------------------------------------------------|

 Printed all single excitation amplitudes greater than  0.100000

 --------------------------------------------------------------

                 Singlet Excitation Energies

 --------------------------------------------------------------
 Excitation symmetry  1, state no.  4

        RPA excitation energy :  0.78081899     au
                                   21.247165     eV
                                   171369.96     cm-1
                                   2050.0399     kj / mole

 1p-1h + 1h-1p excitation weight:   0.03 +  0.00  =   0.04 %
 |=====================================================|
 |          | Symmetry|  Orbital index  |   Amplitude  |
 |          | index   |   a   b   i   j |              |
 |=====================================================|
 |    exci. | 1   1   |   1       3     |   -0.101759  |
 |    exci. | 1   1   |   2       3     |    0.737945  |
 |    exci. | 1   1   |   3       3     |   -0.358503  |
 |    exci. | 2   2   |   1       1     |    0.394606  |
 |    exci. | 3   3   |   1       1     |    0.370547  |
 |    exci. | 3   3   |   3       1     |   -0.153960  |
 |-----------------------------------------------------|

 Printed all single excitation amplitudes greater than  0.100000

 --------------------------------------------------------------

                 Singlet Excitation Energies

 --------------------------------------------------------------
 Excitation symmetry  1, state no.  5

        RPA excitation energy :  0.83882086     au
                                   22.825477     eV
                                   184099.90     cm-1
                                   2202.3238     kj / mole

 1p-1h + 1h-1p excitation weight:   0.05 +  0.00  =   0.05 %
 |=====================================================|
 |          | Symmetry|  Orbital index  |   Amplitude  |
 |          | index   |   a   b   i   j |              |
 |=====================================================|
 |    exci. | 1   1   |   1       3     |   -0.104265  |
 |    exci. | 1   1   |   2       3     |   -0.151882  |
 |    exci. | 1   1   |   3       3     |   -0.887278  |
 |    exci. | 2   2   |   1       1     |   -0.230410  |
 |    exci. | 3   3   |   1       1     |   -0.263311  |
 |    exci. | 3   3   |   3       1     |    0.205643  |
 |-----------------------------------------------------|

 Printed all single excitation amplitudes greater than  0.100000

 --------------------------------------------------------------

 ZDIPLEN  RPA transition moments for excitation symmetry  1
 ===================================================================
 Exci.    1p-1h        1h-1p        Total
 -------------------------------------------------------------------
   1    -0.69871 +    0.02901 =   -0.66970
   2     0.38135 +   -0.01329 =    0.36807
   3    -0.39649 +    0.02683 =   -0.36966
   4    -0.03835 +    0.04539 =    0.00704
   5     0.02994 +   -0.03425 =   -0.00430
 ===================================================================

 ZDIPVEL  RPA transition moments for excitation symmetry  1
 ===================================================================
 Exci.    1p-1h        1h-1p        Total
 -------------------------------------------------------------------
   1     0.28534 +    0.00968 =    0.29501
   2    -0.20289 +   -0.01943 =   -0.22232
   3     0.23805 +    0.00958 =    0.24763
   4    -0.02287 +    0.03618 =    0.01331
   5    -0.00262 +   -0.01602 =   -0.01865
 ===================================================================

 XXSECMOM RPA transition moments for excitation symmetry  1
 ===================================================================
 Exci.    1p-1h        1h-1p        Total
 -------------------------------------------------------------------
   1    -0.09830 +   -0.04697 =   -0.14527
   2     1.09607 +    0.03037 =    1.12644
   3     1.15245 +   -0.04311 =    1.10934
   4     1.56509 +   -0.17125 =    1.39384
   5    -0.77538 +    0.12828 =   -0.64710
 ===================================================================

 YYSECMOM RPA transition moments for excitation symmetry  1
 ===================================================================
 Exci.    1p-1h        1h-1p        Total
 -------------------------------------------------------------------
   1     0.52271 +   -0.07179 =    0.45092
   2    -1.17352 +   -0.02298 =   -1.19650
   3     1.03033 +   -0.09055 =    0.93977
   4     0.89232 +   -0.20823 =    0.68409
   5    -1.11775 +    0.17688 =   -0.94087
 ===================================================================

 ZZSECMOM RPA transition moments for excitation symmetry  1
 ===================================================================
 Exci.    1p-1h        1h-1p        Total
 -------------------------------------------------------------------
   1     0.51351 +   -0.03137 =    0.48214
   2    -0.25125 +    0.00136 =   -0.24988
   3    -0.46068 +   -0.10770 =   -0.56838
   4     2.11641 +   -0.19479 =    1.92162
   5    -0.64271 +    0.12384 =   -0.51886
 ===================================================================

 -----------------------------------
 RPA(D):
 Perturbation symmetry     :       1
 p-h variables             :     128
 2p-2h variables           :    8350
 Total number of variables :    8478
 -----------------------------------
The (ai|bj) integrals for the T2         amplitudes is calculated in SOPPA

  ******************************************************************
                RPA(D) calculation, Excitation symmetry 1
  ******************************************************************
 -----------------------------------------------------------------
 Excitation   Energy (au)      ph(0)        ph(2)       2p2h(2)
 -----------------------------------------------------------------
      1        0.36834408   0.42380590   0.06658603  -0.12204785
      2        0.59150167   0.61178343   0.07250774  -0.09278951
      3        0.63086021   0.65675071   0.07073260  -0.09662310
      4        0.71724034   0.78081899   0.06393115  -0.12750980
      5        0.78428440   0.83882086   0.06759315  -0.12212961
 -----------------------------------------------------------------

 --------------------------------------------------------------

                 Singlet Excitation Energies

 --------------------------------------------------------------
 Excitation symmetry  1, state no.  1

     RPA(D) excitation energy :  0.36834408     au
                                   10.023152     eV
                                   80842.180     cm-1
                                   967.08723     kj / mole

 1p-1h + 1h-1p excitation weight:  93.83 + -0.11  =  93.72 %
 2p-2h + 2h-2p excitation weight:   6.28 + -0.00  =   6.28 %

 |=====================================================|
 |          | Symmetry|  Orbital index  |   Amplitude  |
 |          | index   |   a   b   i   j |              |
 |=====================================================|
 |    exci. | 1   1   |   1       3     |   -0.958034  |
 |    exci. | 1   1   |   3       3     |    0.138756  |
 |-----------------------------------------------------|
 |    exci. | 1 1 1 1 |   2   1   3   3 |    0.125085  |
 |    exci. | 2 1 2 1 |   1   1   1   3 |    0.115115  |
 |=====================================================|

 Printed all single excitation amplitudes greater than  0.100000
 Printed all double excitation amplitudes greater than 0.100000

 --------------------------------------------------------------

                 Singlet Excitation Energies

 --------------------------------------------------------------
 Excitation symmetry  1, state no.  2

     RPA(D) excitation energy :  0.59150167     au
                                   16.095579     eV
                                   129819.61     cm-1
                                   1552.9874     kj / mole

 1p-1h + 1h-1p excitation weight:  95.55 + -0.10  =  95.45 %
 2p-2h + 2h-2p excitation weight:   4.55 + -0.00  =   4.55 %

 |=====================================================|
 |          | Symmetry|  Orbital index  |   Amplitude  |
 |          | index   |   a   b   i   j |              |
 |=====================================================|
 |    exci. | 2   2   |   1       1     |    0.621044  |
 |    exci. | 3   3   |   1       1     |   -0.741573  |
 |    exci. | 3   3   |   3       1     |   -0.185115  |
 |-----------------------------------------------------|
 |    exci. | 2 1 2 1 |   1   1   1   2 |   -0.025685  |
 |    exci. | 2 1 2 1 |   1   4   1   2 |    0.024308  |
 |    exci. | 2 1 2 1 |   1   1   1   3 |    0.026317  |
 |    exci. | 2 1 2 1 |   1   2   1   3 |   -0.052299  |
 |    exci. | 2 1 2 1 |   1   3   1   3 |   -0.027191  |
 |    exci. | 3 1 3 1 |   1   1   1   2 |    0.036512  |
 |    exci. | 3 1 3 1 |   1   4   1   2 |   -0.028488  |
 |    exci. | 3 1 3 1 |   1   1   1   3 |   -0.033892  |
 |    exci. | 3 1 3 1 |   1   2   1   3 |    0.061508  |
 |    exci. | 3 1 3 1 |   1   3   1   3 |    0.025737  |
 |    exci. | 2 2 2 2 |   1   1   1   1 |   -0.081448  |
 |    exci. | 3 2 3 2 |   1   1   1   1 |    0.033399  |
 |    exci. | 3 2 3 2 |   3   1   1   1 |   -0.058178  |
 |    exci. | 3 2 3 2 |   5   1   1   1 |    0.028047  |
 |    exci. | 3 2 3 2 |   1   3   1   1 |    0.033206  |
 |    exci. | 3 3 3 3 |   1   1   1   1 |    0.069471  |
 |    exci. | 3 3 3 3 |   3   1   1   1 |    0.048591  |
 |    exci. | 3 3 3 3 |   4   1   1   1 |    0.022484  |
 |    exci. | 2 2 1 1 |   2   1   3   2 |    0.021976  |
 |    exci. | 4 2 3 1 |   1   1   1   2 |    0.024488  |
 |    exci. | 1 1 2 2 |   3   1   1   1 |   -0.021403  |
 |    exci. | 3 3 1 1 |   2   1   3   2 |   -0.024739  |
 |    exci. | 3 3 1 1 |   3   1   3   2 |    0.021475  |
 |    exci. | 3 3 1 1 |   4   1   3   2 |   -0.024087  |
 |    exci. | 4 3 2 1 |   1   1   1   2 |   -0.036136  |
 |    exci. | 1 3 3 1 |   3   1   1   2 |    0.021848  |
 |    exci. | 1 1 3 3 |   3   1   1   1 |   -0.030600  |
 |=====================================================|

 Printed all single excitation amplitudes greater than  0.100000
 Printed all double excitation amplitudes greater than 0.020000

 --------------------------------------------------------------

                 Singlet Excitation Energies

 --------------------------------------------------------------
 Excitation symmetry  1, state no.  3

     RPA(D) excitation energy :  0.63086021     au
                                   17.166580     eV
                                   138457.81     cm-1
                                   1656.3232     kj / mole

 1p-1h + 1h-1p excitation weight:  95.32 + -0.21  =  95.11 %
 2p-2h + 2h-2p excitation weight:   4.89 + -0.01  =   4.89 %

 |=====================================================|
 |          | Symmetry|  Orbital index  |   Amplitude  |
 |          | index   |   a   b   i   j |              |
 |=====================================================|
 |    exci. | 1   1   |   1       3     |   -0.101276  |
 |    exci. | 1   1   |   2       3     |   -0.617135  |
 |    exci. | 1   1   |   3       3     |   -0.152628  |
 |    exci. | 2   2   |   1       1     |    0.576785  |
 |    exci. | 3   3   |   1       1     |    0.467179  |
 |-----------------------------------------------------|
 |    exci. | 1 1 1 1 |   2   1   3   2 |    0.024280  |
 |    exci. | 1 1 1 1 |   5   2   3   2 |    0.022914  |
 |    exci. | 1 1 1 1 |   2   4   3   2 |   -0.022303  |
 |    exci. | 1 1 1 1 |   2   2   3   3 |    0.065940  |
 |    exci. | 1 1 1 1 |   3   2   3   3 |    0.034451  |
 |    exci. | 2 1 2 1 |   1   1   1   2 |   -0.025881  |
 |    exci. | 2 1 2 1 |   2   2   1   2 |   -0.025624  |
 |    exci. | 2 1 2 1 |   1   4   1   2 |    0.021650  |
 |    exci. | 2 1 2 1 |   1   1   1   3 |    0.047552  |
 |    exci. | 2 1 2 1 |   3   2   1   3 |    0.033250  |
 |    exci. | 2 1 2 1 |   1   3   1   3 |   -0.020084  |
 |    exci. | 2 1 2 1 |   1   7   1   3 |    0.029549  |
 |    exci. | 3 1 3 1 |   1   1   1   2 |   -0.022081  |
 |    exci. | 3 1 3 1 |   1   1   1   3 |    0.037502  |
 |    exci. | 3 1 3 1 |   3   2   1   3 |    0.048396  |
 |    exci. | 2 2 2 2 |   1   1   1   1 |   -0.079113  |
 |    exci. | 3 2 3 2 |   1   1   1   1 |   -0.095104  |
 |    exci. | 3 2 3 2 |   3   1   1   1 |   -0.034979  |
 |    exci. | 3 3 3 3 |   1   1   1   1 |   -0.047383  |
 |    exci. | 3 3 3 3 |   3   1   1   1 |   -0.031106  |
 |    exci. | 2 2 1 1 |   2   1   3   2 |    0.023487  |
 |    exci. | 4 3 2 1 |   1   1   1   2 |    0.020640  |
 |=====================================================|

 Printed all single excitation amplitudes greater than  0.100000
 Printed all double excitation amplitudes greater than 0.020000

 --------------------------------------------------------------

                 Singlet Excitation Energies

 --------------------------------------------------------------
 Excitation symmetry  1, state no.  4

     RPA(D) excitation energy :  0.71724034     au
                                   19.517102     eV
                                   157416.06     cm-1
                                   1883.1142     kj / mole

 1p-1h + 1h-1p excitation weight:  93.15 + -0.66  =  92.49 %
 2p-2h + 2h-2p excitation weight:   7.53 + -0.02  =   7.51 %

 |=====================================================|
 |          | Symmetry|  Orbital index  |   Amplitude  |
 |          | index   |   a   b   i   j |              |
 |=====================================================|
 |    exci. | 1   1   |   2       3     |    0.716930  |
 |    exci. | 1   1   |   3       3     |   -0.348294  |
 |    exci. | 2   2   |   1       1     |    0.383369  |
 |    exci. | 3   3   |   1       1     |    0.359995  |
 |    exci. | 3   3   |   3       1     |   -0.149575  |
 |-----------------------------------------------------|
 |    exci. | 2 1 2 1 |   1   2   1   3 |   -0.127411  |
 |    exci. | 3 1 3 1 |   1   2   1   3 |   -0.100894  |
 |=====================================================|

 Printed all single excitation amplitudes greater than  0.100000
 Printed all double excitation amplitudes greater than 0.100000

 --------------------------------------------------------------

                 Singlet Excitation Energies

 --------------------------------------------------------------
 Excitation symmetry  1, state no.  5

     RPA(D) excitation energy :  0.78428440     au
                                   21.341464     eV
                                   172130.53     cm-1
                                   2059.1384     kj / mole

 1p-1h + 1h-1p excitation weight:  94.22 + -0.42  =  93.80 %
 2p-2h + 2h-2p excitation weight:   6.21 + -0.01  =   6.20 %

 |=====================================================|
 |          | Symmetry|  Orbital index  |   Amplitude  |
 |          | index   |   a   b   i   j |              |
 |=====================================================|
 |    exci. | 1   1   |   1       3     |   -0.102088  |
 |    exci. | 1   1   |   2       3     |   -0.148712  |
 |    exci. | 1   1   |   3       3     |   -0.868760  |
 |    exci. | 2   2   |   1       1     |   -0.225601  |
 |    exci. | 3   3   |   1       1     |   -0.257815  |
 |    exci. | 3   3   |   3       1     |    0.201351  |
 |-----------------------------------------------------|
 |    exci. | 1 1 1 1 |   1   1   3   2 |    0.022145  |
 |    exci. | 1 1 1 1 |   3   1   3   2 |    0.022782  |
 |    exci. | 1 1 1 1 |   3   2   3   2 |    0.020729  |
 |    exci. | 1 1 1 1 |   5   3   3   2 |    0.037700  |
 |    exci. | 1 1 1 1 |   3   4   3   2 |   -0.026189  |
 |    exci. | 1 1 1 1 |   2   1   3   3 |    0.052758  |
 |    exci. | 1 1 1 1 |   3   1   3   3 |   -0.028251  |
 |    exci. | 1 1 1 1 |   3   2   3   3 |    0.075423  |
 |    exci. | 1 1 1 1 |   3   3   3   3 |    0.056563  |
 |    exci. | 1 1 1 1 |   5   3   3   3 |    0.049046  |
 |    exci. | 1 1 1 1 |   7   3   3   3 |   -0.020417  |
 |    exci. | 2 1 2 1 |   2   3   1   2 |   -0.034134  |
 |    exci. | 2 1 2 1 |   1   1   1   3 |    0.046500  |
 |    exci. | 2 1 2 1 |   1   2   1   3 |    0.031150  |
 |    exci. | 2 1 2 1 |   1   3   1   3 |    0.088404  |
 |    exci. | 2 1 2 1 |   2   3   1   3 |   -0.043631  |
 |    exci. | 2 1 2 1 |   3   3   1   3 |    0.027855  |
 |    exci. | 3 1 3 1 |   2   3   1   2 |   -0.025049  |
 |    exci. | 3 1 3 1 |   3   3   1   2 |    0.025541  |
 |    exci. | 3 1 3 1 |   4   3   1   2 |   -0.023590  |
 |    exci. | 3 1 3 1 |   3   1   1   3 |    0.024142  |
 |    exci. | 3 1 3 1 |   1   2   1   3 |    0.037915  |
 |    exci. | 3 1 3 1 |   1   3   1   3 |    0.077362  |
 |    exci. | 3 1 3 1 |   2   3   1   3 |   -0.026326  |
 |    exci. | 3 1 3 1 |   3   3   1   3 |    0.074753  |
 |    exci. | 3 1 3 1 |   5   3   1   3 |   -0.027264  |
 |    exci. | 2 2 2 2 |   1   1   1   1 |    0.038440  |
 |    exci. | 3 2 3 2 |   1   1   1   1 |    0.066582  |
 |    exci. | 3 3 3 3 |   1   1   1   1 |    0.039871  |
 |    exci. | 1 2 2 1 |   3   2   1   3 |   -0.023215  |
 |    exci. | 3 3 1 1 |   2   2   3   3 |    0.022013  |
 |    exci. | 3 3 1 1 |   3   2   3   3 |   -0.033794  |
 |    exci. | 1 3 3 1 |   1   2   1   3 |    0.023442  |
 |    exci. | 1 3 3 1 |   1   3   1   3 |   -0.020385  |
 |    exci. | 1 3 3 1 |   3   3   1   3 |    0.035660  |
 |=====================================================|

 Printed all single excitation amplitudes greater than  0.100000
 Printed all double excitation amplitudes greater than 0.020000

 --------------------------------------------------------------

 ZDIPLEN  RPA(D) transition moments for excitation symmetry  1
 ===================================================================
 Exci.    1p-1h        1h-1p        Total
 -------------------------------------------------------------------
   1    -0.75484 +    0.02964 =   -0.72519
   2     0.39108 +   -0.01349 =    0.37758
   3    -0.41386 +    0.02770 =   -0.38616
   4    -0.05606 +    0.04551 =   -0.01055
   5     0.02334 +   -0.03465 =   -0.01131
 ===================================================================

 ZDIPVEL  RPA(D) transition moments for excitation symmetry  1
 ===================================================================
 Exci.    1p-1h        1h-1p        Total
 -------------------------------------------------------------------
   1     0.28283 +    0.00921 =    0.29204
   2    -0.20147 +   -0.01910 =   -0.22056
   3     0.23897 +    0.00925 =    0.24821
   4    -0.01470 +    0.03561 =    0.02091
   5     0.00221 +   -0.01544 =   -0.01323
 ===================================================================

 XXSECMOM RPA(D) transition moments for excitation symmetry  1
 ===================================================================
 Exci.    1p-1h        1h-1p        Total
 -------------------------------------------------------------------
   1    -0.08989 +   -0.04919 =   -0.13908
   2     1.18212 +    0.03268 =    1.21480
   3     1.24963 +   -0.04482 =    1.20482
   4     1.71359 +   -0.17903 =    1.53456
   5    -0.82639 +    0.13404 =   -0.69234
 ===================================================================

 YYSECMOM RPA(D) transition moments for excitation symmetry  1
 ===================================================================
 Exci.    1p-1h        1h-1p        Total
 -------------------------------------------------------------------
   1     0.57098 +   -0.07374 =    0.49724
   2    -1.20700 +   -0.02246 =   -1.22946
   3     1.10986 +   -0.09326 =    1.01661
   4     1.00610 +   -0.21471 =    0.79139
   5    -1.19143 +    0.18180 =   -1.00964
 ===================================================================

 ZZSECMOM RPA(D) transition moments for excitation symmetry  1
 ===================================================================
 Exci.    1p-1h        1h-1p        Total
 -------------------------------------------------------------------
   1     0.55844 +   -0.03295 =    0.52549
   2    -0.24781 +    0.00235 =   -0.24546
   3    -0.45726 +   -0.11131 =   -0.56858
   4     2.30113 +   -0.20203 =    2.09910
   5    -0.66843 +    0.12862 =   -0.53981
 ===================================================================

 -----------------------------------
 SOPPA:
 Perturbation symmetry     :       1
 p-h variables             :     128
 2p-2h variables           :    8350
 Total number of variables :    8478
 -----------------------------------
The (ai|bj) integrals for the T2         amplitudes is calculated in SOPPA

  ******************************************************************
                 SOPPA iterations, Excitation symmetry 1
  ******************************************************************

  ==================================================================
             1. SOPPA  iteration, Excitation symmetry 1
  ==================================================================

            --------------------------------------------------
            Excitation   Energy (au)     Residual    Converged
[...]


 ======================================================================
                               SOPPA(CC2) results:
 ----------------------------------------------------------------------


@               Singlet electronic excitation energies
                --------------------------------------

               ========================================
                 Sym.   Mode   Frequency    Frequency
                ex. st.  No.      (au)         (eV)
               ----------------------------------------
                   1      1     0.367974    10.013075
                   1      2     0.590617    16.071499
                   1      3     0.629839    17.138778
                   1      4     0.720071    19.594117
                   1      5     0.787523    21.429593
               ----------------------------------------
                   2      1     0.276837     7.533131
                   2      2     0.585090    15.921095
                   2      3     0.676535    18.409452
                   2      4     0.683089    18.587794
                   2      5     1.024108    27.867397
                   2      6     1.254793    34.144659
               ----------------------------------------
                   3      1     0.443598    12.070912
                   3      2     0.518369    14.105550
                   3      3     0.698234    18.999923
                   3      4     0.831064    22.614396
                   3      5     0.835174    22.726243
               ----------------------------------------
                   4      1     0.349178     9.501621
                   4      2     0.594154    16.167760
                   4      3     0.743118    20.221280
                   4      4     0.834822    22.716672
                   4      5     1.351051    36.763977
               ========================================


@               Electric transition dipole moments (au)
                ---------------------------------------

@        Mode    Frequency       Velocity/Frequency              Length
@         No.      (au)          x       y       z         x       y       z
@==============================================================================
@  Symmetry of excited state: 1  ( A1 )
@           1     0.367974     0.0000  0.0000  0.7846    0.0000  0.0000  0.6967
@           2     0.590617     0.0000  0.0000  0.3783    0.0000  0.0000  0.3751
@           3     0.629839     0.0000  0.0000  0.3534    0.0000  0.0000  0.3280
@           4     0.720071     0.0000  0.0000 -0.0277    0.0000  0.0000 -0.0562
@           5     0.787523     0.0000  0.0000  0.0040    0.0000  0.0000  0.0355
@------------------------------------------------------------------------------
@  Symmetry of excited state: 2  ( B1 )
@           1     0.276837     0.6513  0.0000  0.0000    0.5143  0.0000  0.0000
@           2     0.585090     0.0082  0.0000  0.0000    0.0806  0.0000  0.0000
@           3     0.676535    -0.2839  0.0000  0.0000   -0.2588  0.0000  0.0000
@           4     0.683089     0.3812  0.0000  0.0000    0.4543  0.0000  0.0000
@           5     1.024108     0.5472  0.0000  0.0000    0.6569  0.0000  0.0000
@           6     1.254793    -0.2588  0.0000  0.0000   -0.3119  0.0000  0.0000
@------------------------------------------------------------------------------
@  Symmetry of excited state: 3  ( B2 )
@           1     0.443598     0.0000 -0.5053  0.0000    0.0000 -0.4725  0.0000
@           2     0.518369     0.0000 -0.8508  0.0000    0.0000 -0.8261  0.0000
@           3     0.698234     0.0000  0.6526  0.0000    0.0000  0.6459  0.0000
@           4     0.831064     0.0000 -0.1828  0.0000    0.0000 -0.2059  0.0000
@           5     0.835174     0.0000  0.0390  0.0000    0.0000  0.0205  0.0000
@------------------------------------------------------------------------------
@  Symmetry of excited state: 4  ( A2 )
@           1     0.349178     0.0000  0.0000  0.0000    0.0000  0.0000  0.0000
@           2     0.594154     0.0000  0.0000  0.0000    0.0000  0.0000  0.0000
@           3     0.743118     0.0000  0.0000  0.0000    0.0000  0.0000  0.0000
@           4     0.834822     0.0000  0.0000  0.0000    0.0000  0.0000  0.0000
@           5     1.351051     0.0000  0.0000  0.0000    0.0000  0.0000  0.0000
@------------------------------------------------------------------------------


@               Magnetic transition dipole moments (au)
                ---------------------------------------

  ( mu_B*<0|l_i|n>, where mu_B = 0.5 is the Bohr magneton)

 Symm.  Mode   Frequency         Conventional                  London
 ex.st.  No.     (eV)        x        y       z         x        y        z
 ==============================================================================
   1      1    10.0131   -0.00000 -0.00000 -0.00000  -0.00000 -0.00000 -0.00000
   1      2    16.0715   -0.00000 -0.00000 -0.00000  -0.00000 -0.00000 -0.00000
   1      3    17.1388   -0.00000 -0.00000 -0.00000  -0.00000 -0.00000 -0.00000
   1      4    19.5941   -0.00000 -0.00000 -0.00000  -0.00000 -0.00000 -0.00000
   1      5    21.4296   -0.00000 -0.00000 -0.00000  -0.00000 -0.00000 -0.00000
 ------------------------------------------------------------------------------
   2      1     7.5331   -0.00000 -0.06300 -0.00000  -0.00000 -0.00000 -0.00000
   2      2    15.9211   -0.00000 -0.01338 -0.00000  -0.00000 -0.00000 -0.00000
   2      3    18.4095   -0.00000 -0.07195 -0.00000  -0.00000 -0.00000 -0.00000
   2      4    18.5878   -0.00000  0.07973 -0.00000  -0.00000 -0.00000 -0.00000
   2      5    27.8674   -0.00000  0.01749 -0.00000  -0.00000 -0.00000 -0.00000
   2      6    34.1447   -0.00000 -0.02690 -0.00000  -0.00000 -0.00000 -0.00000
 ------------------------------------------------------------------------------
   3      1    12.0709    0.08948 -0.00000 -0.00000  -0.00000 -0.00000 -0.00000
   3      2    14.1056   -0.06891 -0.00000 -0.00000  -0.00000 -0.00000 -0.00000
   3      3    18.9999   -0.21649 -0.00000 -0.00000  -0.00000 -0.00000 -0.00000
   3      4    22.6144   -0.05885 -0.00000 -0.00000  -0.00000 -0.00000 -0.00000
   3      5    22.7262    0.08886 -0.00000 -0.00000  -0.00000 -0.00000 -0.00000
 ------------------------------------------------------------------------------
   4      1     9.5016   -0.00000 -0.00000 -0.07625  -0.00000 -0.00000 -0.00000
   4      2    16.1678   -0.00000 -0.00000  0.13566  -0.00000 -0.00000 -0.00000
   4      3    20.2213   -0.00000 -0.00000  0.05466  -0.00000 -0.00000 -0.00000
   4      4    22.7167   -0.00000 -0.00000  0.03907  -0.00000 -0.00000 -0.00000
   4      5    36.7640   -0.00000 -0.00000 -0.13396  -0.00000 -0.00000 -0.00000
 ------------------------------------------------------------------------------


@                  Oscillator and Scalar Rotational Strengths
                   ------------------------------------------

@   Units: 10**(-40) (esu**2)*(cm**2) (rotational strength)
@          dimensionless              (oscillator strength)

@ Symm.  Mode   Frequency    Oscillator-strength      Rotational-strength   
@ ex.st.  No.     (eV)        velocity  length     velocity  length   London
@ ==========================================================================
@  1      1    10.0131        0.1510   0.1191      -0.000   -0.000   -0.000
@  1      2    16.0715        0.0564   0.0554      -0.000   -0.000   -0.000
@  1      3    17.1388        0.0524   0.0452      -0.000   -0.000   -0.000
@  1      4    19.5941        0.0004   0.0015      -0.000   -0.000   -0.000
@  1      5    21.4296        0.0000   0.0007      -0.000   -0.000   -0.000
@ --------------------------------------------------------------------------
@  2      1     7.5331        0.0783   0.0488      -0.000   -0.000   -0.000
@  2      2    15.9211        0.0000   0.0025      -0.000   -0.000   -0.000
@  2      3    18.4095        0.0364   0.0302      -0.000   -0.000   -0.000
@  2      4    18.5878        0.0662   0.0940      -0.000   -0.000   -0.000
@  2      5    27.8674        0.2044   0.2946      -0.000   -0.000   -0.000
@  2      6    34.1447        0.0560   0.0814      -0.000   -0.000   -0.000
@ --------------------------------------------------------------------------
@  3      1    12.0709        0.0755   0.0660      -0.000   -0.000   -0.000
@  3      2    14.1056        0.2501   0.2358      -0.000   -0.000   -0.000
@  3      3    18.9999        0.1982   0.1942      -0.000   -0.000   -0.000
@  3      4    22.6144        0.0185   0.0235      -0.000   -0.000   -0.000
@  3      5    22.7262        0.0008   0.0002      -0.000   -0.000   -0.000
@ --------------------------------------------------------------------------
@  4      1     9.5016        0.0000   0.0000      -0.000   -0.000   -0.000
@  4      2    16.1678        0.0000   0.0000      -0.000   -0.000   -0.000
@  4      3    20.2213        0.0000   0.0000      -0.000   -0.000   -0.000
@  4      4    22.7167        0.0000   0.0000      -0.000   -0.000   -0.000
@  4      5    36.7640        0.0000   0.0000      -0.000   -0.000   -0.000
@ --------------------------------------------------------------------------


 ======================================================================
                               SOPPA(CCSD) results:
 ----------------------------------------------------------------------


@               Singlet electronic excitation energies
                --------------------------------------

               ========================================
                 Sym.   Mode   Frequency    Frequency
                ex. st.  No.      (au)         (eV)
               ----------------------------------------
                   1      1     0.368324    10.022593
                   1      2     0.590161    16.059102
                   1      3     0.629072    17.117911
                   1      4     0.720010    19.592475
                   1      5     0.788034    21.443501
               ----------------------------------------
                   2      1     0.276599     7.526631
                   2      2     0.583836    15.886991
                   2      3     0.675803    18.389526
                   2      4     0.683118    18.588599
                   2      5     1.023929    27.862517
                   2      6     1.254705    34.142269
               ----------------------------------------
                   3      1     0.443352    12.064221
                   3      2     0.519062    14.124396
                   3      3     0.698704    19.012694
                   3      4     0.830708    22.604709
                   3      5     0.835227    22.727696
               ----------------------------------------
                   4      1     0.348432     9.481308
                   4      2     0.594228    16.169773
                   4      3     0.742585    20.206760
                   4      4     0.834183    22.699273
                   4      5     1.351550    36.777551
               ========================================


@               Electric transition dipole moments (au)
                ---------------------------------------

@        Mode    Frequency       Velocity/Frequency              Length
@         No.      (au)          x       y       z         x       y       z
@==============================================================================
@  Symmetry of excited state: 1  ( A1 )
@           1     0.368324     0.0000  0.0000 -0.7876    0.0000  0.0000 -0.6879
@           2     0.590161     0.0000  0.0000 -0.3713    0.0000  0.0000 -0.3674
@           3     0.629072     0.0000  0.0000  0.3597    0.0000  0.0000  0.3330
@           4     0.720010     0.0000  0.0000  0.0267    0.0000  0.0000  0.0590
@           5     0.788034     0.0000  0.0000  0.0002    0.0000  0.0000 -0.0310
@------------------------------------------------------------------------------
@  Symmetry of excited state: 2  ( B1 )
@           1     0.276599     0.6545  0.0000  0.0000    0.5080  0.0000  0.0000
@           2     0.583836     0.0100  0.0000  0.0000    0.0821  0.0000  0.0000
@           3     0.675803    -0.2549  0.0000  0.0000   -0.2260  0.0000  0.0000
@           4     0.683118    -0.4011  0.0000  0.0000   -0.4661  0.0000  0.0000
@           5     1.023929     0.5493  0.0000  0.0000    0.6568  0.0000  0.0000
@           6     1.254705     0.2604  0.0000  0.0000    0.3122  0.0000  0.0000
@------------------------------------------------------------------------------
@  Symmetry of excited state: 3  ( B2 )
@           1     0.443352     0.0000 -0.5076  0.0000    0.0000 -0.4672  0.0000
@           2     0.519062     0.0000  0.8509  0.0000    0.0000  0.8194  0.0000
@           3     0.698704     0.0000  0.6545  0.0000    0.0000  0.6435  0.0000
@           4     0.830708     0.0000  0.1836  0.0000    0.0000  0.2040  0.0000
@           5     0.835227     0.0000  0.0337  0.0000    0.0000  0.0140  0.0000
@------------------------------------------------------------------------------
@  Symmetry of excited state: 4  ( A2 )
@           1     0.348432     0.0000  0.0000  0.0000    0.0000  0.0000  0.0000
@           2     0.594228     0.0000  0.0000  0.0000    0.0000  0.0000  0.0000
@           3     0.742585     0.0000  0.0000  0.0000    0.0000  0.0000  0.0000
@           4     0.834183     0.0000  0.0000  0.0000    0.0000  0.0000  0.0000
@           5     1.351550     0.0000  0.0000  0.0000    0.0000  0.0000  0.0000
@------------------------------------------------------------------------------


@               Magnetic transition dipole moments (au)
                ---------------------------------------

  ( mu_B*<0|l_i|n>, where mu_B = 0.5 is the Bohr magneton)

 Symm.  Mode   Frequency         Conventional                  London
 ex.st.  No.     (eV)        x        y       z         x        y        z
 ==============================================================================
   1      1    10.0226   -0.00000 -0.00000 -0.00000  -0.00000 -0.00000 -0.00000
   1      2    16.0591   -0.00000 -0.00000 -0.00000  -0.00000 -0.00000 -0.00000
   1      3    17.1179   -0.00000 -0.00000 -0.00000  -0.00000 -0.00000 -0.00000
   1      4    19.5925   -0.00000 -0.00000 -0.00000  -0.00000 -0.00000 -0.00000
   1      5    21.4435   -0.00000 -0.00000 -0.00000  -0.00000 -0.00000 -0.00000
 ------------------------------------------------------------------------------
   2      1     7.5266   -0.00000 -0.06295 -0.00000  -0.00000 -0.00000 -0.00000
   2      2    15.8870   -0.00000 -0.01299 -0.00000  -0.00000 -0.00000 -0.00000
   2      3    18.3895   -0.00000 -0.06687 -0.00000  -0.00000 -0.00000 -0.00000
   2      4    18.5886   -0.00000 -0.08588 -0.00000  -0.00000 -0.00000 -0.00000
   2      5    27.8625   -0.00000  0.01747 -0.00000  -0.00000 -0.00000 -0.00000
   2      6    34.1423   -0.00000  0.02705 -0.00000  -0.00000 -0.00000 -0.00000
 ------------------------------------------------------------------------------
   3      1    12.0642    0.09024 -0.00000 -0.00000  -0.00000 -0.00000 -0.00000
   3      2    14.1244    0.06846 -0.00000 -0.00000  -0.00000 -0.00000 -0.00000
   3      3    19.0127   -0.21731 -0.00000 -0.00000  -0.00000 -0.00000 -0.00000
   3      4    22.6047    0.05956 -0.00000 -0.00000  -0.00000 -0.00000 -0.00000
   3      5    22.7277    0.09053 -0.00000 -0.00000  -0.00000 -0.00000 -0.00000
 ------------------------------------------------------------------------------
   4      1     9.4813   -0.00000 -0.00000 -0.07697  -0.00000 -0.00000 -0.00000
   4      2    16.1698   -0.00000 -0.00000  0.13598  -0.00000 -0.00000 -0.00000
   4      3    20.2068   -0.00000 -0.00000  0.05625  -0.00000 -0.00000 -0.00000
   4      4    22.6993   -0.00000 -0.00000  0.04025  -0.00000 -0.00000 -0.00000
   4      5    36.7776   -0.00000 -0.00000  0.13487  -0.00000 -0.00000 -0.00000
 ------------------------------------------------------------------------------


@                  Oscillator and Scalar Rotational Strengths
                   ------------------------------------------

@   Units: 10**(-40) (esu**2)*(cm**2) (rotational strength)
@          dimensionless              (oscillator strength)

@ Symm.  Mode   Frequency    Oscillator-strength      Rotational-strength   
@ ex.st.  No.     (eV)        velocity  length     velocity  length   London
@ ==========================================================================
@  1      1    10.0226        0.1523   0.1162      -0.000   -0.000   -0.000
@  1      2    16.0591        0.0542   0.0531      -0.000   -0.000   -0.000
@  1      3    17.1179        0.0543   0.0465      -0.000   -0.000   -0.000
@  1      4    19.5925        0.0003   0.0017      -0.000   -0.000   -0.000
@  1      5    21.4435        0.0000   0.0005      -0.000   -0.000   -0.000
@ --------------------------------------------------------------------------
@  2      1     7.5266        0.0790   0.0476      -0.000   -0.000   -0.000
@  2      2    15.8870        0.0000   0.0026      -0.000   -0.000   -0.000
@  2      3    18.3895        0.0293   0.0230      -0.000   -0.000   -0.000
@  2      4    18.5886        0.0733   0.0989      -0.000   -0.000   -0.000
@  2      5    27.8625        0.2060   0.2944      -0.000   -0.000   -0.000
@  2      6    34.1423        0.0567   0.0816      -0.000   -0.000   -0.000
@ --------------------------------------------------------------------------
@  3      1    12.0642        0.0762   0.0645      -0.000   -0.000   -0.000
@  3      2    14.1244        0.2505   0.2323      -0.000   -0.000   -0.000
@  3      3    19.0127        0.1995   0.1929      -0.000   -0.000   -0.000
@  3      4    22.6047        0.0187   0.0230      -0.000   -0.000   -0.000
@  3      5    22.7277        0.0006   0.0001      -0.000   -0.000   -0.000
@ --------------------------------------------------------------------------
@  4      1     9.4813        0.0000   0.0000      -0.000   -0.000   -0.000
@  4      2    16.1698        0.0000   0.0000      -0.000   -0.000   -0.000
@  4      3    20.2068        0.0000   0.0000      -0.000   -0.000   -0.000
@  4      4    22.6993        0.0000   0.0000      -0.000   -0.000   -0.000
@  4      5    36.7776        0.0000   0.0000      -0.000   -0.000   -0.000
@ --------------------------------------------------------------------------


   Interatomic separations (in Angstrom):
   --------------------------------------

            O           H   _1      H   _2
            ------      ------      ------
 O     :    0.000000
 H   _1:    0.958391    0.000000
 H   _2:    0.958391    1.515066    0.000000


  Max    interatomic separation is    1.5151 Angstrom (    2.8631 Bohr)
  between atoms    3 and    2, "H   _2" and "H   _1".

  Min HX interatomic separation is    0.9584 Angstrom (    1.8111 Bohr)


  Bond distances (Angstrom):
  --------------------------

                  atom 1     atom 2       distance
                  ------     ------       --------
  bond distance:  H   _1     O            0.958391
  bond distance:  H   _2     O            0.958391


  Bond angles (degrees):
  ----------------------

                  atom 1     atom 2     atom 3         angle
                  ------     ------     ------         -----
  bond angle:     H   _1     O          H   _2       104.450




 CPU time statistics for ABACUS
 ------------------------------

 EXCITA     00:00:12     100 %

 TOTAL      00:00:12     100 %


  Total CPU  time used in ABACUS:  12.18 seconds
  Total wall time used in ABACUS:  12.20 seconds


                   .-------------------------------------------.
                   | End of Static Property Section (ABACUS) - |
                   `-------------------------------------------'

  Total CPU  time used in DALTON:  12.73 seconds
  Total wall time used in DALTON:  12.75 seconds

 
     Date and time (Linux)  : Wed Feb 15 12:28:18 2017
     Host name              : TESD11                                  
