

     ************************************************************************
     *************** Dalton - An Electronic Structure Program ***************
     ************************************************************************

    This is output from DALTON (Release Dalton2013 patch 0)
   ----------------------------------------------------------------------------
    NOTE:
     
    Dalton is an experimental code for the evaluation of molecular
    properties using (MC)SCF, DFT, CI, and CC wave functions.
    The authors accept no responsibility for the performance of
    the code or for the correctness of the results.
     
    The code (in whole or part) is provided under a licence and
    is not to be reproduced for further distribution without
    the written permission of the authors or their representatives.
     
    See the home page "http://daltonprogram.org" for further information.
     
    If results obtained with this code are published,
    the appropriate citations would be both of:
     
       K. Aidas, C. Angeli, K. L. Bak, V. Bakken, R. Bast,
       L. Boman, O. Christiansen, R. Cimiraglia, S. Coriani,
       P. Dahle, E. K. Dalskov, U. Ekstroem, T. Enevoldsen,
       J. J. Eriksen, P. Ettenhuber, B. Fernandez, L. Ferrighi,
       H. Fliegl, L. Frediani, K. Hald, A. Halkier, C. Haettig,
       H. Heiberg, T. Helgaker, A. C. Hennum, H. Hettema,
       E. Hjertenaes, S. Hoest, I.-M. Hoeyvik, M. F. Iozzi,
       B. Jansik, H. J. Aa. Jensen, D. Jonsson, P. Joergensen,
       J. Kauczor, S. Kirpekar, T. Kjaergaard, W. Klopper,
       S. Knecht, R. Kobayashi, H. Koch, J. Kongsted, A. Krapp,
       K. Kristensen, A. Ligabue, O. B. Lutnaes, J. I. Melo,
       K. V. Mikkelsen, R. H. Myhre, C. Neiss, C. B. Nielsen,
       P. Norman, J. Olsen, J. M. H. Olsen, A. Osted,
       M. J. Packer, F. Pawlowski, T. B. Pedersen, P. F. Provasi,
       S. Reine, Z. Rinkevicius, T. A. Ruden, K. Ruud, V. Rybkin,
       P. Salek, C. C. M. Samson, A. Sanchez de Meras, T. Saue,
       S. P. A. Sauer, B. Schimmelpfennig, K. Sneskov,
       A. H. Steindal, K. O. Sylvester-Hvid, P. R. Taylor,
       A. M. Teale, E. I. Tellgren, D. P. Tew, A. J. Thorvaldsen,
       L. Thoegersen, O. Vahtras, M. A. Watson, D. J. D. Wilson,
       M. Ziolkowski and H. Agren.
       The Dalton quantum chemistry program system.
       WIREs Comput. Mol. Sci. 2013. doi: 10.1002/wcms.1172
    
    and
    
       Dalton, a Molecular Electronic Structure Program,
       Release DALTON2013.0 (2013), see http://daltonprogram.org
   ----------------------------------------------------------------------------

    Authors in alphabetical order (major contribution(s) in parenthesis):

  Kestutis Aidas,           Vilnius University,           Lithuania   (QM/MM)
  Celestino Angeli,         University of Ferrara,        Italy       (NEVPT2)
  Keld L. Bak,              UNI-C,                        Denmark     (AOSOPPA, non-adiabatic coupling, magnetic properties)
  Vebjoern Bakken,          University of Oslo,           Norway      (DALTON; geometry optimizer, symmetry detection)
  Radovan Bast,             KTH Stockholm                 Sweden      (DALTON installation and execution frameworks)
  Linus Boman,              NTNU,                         Norway      (Cholesky decomposition and subsystems)
  Ove Christiansen,         Aarhus University,            Denmark     (CC module)
  Renzo Cimiraglia,         University of Ferrara,        Italy       (NEVPT2)
  Sonia Coriani,            University of Trieste,        Italy       (CC module, MCD in RESPONS)
  Paal Dahle,               University of Oslo,           Norway      (Parallelization)
  Erik K. Dalskov,          UNI-C,                        Denmark     (SOPPA)
  Thomas Enevoldsen,        Univ. of Southern Denmark,    Denmark     (SOPPA)
  Janus J. Eriksen,         Aarhus University,            Denmark     (PE-MP2/SOPPA, TDA)
  Berta Fernandez,          U. of Santiago de Compostela, Spain       (doublet spin, ESR in RESPONS)
  Lara Ferrighi,            Aarhus University,            Denmark     (PCM Cubic response)
  Heike Fliegl,             University of Oslo,           Norway      (CCSD(R12))
  Luca Frediani,            UiT The Arctic U. of Norway,  Norway      (PCM)
  Bin Gao,                  UiT The Arctic U. of Norway,  Norway      (Gen1Int library)
  Christof Haettig,         Ruhr-University Bochum,       Germany     (CC module)
  Kasper Hald,              Aarhus University,            Denmark     (CC module)
  Asger Halkier,            Aarhus University,            Denmark     (CC module)
  Hanne Heiberg,            University of Oslo,           Norway      (geometry analysis, selected one-electron integrals)
  Trygve Helgaker,          University of Oslo,           Norway      (DALTON; ABACUS, ERI, DFT modules, London, and much more)
  Alf Christian Hennum,     University of Oslo,           Norway      (Parity violation)
  Hinne Hettema,            University of Auckland,       New Zealand (quadratic response in RESPONS; SIRIUS supersymmetry)
  Eirik Hjertenaes,         NTNU,                         Norway      (Cholesky decomposition)
  Maria Francesca Iozzi,    University of Oslo,           Norway      (RPA)
  Brano Jansik              Technical Univ. of Ostrava    Czech Rep.  (DFT cubic response)
  Hans Joergen Aa. Jensen,  Univ. of Southern Denmark,    Denmark     (DALTON; SIRIUS, RESPONS, ABACUS modules, London, and much more)
  Dan Jonsson,              UiT The Arctic U. of Norway,  Norway      (cubic response in RESPONS module)
  Poul Joergensen,          Aarhus University,            Denmark     (RESPONS, ABACUS, and CC modules)
  Joanna Kauczor,           Linkoeping University,        Sweden      (Complex polarization propagator (CPP) module)
  Sheela Kirpekar,          Univ. of Southern Denmark,    Denmark     (Mass-velocity & Darwin integrals)
  Wim Klopper,              KIT Karlsruhe,                Germany     (R12 code in CC, SIRIUS, and ABACUS modules)
  Stefan Knecht,            ETH Zurich,                   Switzerland (Parallel CI and MCSCF)
  Rika Kobayashi,           Australian National Univ.,    Australia   (DIIS in CC, London in MCSCF)
  Henrik Koch,              NTNU,                         Norway      (CC module, Cholesky decomposition)
  Jacob Kongsted,           Univ. of Southern Denmark,    Denmark     (Polarizable embedding, QM/MM)
  Andrea Ligabue,           University of Modena,         Italy       (CTOCD, AOSOPPA)
  Ola B. Lutnaes,           University of Oslo,           Norway      (DFT Hessian)
  Juan I. Melo,             University of Buenos Aires,   Argentina   (LRESC, Relativistic Effects on NMR Shieldings)
  Kurt V. Mikkelsen,        University of Copenhagen,     Denmark     (MC-SCRF and QM/MM)
  Rolf H. Myhre,            NTNU,                         Norway      (Cholesky, subsystems and ECC2)
  Christian Neiss,          Univ. Erlangen-Nuernberg,     Germany     (CCSD(R12))
  Christian B. Nielsen,     University of Copenhagen,     Denmark     (QM/MM)
  Patrick Norman,           Linkoeping University,        Sweden      (Cubic response and complex response in RESPONS)
  Jeppe Olsen,              Aarhus University,            Denmark     (SIRIUS CI/density modules)
  Jogvan Magnus H. Olsen,   Univ. of Southern Denmark,    Denmark     (Polarizable embedding, PE library, QM/MM)
  Anders Osted,             Copenhagen University,        Denmark     (QM/MM)
  Martin J. Packer,         University of Sheffield,      UK          (SOPPA)
  Filip Pawlowski,          Kazimierz Wielki University   Poland      (CC3)
  Thomas B. Pedersen,       University of Oslo,           Norway      (Cholesky decomposition)
  Patricio F. Provasi,      University of Northeastern,   Argentina   (Analysis of coupling constants in localized orbitals)
  Zilvinas Rinkevicius,     KTH Stockholm,                Sweden      (open-shell DFT, ESR)
  Elias Rudberg,            KTH Stockholm,                Sweden      (DFT grid and basis info)
  Torgeir A. Ruden,         University of Oslo,           Norway      (Numerical derivatives in ABACUS)
  Kenneth Ruud,             UiT The Arctic U. of Norway,  Norway      (DALTON; ABACUS magnetic properties and  much more)
  Pawel Salek,              KTH Stockholm,                Sweden      (DALTON; DFT code)
  Claire C. M. Samson       University of Karlsruhe       Germany     (Boys localization, r12 integrals in ERI)
  Alfredo Sanchez de Meras, University of Valencia,       Spain       (CC module, Cholesky decomposition)
  Trond Saue,               Paul Sabatier University,     France      (direct Fock matrix construction)
  Stephan P. A. Sauer,      University of Copenhagen,     Denmark     (SOPPA(CCSD), SOPPA prop., AOSOPPA, vibrational g-factors)
  Bernd Schimmelpfennig,    Forschungszentrum Karlsruhe,  Germany     (AMFI module)
  Kristian Sneskov,         Aarhus University,            Denmark     (QM/MM, PE-CC)
  Arnfinn H. Steindal,      UiT The Arctic U. of Norway,  Norway      (parallel QM/MM)
  K. O. Sylvester-Hvid,     University of Copenhagen,     Denmark     (MC-SCRF)
  Peter R. Taylor,          VLSCI/Univ. of Melbourne,     Australia   (Symmetry handling ABACUS, integral transformation)
  Andrew M. Teale,          University of Nottingham,     England     (DFT-AC, DFT-D)
  David P. Tew,             University of Bristol,        England     (CCSD(R12))
  Olav Vahtras,             KTH Stockholm,                Sweden      (triplet response, spin-orbit, ESR, TDDFT, open-shell DFT)
  David J. Wilson,          La Trobe University,          Australia   (DFT Hessian and DFT magnetizabilities)
  Hans Agren,               KTH Stockholm,                Sweden      (SIRIUS module, RESPONS, MC-SCRF solvation model)
 --------------------------------------------------------------------------------

     Date and time (Linux)  : Sun Sep  8 21:08:27 2013
     Host name              : lpqlx131.ups-tlse.fr                    

 * Work memory size             :    64000000 =  488.28 megabytes.

 * Directories for basis set searches:
   1) /home/bast/DALTON-2013.0-Source/build/test_cc2_r12_aux_bh_sym_a3
   2) /home/bast/DALTON-2013.0-Source/build/basis


Compilation information
-----------------------

 Who compiled             | bast
 Host                     | lpqlx131.ups-tlse.fr
 System                   | Linux-3.8.5-201.fc18.x86_64
 CMake generator          | Unix Makefiles
 Processor                | x86_64
 64-bit integers          | OFF
 MPI                      | OFF
 Fortran compiler         | /usr/bin/gfortran
 Fortran compiler version | GNU Fortran (GCC) 4.7.2 20121109 (Red Hat 4.7.2-8)
 C compiler               | /usr/bin/gcc
 C compiler version       | gcc (GCC) 4.7.2 20121109 (Red Hat 4.7.2-8)
 C++ compiler             | /usr/bin/g++
 C++ compiler version     | g++ (GCC) 4.7.2 20121109 (Red Hat 4.7.2-8)
 Static linking           | OFF
 Last Git revision        | f34203295a86316e27f9e7b44f9b6769c4a046c0
 Configuration time       | 2013-09-08 20:31:27.952056


   Content of the .dal input file
 ----------------------------------

**DALTON INPUT                                    
.RUN WAVE FUNCTION                                
.DIRECT                                           
*MOLBAS                                           
.R12AUX                                           
**INTEGRALS                                       
.R12                                              
**WAVE FUNCTION                                   
.CC                                               
*ORBITAL INPUT                                    
.NOSUPSYM                                         
.MOSTART                                          
 H1DIAG                                           
*SCF INPUT                                        
.THRESH                                           
 1.0D-12                                          
*CC INPUT                                         
.CC2                                              
.PRINT                                            
 3                                                
.FROIMP                                           
  1 0 0 0                                         
  0 0 0 0                                         
.THRENR                                           
 1.0D-12                                          
.MAX IT                                           
 300                                              
*CCEXCI                                           
.THREXC                                           
 1.D-10                                           
.NCCEXCI                                          
 4 4 4 4                                          
*R12 INPUT                                        
.NO HYB                                           
.CC2                                              
 3B                                               
**END OF DALTON INPUT                             


   Content of the .mol file
 ----------------------------

BASIS                                                                          
Ahlrichs-VTZ Ahlrichs-VTZ                                                      
BH                                                                             
                                                                               
    4  0 2  X  Y      0.10D-14                                                 
 1      5.    1    3    3    2    1                                            
B        0.0000000000000     0.0000000000000     0.0000000000000               
 1      1.    1                                                                
H        0.0000000000000     0.0000000000000     2.3288983083247               
 2      5.0   1                                                                
B        0.0000000000000     0.0000000000000     0.0000000000000               
 2      1.0   1                                                                
H        0.0000000000000     0.0000000000000     2.3288983083247               


       *******************************************************************
       *********** Output from DALTON general input processing ***********
       *******************************************************************

 --------------------------------------------------------------------------------
   Overall default print level:    0
   Print level for DALTON.STAT:    1

    AO-direct calculation (in sections where implemented)
    HERMIT 1- and 2-electron integral sections will be executed
    "Old" integral transformation used (limited to max 255 basis functions)
    Wave function sections will be executed (SIRIUS module)
 --------------------------------------------------------------------------------


 Changes of defaults for *MOLBAS:
 --------------------------------

 Print level in molecule setup (READIN):    1

 .R12AUX: Reading auxiliary basis sets from .mol file for R12



   ****************************************************************************
   *************** Output of molecule and basis set information ***************
   ****************************************************************************


    The two title cards from your ".mol" input:
    ------------------------------------------------------------------------
 1: BH                                                                      
 2:                                                                         
    ------------------------------------------------------------------------

  Atomic type no.    1
  --------------------
  Nuclear charge:   5.00000
  Number of symmetry independent centers:    1
  Number of basis sets to read;    1
  Basis set file used for this atomic type with Z =   5 :
     "/home/bast/DALTON-2013.0-Source/build/basis/Ahlrichs-VTZ"

  Atomic type no.    2
  --------------------
  Nuclear charge:   1.00000
  Number of symmetry independent centers:    1
  Number of basis sets to read;    1
  Basis set file used for this atomic type with Z =   1 :
     "/home/bast/DALTON-2013.0-Source/build/basis/Ahlrichs-VTZ"

  Atomic type no.    3
  --------------------
  Nuclear charge:   5.00000
  Number of symmetry independent centers:    1
  This is an auxiliary basis for R12, MBSI:    2
  Basis set file used for this atomic type with Z =   5 :
     "/home/bast/DALTON-2013.0-Source/build/basis/Ahlrichs-VTZ"

  Atomic type no.    4
  --------------------
  Nuclear charge:   1.00000
  Number of symmetry independent centers:    1
  This is an auxiliary basis for R12, MBSI:    2
  Basis set file used for this atomic type with Z =   1 :
     "/home/bast/DALTON-2013.0-Source/build/basis/Ahlrichs-VTZ"


                         SYMGRP: Point group information
                         -------------------------------

Point group: C2v

   * The point group was generated by:

      Reflection in the yz-plane
      Reflection in the xz-plane

   * Group multiplication table

        |  E   C2z  Oxz  Oyz
   -----+--------------------
     E  |  E   C2z  Oxz  Oyz
    C2z | C2z   E   Oyz  Oxz
    Oxz | Oxz  Oyz   E   C2z
    Oyz | Oyz  Oxz  C2z   E 

   * Character table

        |  E   C2z  Oxz  Oyz
   -----+--------------------
    A1  |   1    1    1    1
    B1  |   1   -1    1   -1
    B2  |   1   -1   -1    1
    A2  |   1    1   -1   -1

   * Direct product table

        | A1   B1   B2   A2 
   -----+--------------------
    A1  | A1   B1   B2   A2 
    B1  | B1   A1   A2   B2 
    B2  | B2   A2   A1   B1 
    A2  | A2   B2   B1   A1 


                                 Isotopic Masses
                                 ---------------

                           B          11.009305
                           H           1.007825
                           B           0.000000
                           H           0.000000

                       Total mass:    12.017130 amu
                       Natural abundance:   0.000 %

 Center-of-mass coordinates (a.u.):    0.000000    0.000000    0.195315


  Atoms and basis sets
  --------------------

  Number of atom types :    4
  Total number of atoms:    4

  Basis set 1 refers to the basis "Ahlrichs-VTZ" from the basis set library.

  Basis set 2 refers to the basis "Ahlrichs-VTZ" from the basis set library.

  label  basis   atoms  charge   prim  cont     basis
  ------------------------------------------------------------------------------
  B        1       1    5.0000    28    15      [10s6p|6s3p]                                       
  H        1       1    1.0000     5     3      [5s|3s]                                            
  B        2       1    0.0000    28    15      [10s6p|6s3p]                                       
  H        2       1    0.0000     5     3      [5s|3s]                                            
  ------------------------------------------------------------------------------
  total:           4    6.0000    66    36
  ------------------------------------------------------------------------------

  Threshold for neglecting AO integrals:  1.00D-15


  Cartesian Coordinates (a.u.)
  ----------------------------

  Total number of coordinates:   12
  B       :     1  x   0.0000000000    2  y   0.0000000000    3  z   0.0000000000
  H       :     4  x   0.0000000000    5  y   0.0000000000    6  z   2.3288983083
  B       :     7  x   0.0000000000    8  y   0.0000000000    9  z   0.0000000000
  H       :    10  x   0.0000000000   11  y   0.0000000000   12  z   2.3288983083


  Symmetry Coordinates
  --------------------

  Number of coordinates in each symmetry:     4    4    4    0

  Symmetry  A1  ( 1)

    1   B     z    3
    2   H     z    6
    3   B     z    9
    4   H     z   12

  Symmetry  B1  ( 2)

    5   B     x    1
    6   H     x    4
    7   B     x    7
    8   H     x   10

  Symmetry  B2  ( 3)

    9   B     y    2
   10   H     y    5
   11   B     y    8
   12   H     y   11


   Interatomic separations (in Angstrom):
   --------------------------------------

            B           H           B           H     
            ------      ------      ------      ------
 B     :    0.000000
 H     :    1.232400    0.000000
 B     :    0.000000    1.232400    0.000000
 H     :    1.232400    0.000000    1.232400    0.000000


  Max    interatomic separation is    1.2324 Angstrom (    2.3289 Bohr)
  between atoms    2 and    1, "H     " and "B     ".

  Min HX interatomic separation is    0.0000 Angstrom (    0.0000 Bohr)

  Min YX interatomic separation is    0.0000 Angstrom (    0.0000 Bohr)

WARNING: Number of short HX and YX bond lengths:    1    1
WARNING: If not intentional, maybe your coordinates were in Angstrom,
WARNING: but "Angstrom" was not specified in .mol file


  Bond distances (Angstrom):
  --------------------------

                  atom 1     atom 2       distance
                  ------     ------       --------
  bond distance:  H          B            1.232400


  Bond angles (degrees):
  ----------------------

                  atom 1     atom 2     atom 3         angle
                  ------     ------     ------         -----
     No angles found




 Principal moments of inertia (u*A**2) and principal axes
 --------------------------------------------------------

   IA       0.000000          0.000000    0.000000    1.000000
   IB       1.402321          0.000000    1.000000    0.000000
   IC       1.402321          1.000000    0.000000    0.000000


 Rotational constants
 --------------------

 The molecule is linear.

               B =       360387.41 MHz     (   12.021230 cm-1)


@  Nuclear repulsion energy :    2.146937881370 Hartree


  Symmetry Orbitals
  -----------------

  Number of orbitals in each symmetry:          24    6    6    0

  Number of main orbitals in each symmetry:          12    3    3    0
  Number of auxiliary functions in each symmetry:    12    3    3    0


  Symmetry  A1 ( 1)

    1     B    M   1s         1
    2     B    M   1s         2
    3     B    M   1s         3
    4     B    M   1s         4
    5     B    M   1s         5
    6     B    M   1s         6
    7     B    M   2pz        9
    8     B    M   2pz       12
    9     B    M   2pz       15
   10     H    M   1s        16
   11     H    M   1s        17
   12     H    M   1s        18
   13     B    A   1s        19
   14     B    A   1s        20
   15     B    A   1s        21
   16     B    A   1s        22
   17     B    A   1s        23
   18     B    A   1s        24
   19     B    A   2pz       27
   20     B    A   2pz       30
   21     B    A   2pz       33
   22     H    A   1s        34
   23     H    A   1s        35
   24     H    A   1s        36


  Symmetry  B1 ( 2)

   25     B    M   2px        7
   26     B    M   2px       10
   27     B    M   2px       13
   28     B    A   2px       25
   29     B    A   2px       28
   30     B    A   2px       31


  Symmetry  B2 ( 3)

   31     B    M   2py        8
   32     B    M   2py       11
   33     B    M   2py       14
   34     B    A   2py       26
   35     B    A   2py       29
   36     B    A   2py       32


  No orbitals in symmetry  A2 ( 4)

  Number of floating/multiple basis set orbitals :    2

  Symmetries of electric field:  B1 (2)  B2 (3)  A1 (1)

  Symmetries of magnetic field:  B2 (3)  B1 (2)  A2 (4)


                     .---------------------------------------.
                     | Starting in Integral Section (HERMIT) |
                     `---------------------------------------'



    *************************************************************************
    ****************** Output from HERMIT input processing ******************
    *************************************************************************


 Default print level:        1

 * Nuclear model: Point charge

 Calculation of one-electron Hamiltonian integrals.

 The following one-electron property integrals are calculated as requested:
          - overlap integrals
          - Cartesian multipole moment integrals of orders 2 and lower

 Center of mass  (bohr):      0.000000000000      0.000000000000      0.195314683089
 Operator center (bohr):      0.000000000000      0.000000000000      0.000000000000
 Gauge origin    (bohr):      0.000000000000      0.000000000000      0.000000000000
 Dipole origin   (bohr):      0.000000000000      0.000000000000      0.000000000000


     ************************************************************************
     ************************** Output from HERINT **************************
     ************************************************************************

 >>>> Total CPU  time used in HERMIT:   0.03 seconds
 >>>> Total wall time used in HERMIT:   0.03 seconds


                        .----------------------------------.
                        | End of Integral Section (HERMIT) |
                        `----------------------------------'



                   .--------------------------------------------.
                   | Starting in Wave Function Section (SIRIUS) |
                   `--------------------------------------------'

 NCCEXCI for singlet:           4           4           4           4

 >>>> Detected R12 input:
 Direct Fock matrix formation switched on!
 Scale factors for CC excitations manifolds:
 for bra states (projection manifold):   1.0000000000000000     
 for ket states (operator manifold)  :   1.0000000000000000     

 **********************************************************************
 *SIRIUS* a direct, restricted step, second order MCSCF program       *
 **********************************************************************

 
     Date and time (Linux)  : Sun Sep  8 21:08:27 2013
     Host name              : lpqlx131.ups-tlse.fr                    

 Title lines from ".mol" input file:
     BH                                                                      
                                                                             

 Print level on unit LUPRI =   2 is   0
 Print level on unit LUW4  =   2 is   5

@    (Integral direct) CC calculation.

@    This is a combination run starting with
@              a restricted, closed shell Hartree-Fock calculation

 Fock matrices are calculated directly without use of integrals on disk.

 Initial molecular orbitals are obtained according to
 ".MOSTART H1DIAG" input option

     Wave function specification
     ============================

     For the specification of the Coupled Cluster: see later.

@    For the wave function of type :      >>> CC <<<
@    Number of closed shell electrons           6
@    Number of electrons in active shells       0
@    Total charge of the molecule               0

@    Spin multiplicity and 2 M_S                1         0
     Total number of symmetries                 4
@    Reference state symmetry                   1

     Orbital specifications
     ======================
     Abelian symmetry species          All |    1    2    3    4
                                       --- |  ---  ---  ---  ---
     Total number of orbitals           18 |   12    3    3    0
     Number of basis functions          36 |   24    6    6    0

      ** Automatic occupation of RHF orbitals **

      -- Initial occupation of symmetries is determined from diagonal of H1 matrix.           
      -- Initial occupation of symmetries is :
@    Occupied SCF orbitals               3 |    2    0    1    0

     Maximum number of Fock   iterations      0
     Maximum number of DIIS   iterations     60
     Maximum number of QC-SCF iterations     60
     Threshold for SCF convergence     1.00D-12


 Changes of defaults for CC:
 ---------------------------


 -This is a direct atomic orbital integral based
  calculation for coupled cluster wave function

 -Implicit frozen core calculation
 -Excitation energies calculated
  


 >>>>> DIIS optimization of Hartree-Fock <<<<<

 C1-DIIS algorithm; max error vectors =   10

 Automatic occupation of symmetries with   6 electrons.

 Iter     Total energy    Error norm  Delta(E)    SCF occupation
 -----------------------------------------------------------------------------
   1  Screening settings (-IFTHRS, DIFDEN)   -6    T
@  1  -22.3535825750       6.65D+00  -2.24D+01     2   0   1   0
      Virial theorem: -V/T =      1.643673
@      MULPOP B      -0.90; H       0.90; 
 -----------------------------------------------------------------------------
   2  Screening settings (-IFTHRS, DIFDEN)   -6    T
@  2  -24.4963667390       1.63D+00  -2.14D+00     3   0   0   0
      Virial theorem: -V/T =      2.065617
@      MULPOP B       0.51; H      -0.51; 
 -----------------------------------------------------------------------------
   3  Screening settings (-IFTHRS, DIFDEN)   -6    T
@  3  -25.1039605935       3.16D-01  -6.08D-01     3   0   0   0
      Virial theorem: -V/T =      1.997316
@      MULPOP B       0.03; H      -0.03; 
 -----------------------------------------------------------------------------
   4  Screening settings (-IFTHRS, DIFDEN)   -8    F
@  4  -25.1180088815       8.58D-02  -1.40D-02     3   0   0   0
      Virial theorem: -V/T =      1.999348
@      MULPOP B       0.08; H      -0.08; 
 -----------------------------------------------------------------------------
   5  Screening settings (-IFTHRS, DIFDEN)   -8    T
@  5  -25.1195518811       1.09D-02  -1.54D-03     3   0   0   0
      Virial theorem: -V/T =      2.000137
@      MULPOP B       0.10; H      -0.10; 
 -----------------------------------------------------------------------------
   6  Screening settings (-IFTHRS, DIFDEN)   -8    T
@  6  -25.1195863491       1.52D-03  -3.45D-05     3   0   0   0
      Virial theorem: -V/T =      2.000127
@      MULPOP B       0.10; H      -0.10; 
 -----------------------------------------------------------------------------
   7  Screening settings (-IFTHRS, DIFDEN)  -10    F
@  7  -25.1195868705       3.10D-04  -5.21D-07     3   0   0   0
      Virial theorem: -V/T =      2.000144
@      MULPOP B       0.10; H      -0.10; 
 -----------------------------------------------------------------------------
   8  Screening settings (-IFTHRS, DIFDEN)  -10    T
@  8  -25.1195868948       4.76D-05  -2.43D-08     3   0   0   0
      Virial theorem: -V/T =      2.000155
@      MULPOP B       0.10; H      -0.10; 
 -----------------------------------------------------------------------------
   9  Screening settings (-IFTHRS, DIFDEN)  -12    F
@  9  -25.1195868955       3.98D-06  -6.55D-10     3   0   0   0
      Virial theorem: -V/T =      2.000155
@      MULPOP B       0.10; H      -0.10; 
 -----------------------------------------------------------------------------
  10  Screening settings (-IFTHRS, DIFDEN)  -12    T
@ 10  -25.1195868955       2.99D-07  -3.61D-12     3   0   0   0
      Virial theorem: -V/T =      2.000155
@      MULPOP B       0.10; H      -0.10; 
 -----------------------------------------------------------------------------
  11  Screening settings (-IFTHRS, DIFDEN)  -14    F
@ 11  -25.1195868955       4.24D-08   1.42D-14     3   0   0   0
      Virial theorem: -V/T =      2.000155
@      MULPOP B       0.10; H      -0.10; 
 -----------------------------------------------------------------------------
  12  Screening settings (-IFTHRS, DIFDEN)  -17    F
@ 12  -25.1195868955       2.12D-09   7.11D-15     3   0   0   0
      Virial theorem: -V/T =      2.000155
@      MULPOP B       0.10; H      -0.10; 
 -----------------------------------------------------------------------------
  13  Screening settings (-IFTHRS, DIFDEN)  -17    T
@ 13  -25.1195868955       2.49D-10  -7.11D-15     3   0   0   0
      Virial theorem: -V/T =      2.000155
@      MULPOP B       0.10; H      -0.10; 
 -----------------------------------------------------------------------------
  14  Screening settings (-IFTHRS, DIFDEN)  -17    T
@ 14  -25.1195868955       2.18D-11   7.11D-15     3   0   0   0
      Virial theorem: -V/T =      2.000155
@      MULPOP B       0.10; H      -0.10; 
 -----------------------------------------------------------------------------
  15  Screening settings (-IFTHRS, DIFDEN)  -17    T
@ 15  -25.1195868955       2.86D-12   0.00D+00     3   0   0   0
      Virial theorem: -V/T =      2.000155
@      MULPOP B       0.10; H      -0.10; 
 -----------------------------------------------------------------------------
  16  Screening settings (-IFTHRS, DIFDEN)  -17    T
@ 16  -25.1195868955       1.62D-13   0.00D+00     3   0   0   0

@ *** DIIS converged in  16 iterations !
@     Converged SCF energy, gradient:    -25.119586895472    1.62D-13
    - total time used in SIRFCK :              0.00 seconds


 *** SCF orbital energy analysis ***

 Only the five lowest virtual orbital energies printed in each symmetry.

 Number of electrons :    6
 Orbital occupations :    3    0    0    0

 Sym       Hartree-Fock orbital energies

  1     -7.69107686    -0.65383587    -0.34398410     0.19694241     0.22974817
         0.31788350     0.62213280     1.11189676

  2      0.04297197     0.27160039     1.12999669

  3      0.04297197     0.27160039     1.12999669

    E(LUMO) :     0.04297197 au (symmetry 2)
  - E(HOMO) :    -0.34398410 au (symmetry 1)
  ------------------------------------------
    gap     :     0.38695606 au

 >>> Writing SIRIFC interface file <<<

  Canonical primary and secondary basis sets
  ISYM       NORB1 MBAS1       NORB2 MBAS2
     1          12    12          12    12
     2           3     3           3     3
     3           3     3           3     3
     4           0     0           0     0

 Computation of exchange matrix done [6]

 AUXILIARY BASIS LOW EIGENVALUES
 ISYM         EIGENVALUE
   1      0.004365940336
   2      0.004405629752
   3      0.004405629752

 >>>> CPU and wall time for SCF :       0.098       0.099


                       .-----------------------------------.
                       | >>> Final results from SIRIUS <<< |
                       `-----------------------------------'


@    Spin multiplicity:           1
@    Spatial symmetry:            1
@    Total charge of molecule:    0

@    Final HF energy:             -25.119586895472                 
@    Nuclear repulsion:             2.146937881370
@    Electronic energy:           -27.266524776842

@    Final gradient norm:           0.000000000000

 
     Date and time (Linux)  : Sun Sep  8 21:08:27 2013
     Host name              : lpqlx131.ups-tlse.fr                    

 (Only coefficients >0.0100 are printed.)

 Molecular orbitals for symmetry species  1
 ------------------------------------------

    Orbital         1        2        3        4        5
   1 B   :1s    -0.3153  -0.0520   0.0397   0.0033  -0.0294
   2 B   :1s    -0.4363  -0.0921   0.0727  -0.0017  -0.0669
   3 B   :1s    -0.3499  -0.1273   0.0963   0.0301  -0.0390
   4 B   :1s    -0.0387   0.1024  -0.0742  -0.1654  -0.1769
   5 B   :1s     0.0125   0.4199  -0.3552   0.5017   1.0315
   6 B   :1s    -0.0036   0.1369  -0.4961  -1.8786   0.8435
   7 B   :2pz    0.0032  -0.1597  -0.3013  -0.0689  -0.1647
   8 B   :2pz    0.0028   0.0862   0.2229   0.3715   0.5067
   9 B   :2pz   -0.0014  -0.0052   0.1030  -2.0244   0.7492
  10 H   :1s    -0.0002   0.1607   0.0978   0.0658  -0.0496
  11 H   :1s    -0.0021   0.2870   0.2345   0.0559   0.2488
  12 H   :1s     0.0014   0.0995   0.2096   1.8255  -2.5123

 Molecular orbitals for symmetry species  2
 ------------------------------------------

    Orbital         1        2
   1 B   :2px   -0.2763  -0.2866
   2 B   :2px    0.2137   1.0567
   3 B   :2px    0.6961  -1.2068

 Molecular orbitals for symmetry species  3
 ------------------------------------------

    Orbital         1        2
   1 B   :2py    0.2763  -0.2866
   2 B   :2py   -0.2137   1.0567
   3 B   :2py   -0.6961  -1.2068



 >>>> Total CPU  time used in SIRIUS :      0.10 seconds
 >>>> Total wall time used in SIRIUS :      0.10 seconds

 
     Date and time (Linux)  : Sun Sep  8 21:08:27 2013
     Host name              : lpqlx131.ups-tlse.fr                    


                     .---------------------------------------.
                     | End of Wave Function Section (SIRIUS) |
                     `---------------------------------------'



                    .------------------------------------------.
                    | Starting in Coupled Cluster Section (CC) |
                    `------------------------------------------'

  

 *******************************************************************************
 *******************************************************************************
 *                                                                             *
 *                                                                             *
 *                    START OF COUPLED CLUSTER CALCULATION                     *
 *                                                                             *
 *                                                                             *
 *******************************************************************************
 *******************************************************************************



 CCR12 ANSATZ =   3

 CCR12 APPROX =  10

   NRHF   :       2       0       0       0
   NRHFS  :       3       0       0       0
   NORB1  :      12       3       3       0
   NORB2  :      12       3       3       0

 Number of primary orbitals             :           18
 Number of secondary orbitals           :           18
 Total number of orbitals               :           36
 Total number of basis functions        :           36
 Number of (i|p') integrals             :           48
 Number of (i|u') integrals             :           48
 Number of (Ip'|1/r12|jL) integrals     :           48
 Number of (ip'|1/r12|jq') integrals    :         1332
 Number of (ip'|r12|jq') integrals      :         1332
 Number of (ip'|[T1,r12]|jq') integrals :         2592
 Threshold for R12 contributions            =  0.00000    
 Threshold for singular value decomposition = 0.100000E-11

 The B matrix is transformed into an orthogonal basis
 and inverted by diagonalization

 ******************************************************************************
 The MP2-R12/A and MP2-R12/B energies are computed as described in:
 W. Klopper and C. C. M. Samson, J. Chem. Phys. 116, 6397-6410 (2002).
 ------------------------------------------------------------------------------
 Ansatz 3 is used and results are printed for approximations A and B.
 ******************************************************************************

 Core memory required by CCSD_R12 :           8620  (double words)

 Computation of (ip'|r12|jq') integrals done
 >>>  Time used in R  [6]     is   0.98 seconds
 Backtransformation of (ip'|r12|jq') integrals done
 Computation of V^aj_kl intermediate done

 >>> Time used for V^aj_kl is    0.00 seconds

 Computation of (ip'|1/r12|jq') integrals done
 >>>  Time used in 1/R[5]     is   0.44 seconds
 Computation of (ip'|r12|jq')X(p'r')(kr'|r12|lq') integrals done
 Computation of (i'p'|r12|jq') integrals done
 >>>  Time used in R  [6]     is   0.98 seconds
 Computation of (ip'|[T,r12]|jq') integrals done
 >>>  Time used in T,R[5]     is   0.64 seconds


          +-------------------------------------------------------------+
          ! MP2-R12 ansatz := (1 - V1*V2) * (1 - O1 - O2 + O1*O2) * R12 !
          +-------------------------------------------------------------+



                         +--------------------------------+
                         ! Auxiliary-basis MP2-R12 method !
                         +--------------------------------+


 SECOND-ORDER R12/B   PAIR ENERGIES:

   1   -0.013126982   -0.025172442    0.000000000   -0.000000000     2.60760         2.57940    
   2   -0.009773730   -0.016098920   -0.002949470   -0.006678955     2.29630         2.26935    
   3   -0.014728373   -0.024947338    0.000000000   -0.000000000     1.98406         1.95925    

       -0.037629085   -0.066218701   -0.002949470   -0.006678955

              MP2-R12/B   correlation energy =   -0.072897655
 Time for MP2-R12 part cpu :   3.0519999999999996     
 Time for MP2-R12 part wall:   3.0730000138282776     
 Preparing R12 Ansatz 2/3 ... ONEAUX= F
   

 *******************************************************************
 *                                                                 *
 *<<<<<<<<<<                                             >>>>>>>>>>*
 *<<<<<<<<<< OUTPUT FROM COUPLED CLUSTER ENERGY PROGRAM  >>>>>>>>>>*
 *<<<<<<<<<<                                             >>>>>>>>>>*
 *                                                                 *
 *******************************************************************


             The Direct Coupled Cluster Energy Program
             -----------------------------------------


          Number of t1 amplitudes                 :        18
          Number of t2 amplitudes                 :       213
          Number of t2' amplitudes for R12 part   :        10
          Total number of amplitudes in ccsd      :       241

 Iter.  1: Coupled cluster MP2-R12/B energy :     -25.1924845508222788
     Conventional correlation energy:    -0.0407155040960561
     R12 correlation energy         :    -0.0321821512539897
     Total correlation energy       :    -0.0728976553500457


       Iteration no.:  1
       -----------------

       Time used in   RHS - TOTAL  :       0.20 seconds
       Norm^2 of omega1 after ccvec:        0.1583570108D-03
       Norm^2 of omega2 after ccvec:        0.3509196133D-28
       Norm^2 of Omegar12  in NXTAM:        0.1221619209D-26
 Iter.  1: Coupled cluster CC2-R12/B energy :     -25.1924658871026885
     Conventional correlation energy:    -0.0406968403764587
     R12 correlation energy         :    -0.0321821512539988
     Total correlation energy       :    -0.0728789916304575


       Iteration no.:  2
       -----------------

       Time used in   RHS - TOTAL  :       0.21 seconds
       Norm^2 of omega1 after ccvec:        0.6110999372D-05
       Norm^2 of omega2 after ccvec:        0.8121094091D-05
       Norm^2 of Omegar12  in NXTAM:        0.2717382599D-06
 Iter.  2: Coupled cluster CC2-R12/B energy :     -25.1927784917149502
     Conventional correlation energy:    -0.0409334491362863
     R12 correlation energy         :    -0.0322581471064312
     Total correlation energy       :    -0.0731915962427175


       Iteration no.:  3
       -----------------

       Time used in   RHS - TOTAL  :       0.21 seconds
       Norm^2 of omega1 after ccvec:        0.2707951860D-06
       Norm^2 of omega2 after ccvec:        0.6280170761D-07
       Norm^2 of Omegar12  in NXTAM:        0.8663782160D-08
 Iter.  3: Coupled cluster CC2-R12/B energy :     -25.1928123030159838
     Conventional correlation energy:    -0.0409519893498960
     R12 correlation energy         :    -0.0322734181938580
     Total correlation energy       :    -0.0732254075437540


       Iteration no.:  4
       -----------------

       Time used in   RHS - TOTAL  :       0.20 seconds
       Norm^2 of omega1 after ccvec:        0.7420450642D-08
       Norm^2 of omega2 after ccvec:        0.5724606127D-08
       Norm^2 of Omegar12  in NXTAM:        0.2515635551D-09
 Iter.  4: Coupled cluster CC2-R12/B energy :     -25.1928103349418855
     Conventional correlation energy:    -0.0409517068442931
     R12 correlation energy         :    -0.0322717326253615
     Total correlation energy       :    -0.0732234394696546


       Iteration no.:  5
       -----------------

       Time used in   RHS - TOTAL  :       0.21 seconds
       Norm^2 of omega1 after ccvec:        0.1907835380D-09
       Norm^2 of omega2 after ccvec:        0.1344264557D-09
       Norm^2 of Omegar12  in NXTAM:        0.2175123759D-11
 Iter.  5: Coupled cluster CC2-R12/B energy :     -25.1928102462625105
     Conventional correlation energy:    -0.0409519787592707
     R12 correlation energy         :    -0.0322713720310089
     Total correlation energy       :    -0.0732233507902796


       Iteration no.:  6
       -----------------

       Time used in   RHS - TOTAL  :       0.21 seconds
       Norm^2 of omega1 after ccvec:        0.9528262807D-11
       Norm^2 of omega2 after ccvec:        0.4247551515D-11
       Norm^2 of Omegar12  in NXTAM:        0.2567777563D-12
 Iter.  6: Coupled cluster CC2-R12/B energy :     -25.1928102579143562
     Conventional correlation energy:    -0.0409521082845856
     R12 correlation energy         :    -0.0322712541575403
     Total correlation energy       :    -0.0732233624421259


       Iteration no.:  7
       -----------------

       Time used in   RHS - TOTAL  :       0.20 seconds
       Norm^2 of omega1 after ccvec:        0.2044983350D-12
       Norm^2 of omega2 after ccvec:        0.1276576960D-12
       Norm^2 of Omegar12  in NXTAM:        0.1384074462D-13
 Iter.  7: Coupled cluster CC2-R12/B energy :     -25.1928102665812936
     Conventional correlation energy:    -0.0409521033178031
     R12 correlation energy         :    -0.0322712677912584
     Total correlation energy       :    -0.0732233711090615


       Iteration no.:  8
       -----------------

       Time used in   RHS - TOTAL  :       0.21 seconds
       Norm^2 of omega1 after ccvec:        0.1023946939D-13
       Norm^2 of omega2 after ccvec:        0.3233237189D-14
       Norm^2 of Omegar12  in NXTAM:        0.6592476928D-16
 Iter.  8: Coupled cluster CC2-R12/B energy :     -25.1928102644859102
     Conventional correlation energy:    -0.0409520988640324
     R12 correlation energy         :    -0.0322712701496464
     Total correlation energy       :    -0.0732233690136788


       Iteration no.:  9
       -----------------

       Time used in   RHS - TOTAL  :       0.21 seconds
       Norm^2 of omega1 after ccvec:        0.3470822839D-15
       Norm^2 of omega2 after ccvec:        0.2684674493D-15
       Norm^2 of Omegar12  in NXTAM:        0.1652332601D-16
 Iter.  9: Coupled cluster CC2-R12/B energy :     -25.1928102641453577
     Conventional correlation energy:    -0.0409520980425739
     R12 correlation energy         :    -0.0322712706305533
     Total correlation energy       :    -0.0732233686731273


       Iteration no.: 10
       -----------------

       Time used in   RHS - TOTAL  :       0.21 seconds
       Norm^2 of omega1 after ccvec:        0.6355790285D-16
       Norm^2 of omega2 after ccvec:        0.3707755367D-16
       Norm^2 of Omegar12  in NXTAM:        0.1412371228D-17
 Iter. 10: Coupled cluster CC2-R12/B energy :     -25.1928102640729250
     Conventional correlation energy:    -0.0409520976488196
     R12 correlation energy         :    -0.0322712709518742
     Total correlation energy       :    -0.0732233686006937


       Iteration no.: 11
       -----------------

       Time used in   RHS - TOTAL  :       0.21 seconds
       Norm^2 of omega1 after ccvec:        0.1900065681D-17
       Norm^2 of omega2 after ccvec:        0.1370170478D-17
       Norm^2 of Omegar12  in NXTAM:        0.5550208555D-19
 Iter. 11: Coupled cluster CC2-R12/B energy :     -25.1928102640757530
     Conventional correlation energy:    -0.0409520975933084
     R12 correlation energy         :    -0.0322712710102143
     Total correlation energy       :    -0.0732233686035227


       Iteration no.: 12
       -----------------

       Time used in   RHS - TOTAL  :       0.21 seconds
       Norm^2 of omega1 after ccvec:        0.1235018191D-18
       Norm^2 of omega2 after ccvec:        0.6230180697D-19
       Norm^2 of Omegar12  in NXTAM:        0.1384956035D-20
 Iter. 12: Coupled cluster CC2-R12/B energy :     -25.1928102640771669
     Conventional correlation energy:    -0.0409520975980193
     R12 correlation energy         :    -0.0322712710069155
     Total correlation energy       :    -0.0732233686049348


       Iteration no.: 13
       -----------------

       Time used in   RHS - TOTAL  :       0.20 seconds
       Norm^2 of omega1 after ccvec:        0.1841212617D-20
       Norm^2 of omega2 after ccvec:        0.1315727356D-20
       Norm^2 of Omegar12  in NXTAM:        0.4982698908D-22
 Iter. 13: Coupled cluster CC2-R12/B energy :     -25.1928102640770497
     Conventional correlation energy:    -0.0409520975998028
     R12 correlation energy         :    -0.0322712710050164
     Total correlation energy       :    -0.0732233686048192


       Iteration no.: 14
       -----------------

       Time used in   RHS - TOTAL  :       0.20 seconds
       Norm^2 of omega1 after ccvec:        0.5022850885D-22
       Norm^2 of omega2 after ccvec:        0.3600585584D-22
       Norm^2 of Omegar12  in NXTAM:        0.1115954140D-23
 Iter. 14: Coupled cluster CC2-R12/B energy :     -25.1928102640769254
     Conventional correlation energy:    -0.0409520975997850
     R12 correlation energy         :    -0.0322712710049104
     Total correlation energy       :    -0.0732233686046954


 CC2-R12/B energy converged to within   0.10D-11 is          -25.192810264077
 Final 2-norm of the CC vector function:  9.28624600D-12
 R12       energy converged to within   0.10D-11 is     -0.032271271


                    +------------------------------------------+
                    ! Largest amplitudes in converged solution !
                    +------------------------------------------+



          CC_PRAM:Overall Contribution of the Different Components
          --------------------------------------------------------



          Single Excitation Contribution :               1.3693 %

          Double Excitation Contribution :              98.6307 %

          ||T1||/||T2||                  :               0.1178

          Tau1 diagnostic                :               0.0077

          Norm of Total Amplitude Vector :               0.1319


 +=============================================================================+
 | symmetry|  orbital index  |   Excitation Numbers             |   Amplitude  |
 |  Index  |   a   b   i   j |      NAI      NBJ |     NAIBJ    |              |
 +=============================================================================+
 | 1   1   |   2       1     |        2          |              |    0.011714  |
 | 1   1   |   4       1     |        4          |              |   -0.004923  |
 | 1   1   |   1       2     |       10          |              |    0.005496  |
 | 1   1   |   5       2     |       14          |              |   -0.004151  |
 +-----------------------------------------------------------------------------+
 | 1 1 1 1 |   3   3   2   2 |       12       12 |           78 |   -0.043281  |
 | 2 2 1 1 |   1   1   2   2 |        4        4 |          181 |   -0.039454  |
 | 3 3 1 1 |   1   1   2   2 |        4        4 |          202 |   -0.039454  |
 +=============================================================================+


          Norm of Printed Amplitude Vector :             0.0721

          Printed all single excitations greater than 0.003901

          Printed all double excitations greater than 0.033104





             +-------------------------------------------------------+
             ! Final results from the Coupled Cluster energy program !
             +-------------------------------------------------------+



            Total SCF   energy:                   -25.1195868955

            Total MP2-R12/B energy:               -25.1924845508

            Total CC2-R12/B energy:               -25.1928102641




                   +--------------------------------------------+
                   ! Calculating singlet intermediates for CCLR !
                   +--------------------------------------------+



       Time used in   RHS - TOTAL  :       0.21 seconds


            E-intermediates calculated 
            Fock-intermediate calculated 


   

 *******************************************************************
 *                                                                 *
 *<<<<<<<<<< OUTPUT FROM COUPLED CLUSTER LINEAR RESPONSE >>>>>>>>>>*
 *                                                                 *
 *<<<<<<<<<<     CALCULATION OF EXCITATION ENERGIES      >>>>>>>>>>*
 *                                                                 *
 *******************************************************************



                            +--------------------------+
                            !  CC2 Excitation Energies !
                            +--------------------------+


 --------------------------
 Symmetry class Nr.:     1
 Multiplicity      :     1
 --------------------------

 Length of Excitation vectors in this class is:       241
 Converging for  4 roots.
  >> output from FNDMN3 <<
  NUMBER OF ELEMENTS OBTAINED IN FNDMN3            7
  FROM FNDMN3 : 
    PLACES OF LOWEST ELEMENTS 
     1 :     10     11     12    199    220      1      2
  MIN AND MAX IN SELECTED SUPSPACE   0.54092650877217674       0.88358403878655034     
 Start vector guessed from diagonal
 ... selected element no. 10
 Start vector guessed from diagonal
 ... selected element no. 11
 Start vector guessed from diagonal
 ... selected element no. 12
 Start vector guessed from diagonal
 ... selected element no.199



 >>>>> COUPLED CLUSTER RESPONSE SOLVER <<<<<

    Iter  #Vectors  time (min)   residual
    --------------------------------------

 REDUCED EIGENVALUES real part:

               Column   1
       1       0.37090334
       2       0.38579177
       3       0.49944979
       4       0.77477722
    ==== End of matrix output ====
  
 ROOT:  1 RESIDUAL TOT: 1.87167D-01
 ROOT:  2 RESIDUAL TOT: 1.91114D-01
 ROOT:  3 RESIDUAL TOT: 1.78151D-01
 ROOT:  4 RESIDUAL TOT: 4.94912D-02
      1       4         0.01     0.19E+00

 Lowest eigenvalues in this iteration: 

               Column   1
       1       0.37090334
       2       0.38579177
       3       0.49944979
       4       0.77477722
    ==== End of matrix output ====
 Dimension of the reduced space:     8
 >>> TIME USED IN THIS MICRO ITERATION        0.52


 REDUCED EIGENVALUES real part:

               Column   1
       1       0.33073158
       2       0.34920766
       3       0.46335332
       4       0.77321288
    ==== End of matrix output ====
  
 ROOT:  1 RESIDUAL TOT: 2.61106D-02
 ROOT:  2 RESIDUAL TOT: 2.79656D-02
 ROOT:  3 RESIDUAL TOT: 4.18707D-02
 ROOT:  4 RESIDUAL TOT: 1.53569D-02
      2       4         0.01     0.42E-01

 Lowest eigenvalues in this iteration: 

               Column   1
       1       0.33073158
       2       0.34920766
       3       0.46335332
       4       0.77321288
    ==== End of matrix output ====
 Dimension of the reduced space:    12
 >>> TIME USED IN THIS MICRO ITERATION        0.52


 REDUCED EIGENVALUES real part:

               Column   1
       1       0.33042006
       2       0.34850438
       3       0.46028937
       4       0.77226458
    ==== End of matrix output ====
  
 ROOT:  1 RESIDUAL TOT: 1.10646D-02
 ROOT:  2 RESIDUAL TOT: 1.39657D-02
 ROOT:  3 RESIDUAL TOT: 2.94098D-02
 ROOT:  4 RESIDUAL TOT: 1.19924D-01
      3       4         0.01     0.12E+00

 Lowest eigenvalues in this iteration: 

               Column   1
       1       0.33042006
       2       0.34850438
       3       0.46028937
       4       0.77226458
    ==== End of matrix output ====
 Dimension of the reduced space:    16
 >>> TIME USED IN THIS MICRO ITERATION        0.52


 REDUCED EIGENVALUES real part:

               Column   1
       1       0.33042797
       2       0.34845876
       3       0.46022561
       4       0.65475499
    ==== End of matrix output ====
  
 ROOT:  1 RESIDUAL TOT: 2.43404D-03
 ROOT:  2 RESIDUAL TOT: 3.95138D-03
 ROOT:  3 RESIDUAL TOT: 1.72391D-02
 ROOT:  4 RESIDUAL TOT: 2.62934D-01
      4       4         0.01     0.26E+00

 Lowest eigenvalues in this iteration: 

               Column   1
       1       0.33042797
       2       0.34845876
       3       0.46022561
       4       0.65475499
    ==== End of matrix output ====
 Dimension of the reduced space:    20
 >>> TIME USED IN THIS MICRO ITERATION        0.52


 REDUCED EIGENVALUES real part:

               Column   1
       1       0.33040350
       2       0.34843388
       3       0.45999885
       4       0.62819290
    ==== End of matrix output ====
  
 ROOT:  1 RESIDUAL TOT: 4.02228D-04
 ROOT:  2 RESIDUAL TOT: 7.18050D-04
 ROOT:  3 RESIDUAL TOT: 8.98922D-03
 ROOT:  4 RESIDUAL TOT: 1.25138D-01
      5       4         0.01     0.13E+00

 Lowest eigenvalues in this iteration: 

               Column   1
       1       0.33040350
       2       0.34843388
       3       0.45999885
       4       0.62819290
    ==== End of matrix output ====
 Dimension of the reduced space:    24
 >>> TIME USED IN THIS MICRO ITERATION        0.52


 REDUCED EIGENVALUES real part:

               Column   1
       1       0.33040358
       2       0.34843520
       3       0.45995437
       4       0.62458886
    ==== End of matrix output ====
  
 ROOT:  1 RESIDUAL TOT: 8.56881D-05
 ROOT:  2 RESIDUAL TOT: 1.24066D-04
 ROOT:  3 RESIDUAL TOT: 2.24454D-03
 ROOT:  4 RESIDUAL TOT: 5.98420D-02
      6       4         0.01     0.60E-01

 Lowest eigenvalues in this iteration: 

               Column   1
       1       0.33040358
       2       0.34843520
       3       0.45995437
       4       0.62458886
    ==== End of matrix output ====
 Dimension of the reduced space:    28
 >>> TIME USED IN THIS MICRO ITERATION        0.52


 REDUCED EIGENVALUES real part:

               Column   1
       1       0.33040410
       2       0.34843566
       3       0.45995917
       4       0.62365466
    ==== End of matrix output ====
  
 ROOT:  1 RESIDUAL TOT: 1.69421D-05
 ROOT:  2 RESIDUAL TOT: 2.57294D-05
 ROOT:  3 RESIDUAL TOT: 5.04972D-04
 ROOT:  4 RESIDUAL TOT: 2.61809D-02
      7       4         0.01     0.26E-01

 Lowest eigenvalues in this iteration: 

               Column   1
       1       0.33040410
       2       0.34843566
       3       0.45995917
       4       0.62365466
    ==== End of matrix output ====
 Dimension of the reduced space:    32
 >>> TIME USED IN THIS MICRO ITERATION        0.52


 REDUCED EIGENVALUES real part:

               Column   1
       1       0.33040395
       2       0.34843571
       3       0.45996427
       4       0.62350342
    ==== End of matrix output ====
  
 ROOT:  1 RESIDUAL TOT: 2.40849D-06
 ROOT:  2 RESIDUAL TOT: 4.11946D-06
 ROOT:  3 RESIDUAL TOT: 9.92601D-05
 ROOT:  4 RESIDUAL TOT: 9.68475D-03
      8       4         0.01     0.97E-02

 Lowest eigenvalues in this iteration: 

               Column   1
       1       0.33040395
       2       0.34843571
       3       0.45996427
       4       0.62350342
    ==== End of matrix output ====
 Dimension of the reduced space:    36
 >>> TIME USED IN THIS MICRO ITERATION        0.52


 REDUCED EIGENVALUES real part:

               Column   1
       1       0.33040394
       2       0.34843570
       3       0.45996497
       4       0.62349781
    ==== End of matrix output ====
  
 ROOT:  1 RESIDUAL TOT: 3.27568D-07
 ROOT:  2 RESIDUAL TOT: 5.65812D-07
 ROOT:  3 RESIDUAL TOT: 1.66730D-05
 ROOT:  4 RESIDUAL TOT: 3.10142D-03
      9       4         0.01     0.31E-02

 Lowest eigenvalues in this iteration: 

               Column   1
       1       0.33040394
       2       0.34843570
       3       0.45996497
       4       0.62349781
    ==== End of matrix output ====
 Dimension of the reduced space:    40
 >>> TIME USED IN THIS MICRO ITERATION        0.52


 REDUCED EIGENVALUES real part:

               Column   1
       1       0.33040394
       2       0.34843570
       3       0.45996499
       4       0.62348338
    ==== End of matrix output ====
  
 ROOT:  1 RESIDUAL TOT: 3.06994D-08
 ROOT:  2 RESIDUAL TOT: 5.97850D-08
 ROOT:  3 RESIDUAL TOT: 2.01546D-06
 ROOT:  4 RESIDUAL TOT: 6.19828D-04
     10       4         0.01     0.62E-03

 Lowest eigenvalues in this iteration: 

               Column   1
       1       0.33040394
       2       0.34843570
       3       0.45996499
       4       0.62348338
    ==== End of matrix output ====
 Dimension of the reduced space:    44
 >>> TIME USED IN THIS MICRO ITERATION        0.52


 REDUCED EIGENVALUES real part:

               Column   1
       1       0.33040394
       2       0.34843570
       3       0.45996498
       4       0.62348521
    ==== End of matrix output ====
  
 ROOT:  1 RESIDUAL TOT: 2.57760D-09
 ROOT:  2 RESIDUAL TOT: 7.98477D-09
 ROOT:  3 RESIDUAL TOT: 3.64516D-07
 ROOT:  4 RESIDUAL TOT: 1.85146D-04
     11       4         0.01     0.19E-03

 Lowest eigenvalues in this iteration: 

               Column   1
       1       0.33040394
       2       0.34843570
       3       0.45996498
       4       0.62348521
    ==== End of matrix output ====
 Dimension of the reduced space:    48
 >>> TIME USED IN THIS MICRO ITERATION        0.52


 REDUCED EIGENVALUES real part:

               Column   1
       1       0.33040394
       2       0.34843570
       3       0.45996498
       4       0.62348634
    ==== End of matrix output ====
  
 ROOT:  1 RESIDUAL TOT: 2.37839D-10
 ROOT:  2 RESIDUAL TOT: 8.38285D-10
 ROOT:  3 RESIDUAL TOT: 4.90564D-08
 ROOT:  4 RESIDUAL TOT: 4.09569D-05
     12       4         0.01     0.41E-04

 Lowest eigenvalues in this iteration: 

               Column   1
       1       0.33040394
       2       0.34843570
       3       0.45996498
       4       0.62348634
    ==== End of matrix output ====
 Dimension of the reduced space:    52
 >>> TIME USED IN THIS MICRO ITERATION        0.52


 REDUCED EIGENVALUES real part:

               Column   1
       1       0.33040394
       2       0.34843570
       3       0.45996498
       4       0.62348642
    ==== End of matrix output ====
  
 ROOT:  1 RESIDUAL TOT: 2.55181D-11
 ROOT:  1 HAS CONVERGED. RESIDUAL TOT: 2.55181D-11
 ROOT:  2 RESIDUAL TOT: 6.07228D-11
 ROOT:  2 HAS CONVERGED. RESIDUAL TOT: 6.07228D-11
 ROOT:  3 RESIDUAL TOT: 4.56246D-09
 ROOT:  4 RESIDUAL TOT: 6.43906D-06
     13       4         0.01     0.64E-05

 Lowest eigenvalues in this iteration: 

               Column   1
       1       0.33040394
       2       0.34843570
       3       0.45996498
       4       0.62348642
    ==== End of matrix output ====
 Dimension of the reduced space:    54
 >>> TIME USED IN THIS MICRO ITERATION        0.52


 REDUCED EIGENVALUES real part:

               Column   1
       1       0.33040394
       2       0.34843570
       3       0.45996498
       4       0.62348639
    ==== End of matrix output ====
  
 ROOT:  1 RESIDUAL TOT: 1.62923D-11
 ROOT:  1 HAS CONVERGED. RESIDUAL TOT: 1.62923D-11
 ROOT:  2 RESIDUAL TOT: 3.21147D-11
 ROOT:  2 HAS CONVERGED. RESIDUAL TOT: 3.21147D-11
 ROOT:  3 RESIDUAL TOT: 4.75290D-10
 ROOT:  4 RESIDUAL TOT: 1.07946D-06
     14       2         0.01     0.11E-05

 Lowest eigenvalues in this iteration: 

               Column   1
       1       0.33040394
       2       0.34843570
       3       0.45996498
       4       0.62348639
    ==== End of matrix output ====
 Dimension of the reduced space:    56
 >>> TIME USED IN THIS MICRO ITERATION        0.32


 REDUCED EIGENVALUES real part:

               Column   1
       1       0.33040394
       2       0.34843570
       3       0.45996498
       4       0.62348639
    ==== End of matrix output ====
  
 ROOT:  1 RESIDUAL TOT: 1.64700D-11
 ROOT:  1 HAS CONVERGED. RESIDUAL TOT: 1.64700D-11
 ROOT:  2 RESIDUAL TOT: 3.11983D-11
 ROOT:  2 HAS CONVERGED. RESIDUAL TOT: 3.11983D-11
 ROOT:  3 RESIDUAL TOT: 5.34614D-11
 ROOT:  3 HAS CONVERGED. RESIDUAL TOT: 5.34614D-11
 ROOT:  4 RESIDUAL TOT: 1.61906D-07
     15       2         0.01     0.16E-06

 Lowest eigenvalues in this iteration: 

               Column   1
       1       0.33040394
       2       0.34843570
       3       0.45996498
       4       0.62348639
    ==== End of matrix output ====
 Dimension of the reduced space:    57
 >>> TIME USED IN THIS MICRO ITERATION        0.32


 REDUCED EIGENVALUES real part:

               Column   1
       1       0.33040394
       2       0.34843570
       3       0.45996498
       4       0.62348639
    ==== End of matrix output ====
  
 ROOT:  1 RESIDUAL TOT: 1.55524D-11
 ROOT:  1 HAS CONVERGED. RESIDUAL TOT: 1.55524D-11
 ROOT:  2 RESIDUAL TOT: 3.08064D-11
 ROOT:  2 HAS CONVERGED. RESIDUAL TOT: 3.08064D-11
 ROOT:  3 RESIDUAL TOT: 3.65456D-11
 ROOT:  3 HAS CONVERGED. RESIDUAL TOT: 3.65456D-11
 ROOT:  4 RESIDUAL TOT: 2.48655D-08
     16       1         0.00     0.25E-07

 Lowest eigenvalues in this iteration: 

               Column   1
       1       0.33040394
       2       0.34843570
       3       0.45996498
       4       0.62348639
    ==== End of matrix output ====
 Dimension of the reduced space:    58
 >>> TIME USED IN THIS MICRO ITERATION        0.21


 REDUCED EIGENVALUES real part:

               Column   1
       1       0.33040394
       2       0.34843570
       3       0.45996498
       4       0.62348639
    ==== End of matrix output ====
  
 ROOT:  1 RESIDUAL TOT: 1.55657D-11
 ROOT:  1 HAS CONVERGED. RESIDUAL TOT: 1.55657D-11
 ROOT:  2 RESIDUAL TOT: 3.06395D-11
 ROOT:  2 HAS CONVERGED. RESIDUAL TOT: 3.06395D-11
 ROOT:  3 RESIDUAL TOT: 3.49401D-11
 ROOT:  3 HAS CONVERGED. RESIDUAL TOT: 3.49401D-11
 ROOT:  4 RESIDUAL TOT: 4.84597D-09
     17       1         0.00     0.48E-08

 Lowest eigenvalues in this iteration: 

               Column   1
       1       0.33040394
       2       0.34843570
       3       0.45996498
       4       0.62348639
    ==== End of matrix output ====
 Dimension of the reduced space:    59
 >>> TIME USED IN THIS MICRO ITERATION        0.21


 REDUCED EIGENVALUES real part:

               Column   1
       1       0.33040394
       2       0.34843570
       3       0.45996498
       4       0.62348639
    ==== End of matrix output ====
  
 ROOT:  1 RESIDUAL TOT: 1.57039D-11
 ROOT:  1 HAS CONVERGED. RESIDUAL TOT: 1.57039D-11
 ROOT:  2 RESIDUAL TOT: 3.10737D-11
 ROOT:  2 HAS CONVERGED. RESIDUAL TOT: 3.10737D-11
 ROOT:  3 RESIDUAL TOT: 3.52103D-11
 ROOT:  3 HAS CONVERGED. RESIDUAL TOT: 3.52103D-11
 ROOT:  4 RESIDUAL TOT: 8.42802D-10
     18       1         0.00     0.84E-09

 Lowest eigenvalues in this iteration: 

               Column   1
       1       0.33040394
       2       0.34843570
       3       0.45996498
       4       0.62348639
    ==== End of matrix output ====
 Dimension of the reduced space:    60
 >>> TIME USED IN THIS MICRO ITERATION        0.21


 REDUCED EIGENVALUES real part:

               Column   1
       1       0.33040394
       2       0.34843570
       3       0.45996498
       4       0.62348639
    ==== End of matrix output ====
  
 ROOT:  1 RESIDUAL TOT: 1.44121D-11
 ROOT:  1 HAS CONVERGED. RESIDUAL TOT: 1.44121D-11
 ROOT:  2 RESIDUAL TOT: 2.93450D-11
 ROOT:  2 HAS CONVERGED. RESIDUAL TOT: 2.93450D-11
 ROOT:  3 RESIDUAL TOT: 3.36111D-11
 ROOT:  3 HAS CONVERGED. RESIDUAL TOT: 3.36111D-11
 ROOT:  4 RESIDUAL TOT: 1.36713D-10
     19       1         0.00     0.14E-09

 Lowest eigenvalues in this iteration: 

               Column   1
       1       0.33040394
       2       0.34843570
       3       0.45996498
       4       0.62348639
    ==== End of matrix output ====
 Dimension of the reduced space:    61
 >>> TIME USED IN THIS MICRO ITERATION        0.21


 REDUCED EIGENVALUES real part:

               Column   1
       1       0.33040394
       2       0.34843570
       3       0.45996498
       4       0.62348639
    ==== End of matrix output ====
  
 ROOT:  1 RESIDUAL TOT: 1.44318D-11
 ROOT:  1 HAS CONVERGED. RESIDUAL TOT: 1.44318D-11
 ROOT:  2 RESIDUAL TOT: 2.93675D-11
 ROOT:  2 HAS CONVERGED. RESIDUAL TOT: 2.93675D-11
 ROOT:  3 RESIDUAL TOT: 3.36140D-11
 ROOT:  3 HAS CONVERGED. RESIDUAL TOT: 3.36140D-11
 ROOT:  4 RESIDUAL TOT: 1.73741D-11
 ROOT:  4 HAS CONVERGED. RESIDUAL TOT: 1.73741D-11
     20       1         0.00     0.34E-10

 Lowest eigenvalues in this iteration: 

               Column   1
       1       0.33040394
       2       0.34843570
       3       0.45996498
       4       0.62348639
    ==== End of matrix output ====
 Dimension of the reduced space:    61
 >>> TIME USED IN THIS MICRO ITERATION        0.21

    --------------------------------------
    converged in 20 iterations
    threshold:    0.10E-09


         Routine          Time (min)
         ---------------------------
         CC_TRDRV            0.14
         CCRED               0.00
         CCNEX               0.00
         ---------------------------
         Total time          0.14


 >>>> Total CPU  time used in CCEQ_SOLV:   8.48 seconds
 >>>> Total wall time used in CCEQ_SOLV:   8.64 seconds


 >>>>>>>>>>>>>>>>>>>>> <<<<<<<<<<<<<<<<<<<<<



  Final eigenvalues :
 =====================
 (convergence threshold:  1.00D-10)

    1   0.3304039409
    2   0.3484356965
    3   0.4599649762
    4   0.6234863933


 SYMMETRY CLASS NR.    1
 MULTIPLICITY          1


 CC2-R12/B  right excitation energies:
 ====================================
 (conversion factor used: 1 au = 27.2113957 eV)

 Excitation no.       Hartree               eV 
 --------------       -------               --
         1            0.3304039409        8.9907485812
         2            0.3484356965        9.4814176105
         3            0.4599649762       12.5162836892
         4            0.6234863933       16.9659277977


 Total excited state energies for states of symmetry/spin    1    1
 Excitation no.       Energy (Hartree) 
 ------------------------------------- 
@@    1    1           -24.862406323143048
@@    1    2           -24.844374567555338
@@    1    3           -24.732845287925802
@@    1    4           -24.569323870778454


 Analysis of the Coupled Cluster Excitation Vector Number :  1
 -------------------------------------------------------------

          Excitation Energy :                             8.9907 eV


          CC_PRAM:Overall Contribution of the Different Components
          --------------------------------------------------------



          Single Excitation Contribution :              97.7055 %

          Double Excitation Contribution :               2.2945 %

          ||T1||/||T2||                  :               6.5255

          Norm of Total Amplitude Vector :               0.9996


 +=============================================================================+
 | symmetry|  orbital index  |   Excitation Numbers             |   Amplitude  |
 |  Index  |   a   b   i   j |      NAI      NBJ |     NAIBJ    |              |
 +=============================================================================+
 | 1   1   |   1       2     |       10          |              |    0.568339  |
 | 1   1   |   2       2     |       11          |              |    0.787608  |
 +-----------------------------------------------------------------------------+
 | 1 1 1 1 |   4   2   2   1 |       13        2 |           80 |    0.033973  |
 | 1 1 1 1 |   2   1   2   2 |       11       10 |           65 |    0.027847  |
 | 1 1 1 1 |   3   1   2   2 |       12       10 |           76 |    0.059554  |
 | 1 1 1 1 |   2   2   2   2 |       11       11 |           66 |    0.049503  |
 | 1 1 1 1 |   3   2   2   2 |       12       11 |           77 |    0.081130  |
 +=============================================================================+


          Norm of Printed Amplitude Vector :             0.9787

          Printed all single excitations greater than 0.164743

          Printed all double excitations greater than 0.025246


 Analysis of the Coupled Cluster Excitation Vector Number :  2
 -------------------------------------------------------------

          Excitation Energy :                             9.4814 eV


          CC_PRAM:Overall Contribution of the Different Components
          --------------------------------------------------------



          Single Excitation Contribution :              97.3099 %

          Double Excitation Contribution :               2.6901 %

          ||T1||/||T2||                  :               6.0144

          Norm of Total Amplitude Vector :               0.9999


 +=============================================================================+
 | symmetry|  orbital index  |   Excitation Numbers             |   Amplitude  |
 |  Index  |   a   b   i   j |      NAI      NBJ |     NAIBJ    |              |
 +=============================================================================+
 | 1   1   |   1       2     |       10          |              |    0.798779  |
 | 1   1   |   2       2     |       11          |              |   -0.569415  |
 +-----------------------------------------------------------------------------+
 | 1 1 1 1 |   1   1   2   2 |       10       10 |           55 |    0.044443  |
 | 1 1 1 1 |   3   1   2   2 |       12       10 |           76 |    0.097446  |
 | 1 1 1 1 |   3   2   2   2 |       12       11 |           77 |   -0.071277  |
 | 2 2 1 1 |   2   1   2   2 |        5        4 |          185 |   -0.029844  |
 | 3 3 1 1 |   2   1   2   2 |        5        4 |          206 |    0.029844  |
 +=============================================================================+


          Norm of Printed Amplitude Vector :             0.9903

          Printed all single excitations greater than 0.164410

          Printed all double excitations greater than 0.027336


 Analysis of the Coupled Cluster Excitation Vector Number :  3
 -------------------------------------------------------------

          Excitation Energy :                            12.5163 eV


          CC_PRAM:Overall Contribution of the Different Components
          --------------------------------------------------------



          Single Excitation Contribution :              97.8960 %

          Double Excitation Contribution :               2.1040 %

          ||T1||/||T2||                  :               6.8211

          Norm of Total Amplitude Vector :               0.9986


 +=============================================================================+
 | symmetry|  orbital index  |   Excitation Numbers             |   Amplitude  |
 |  Index  |   a   b   i   j |      NAI      NBJ |     NAIBJ    |              |
 +=============================================================================+
 | 1   1   |   3       2     |       12          |              |    0.960364  |
 +-----------------------------------------------------------------------------+
 | 1 1 1 1 |   4   3   1   1 |        4        3 |            9 |    0.025485  |
 | 1 1 1 1 |   3   3   2   1 |       12        3 |           69 |   -0.039101  |
 | 1 1 1 1 |   2   2   2   2 |       11       11 |           66 |    0.034602  |
 | 1 1 1 1 |   3   2   2   2 |       12       11 |           77 |    0.045025  |
 | 1 1 1 1 |   3   3   2   2 |       12       12 |           78 |    0.064680  |
 | 2 2 1 1 |   1   1   2   2 |        4        4 |          181 |    0.030316  |
 | 2 2 1 1 |   2   1   2   2 |        5        4 |          185 |   -0.034407  |
 | 3 3 1 1 |   1   1   2   2 |        4        4 |          202 |    0.030316  |
 | 3 3 1 1 |   2   1   2   2 |        5        4 |          206 |    0.034407  |
 +=============================================================================+


          Norm of Printed Amplitude Vector :             0.9675

          Printed all single excitations greater than 0.164904

          Printed all double excitations greater than 0.024175


 Analysis of the Coupled Cluster Excitation Vector Number :  4
 -------------------------------------------------------------

          Excitation Energy :                            16.9659 eV


          CC_PRAM:Overall Contribution of the Different Components
          --------------------------------------------------------



          Single Excitation Contribution :              97.8501 %

          Double Excitation Contribution :               2.1499 %

          ||T1||/||T2||                  :               6.7464

          Norm of Total Amplitude Vector :               0.9956


 +=============================================================================+
 | symmetry|  orbital index  |   Excitation Numbers             |   Amplitude  |
 |  Index  |   a   b   i   j |      NAI      NBJ |     NAIBJ    |              |
 +=============================================================================+
 | 1   1   |   1       1     |        1          |              |    0.441883  |
 | 1   1   |   2       1     |        2          |              |    0.857312  |
 +-----------------------------------------------------------------------------+
 | 1 1 1 1 |   2   1   1   1 |        2        1 |            2 |    0.045959  |
 | 1 1 1 1 |   1   1   2   1 |       10        1 |           46 |    0.033757  |
 | 1 1 1 1 |   2   2   1   1 |        2        2 |            3 |    0.048508  |
 | 1 1 1 1 |   1   2   2   1 |       10        2 |           47 |    0.027154  |
 | 1 1 1 1 |   3   2   2   1 |       12        2 |           68 |    0.029300  |
 | 1 1 1 1 |   2   4   2   1 |       11        4 |           59 |    0.038693  |
 | 1 1 1 1 |   2   2   2   2 |       11       11 |           66 |   -0.026401  |
 | 1 1 1 1 |   3   2   2   2 |       12       11 |           77 |   -0.045938  |
 | 1 1 1 1 |   4   2   2   2 |       13       11 |           89 |    0.040971  |
 +=============================================================================+


          Norm of Printed Amplitude Vector :             0.9713

          Printed all single excitations greater than 0.164865

          Printed all double excitations greater than 0.024438

 --------------------------
 Symmetry class Nr.:     1
 Multiplicity      :     3
 --------------------------

 Length of Excitation vectors in this class is:       454
 No Excitation Energies calculated in this symmetry class


 *******************************************************************************

 --------------------------
 Symmetry class Nr.:     2
 Multiplicity      :     1
 --------------------------

 Length of Excitation vectors in this class is:       114
 Converging for  4 roots.
  >> output from FNDMN3 <<
  NUMBER OF ELEMENTS OBTAINED IN FNDMN3            7
  FROM FNDMN3 : 
    PLACES OF LOWEST ELEMENTS 
     1 :      4      5      1      2     70     71     72
  MIN AND MAX IN SELECTED SUPSPACE   0.38695606330869647        1.0488236549546430     
 Start vector guessed from diagonal
 ... selected element no.  4
 Start vector guessed from diagonal
 ... selected element no.  5
 Start vector guessed from diagonal
 ... selected element no.  1
 Start vector guessed from diagonal
 ... selected element no.  2



 >>>>> COUPLED CLUSTER RESPONSE SOLVER <<<<<

    Iter  #Vectors  time (min)   residual
    --------------------------------------

 REDUCED EIGENVALUES real part:

               Column   1
       1       0.14778481
       2       0.39776174
       3       0.47612162
       4       0.71409585
    ==== End of matrix output ====
  
 ROOT:  1 RESIDUAL TOT: 1.85784D-01
 ROOT:  2 RESIDUAL TOT: 1.87180D-01
 ROOT:  3 RESIDUAL TOT: 1.92971D-01
 ROOT:  4 RESIDUAL TOT: 2.02476D-01
      1       4         0.01     0.20E+00

 Lowest eigenvalues in this iteration: 

               Column   1
       1       0.14778481
       2       0.39776174
       3       0.47612162
       4       0.71409585
    ==== End of matrix output ====
 Dimension of the reduced space:     8
 >>> TIME USED IN THIS MICRO ITERATION        0.52


 REDUCED EIGENVALUES real part:

               Column   1
       1       0.12319809
       2       0.36145064
       3       0.44795639
       4       0.67401075
    ==== End of matrix output ====
  
[...]
 | 3   1   |   2       1     |        2          |              |   -0.203372  |
 | 3   1   |   2       2     |        5          |              |    0.241441  |
 +-----------------------------------------------------------------------------+
 | 3 1 1 1 |   1   1   1   1 |        1        1 |            1 |    0.043316  |
 | 3 1 1 1 |   1   1   2   1 |        4        1 |            4 |    0.043537  |
 | 3 1 1 1 |   1   2   2   1 |        4        2 |           10 |    0.030439  |
 | 3 1 1 1 |   1   3   1   1 |        1        3 |           13 |    0.043801  |
 | 3 1 1 1 |   2   4   1   1 |        2        4 |           20 |    0.027735  |
 | 3 1 1 1 |   3   5   2   1 |        6        5 |           30 |    0.030196  |
 | 3 1 1 1 |   1   1   2   2 |        4       10 |           58 |    0.024820  |
 | 3 1 1 1 |   1   2   2   2 |        4       11 |           64 |    0.026911  |
 | 3 1 1 1 |   2   2   2   2 |        5       11 |           65 |   -0.039715  |
 | 3 1 1 1 |   3   2   2   2 |        6       11 |           66 |   -0.030769  |
 | 3 1 1 1 |   1   3   1   2 |        1       12 |           67 |    0.046731  |
 +=============================================================================+


          Norm of Printed Amplitude Vector :             0.9940

          Printed all single excitations greater than 0.165076

          Printed all double excitations greater than 0.022971


 Analysis of the Coupled Cluster Excitation Vector Number :  4
 -------------------------------------------------------------

          Excitation Energy :                            18.2927 eV


          CC_PRAM:Overall Contribution of the Different Components
          --------------------------------------------------------



          Single Excitation Contribution :              96.8381 %

          Double Excitation Contribution :               3.1619 %

          ||T1||/||T2||                  :               5.5341

          Norm of Total Amplitude Vector :               1.0000


 +=============================================================================+
 | symmetry|  orbital index  |   Excitation Numbers             |   Amplitude  |
 |  Index  |   a   b   i   j |      NAI      NBJ |     NAIBJ    |              |
 +=============================================================================+
 | 3   1   |   1       1     |        1          |              |    0.216977  |
 | 3   1   |   2       1     |        2          |              |    0.953921  |
 +-----------------------------------------------------------------------------+
 | 3 1 1 1 |   2   1   1   1 |        2        1 |            2 |    0.065834  |
 | 3 1 1 1 |   3   1   1   1 |        3        1 |            3 |   -0.032520  |
 | 3 1 1 1 |   1   2   2   1 |        4        2 |           10 |    0.043175  |
 | 3 1 1 1 |   3   2   2   1 |        6        2 |           12 |    0.053850  |
 | 3 1 1 1 |   1   4   1   1 |        1        4 |           19 |    0.036133  |
 | 3 1 1 1 |   1   4   2   1 |        4        4 |           22 |    0.040383  |
 | 3 1 1 1 |   1   5   2   1 |        4        5 |           28 |    0.039821  |
 | 3 1 1 1 |   1   6   1   1 |        1        6 |           31 |    0.050371  |
 | 3 1 1 1 |   3   1   1   2 |        3       10 |           57 |    0.031097  |
 | 3 1 1 1 |   2   5   2   2 |        5       14 |           83 |   -0.034339  |
 | 3 1 1 1 |   3   5   2   2 |        6       14 |           84 |   -0.047734  |
 | 3 1 1 1 |   1   6   1   2 |        1       15 |           85 |    0.043294  |
 +=============================================================================+


          Norm of Printed Amplitude Vector :             0.9902

          Printed all single excitations greater than 0.164011

          Printed all double excitations greater than 0.029636


 *******************************************************************************

 --------------------------
 Symmetry class Nr.:     3
 Multiplicity      :     3
 --------------------------

 Length of Excitation vectors in this class is:       222
 No Excitation Energies calculated in this symmetry class


 *******************************************************************************

 --------------------------
 Symmetry class Nr.:     4
 Multiplicity      :     1
 --------------------------

 Length of Excitation vectors in this class is:        36
 Converging for  4 roots.
  >> output from FNDMN3 <<
  NUMBER OF ELEMENTS OBTAINED IN FNDMN3            6
  FROM FNDMN3 : 
    PLACES OF LOWEST ELEMENTS 
     1 :     22     28     23      4     19     29
  MIN AND MAX IN SELECTED SUPSPACE   0.77391212661739295        1.2311689798793450     
 Start vector guessed from diagonal
 ... selected element no. 22
 Start vector guessed from diagonal
 ... selected element no. 28
 Start vector guessed from diagonal
 ... selected element no. 23
 Start vector guessed from diagonal
 ... selected element no.  4



 >>>>> COUPLED CLUSTER RESPONSE SOLVER <<<<<

    Iter  #Vectors  time (min)   residual
    --------------------------------------

 REDUCED EIGENVALUES real part:

               Column   1
       1       0.77391213
       2       1.00254055
       3       1.00254055
       4       1.08376390
    ==== End of matrix output ====
  
 ROOT:  1 RESIDUAL TOT: 0.00000D+00
 ROOT:  1 HAS CONVERGED. RESIDUAL TOT: 0.00000D+00
 ROOT:  2 RESIDUAL TOT: 0.00000D+00
 ROOT:  2 HAS CONVERGED. RESIDUAL TOT: 0.00000D+00
 ROOT:  3 RESIDUAL TOT: 0.00000D+00
 ROOT:  3 HAS CONVERGED. RESIDUAL TOT: 0.00000D+00
 ROOT:  4 RESIDUAL TOT: 0.00000D+00
 ROOT:  4 HAS CONVERGED. RESIDUAL TOT: 0.00000D+00
      1       4         0.01     0.00E+00

 Lowest eigenvalues in this iteration: 

               Column   1
       1       0.77391213
       2       1.00254055
       3       1.00254055
       4       1.08376390
    ==== End of matrix output ====
 Dimension of the reduced space:     4
 >>> TIME USED IN THIS MICRO ITERATION        0.52

    --------------------------------------
    converged in  1 iterations
    threshold:    0.10E-09


         Routine          Time (min)
         ---------------------------
         CC_TRDRV            0.01
         CCRED               0.00
         CCNEX               0.00
         ---------------------------
         Total time          0.01


 >>>> Total CPU  time used in CCEQ_SOLV:   0.52 seconds
 >>>> Total wall time used in CCEQ_SOLV:   0.52 seconds


 >>>>>>>>>>>>>>>>>>>>> <<<<<<<<<<<<<<<<<<<<<



  Final eigenvalues :
 =====================
 (convergence threshold:  1.00D-10)

    1   0.7739121266
    2   1.0025405532
    3   1.0025405532
    4   1.0837638991

 degenerate eigenvector found:  2        1.0025405532
 eigenvector was orthogonalized against  1 degenerate vectors


 degenerate eigenvector found:  3        1.0025405532
 eigenvector was orthogonalized against  1 degenerate vectors



 SYMMETRY CLASS NR.    4
 MULTIPLICITY          1


 CC2-R12/B  right excitation energies:
 ====================================
 (conversion factor used: 1 au = 27.2113957 eV)

 Excitation no.       Hartree               eV 
 --------------       -------               --
         1            0.7739121266       21.0592202221
         2            1.0025405532       27.2805161805
         3            1.0025405532       27.2805161805
         4            1.0837638991       29.4907158513


 Total excited state energies for states of symmetry/spin    4    1
 Excitation no.       Energy (Hartree) 
 ------------------------------------- 
@@    4    1           -24.418898137459532
@@    4    2           -24.190269710828556
@@    4    3           -24.190269710828556
@@    4    4           -24.109046364975296


 Analysis of the Coupled Cluster Excitation Vector Number :  1
 -------------------------------------------------------------

          Excitation Energy :                            21.0592 eV


          CC_PRAM:Overall Contribution of the Different Components
          --------------------------------------------------------



          Single Excitation Contribution :               0.0000 %

          Double Excitation Contribution :             100.0000 %

          ||T1||/||T2||                  :               0.0000

          Norm of Total Amplitude Vector :               1.0000


 +=============================================================================+
 | symmetry|  orbital index  |   Excitation Numbers             |   Amplitude  |
 |  Index  |   a   b   i   j |      NAI      NBJ |     NAIBJ    |              |
 +=============================================================================+
 +-----------------------------------------------------------------------------+
 | 3 2 1 1 |   1   1   2   2 |        4        4 |           22 |    1.000000  |
 +=============================================================================+


          Norm of Printed Amplitude Vector :             1.0000

          Printed all single excitations greater than 0.010000

          Printed all double excitations greater than 0.166667


 Analysis of the Coupled Cluster Excitation Vector Number :  2
 -------------------------------------------------------------

          Excitation Energy :                            27.2805 eV


          CC_PRAM:Overall Contribution of the Different Components
          --------------------------------------------------------



          Single Excitation Contribution :               0.0000 %

          Double Excitation Contribution :             100.0000 %

          ||T1||/||T2||                  :               0.0000

          Norm of Total Amplitude Vector :               1.0000


 +=============================================================================+
 | symmetry|  orbital index  |   Excitation Numbers             |   Amplitude  |
 |  Index  |   a   b   i   j |      NAI      NBJ |     NAIBJ    |              |
 +=============================================================================+
 +-----------------------------------------------------------------------------+
 | 3 2 1 1 |   1   2   2   2 |        4        5 |           28 |    1.000000  |
 +=============================================================================+


          Norm of Printed Amplitude Vector :             1.0000

          Printed all single excitations greater than 0.010000

          Printed all double excitations greater than 0.166667


 Analysis of the Coupled Cluster Excitation Vector Number :  3
 -------------------------------------------------------------

          Excitation Energy :                            27.2805 eV


          CC_PRAM:Overall Contribution of the Different Components
          --------------------------------------------------------



          Single Excitation Contribution :               0.0000 %

          Double Excitation Contribution :             100.0000 %

          ||T1||/||T2||                  :               0.0000

          Norm of Total Amplitude Vector :               1.0000


 +=============================================================================+
 | symmetry|  orbital index  |   Excitation Numbers             |   Amplitude  |
 |  Index  |   a   b   i   j |      NAI      NBJ |     NAIBJ    |              |
 +=============================================================================+
 +-----------------------------------------------------------------------------+
 | 3 2 1 1 |   2   1   2   2 |        5        4 |           23 |    1.000000  |
 +=============================================================================+


          Norm of Printed Amplitude Vector :             1.0000

          Printed all single excitations greater than 0.010000

          Printed all double excitations greater than 0.166667


 Analysis of the Coupled Cluster Excitation Vector Number :  4
 -------------------------------------------------------------

          Excitation Energy :                            29.4907 eV


          CC_PRAM:Overall Contribution of the Different Components
          --------------------------------------------------------



          Single Excitation Contribution :               0.0000 %

          Double Excitation Contribution :             100.0000 %

          ||T1||/||T2||                  :               0.0000

          Norm of Total Amplitude Vector :               1.0000


 +=============================================================================+
 | symmetry|  orbital index  |   Excitation Numbers             |   Amplitude  |
 |  Index  |   a   b   i   j |      NAI      NBJ |     NAIBJ    |              |
 +=============================================================================+
 +-----------------------------------------------------------------------------+
 | 3 2 1 1 |   1   1   2   1 |        4        1 |            4 |    1.000000  |
 +=============================================================================+


          Norm of Printed Amplitude Vector :             1.0000

          Printed all single excitations greater than 0.010000

          Printed all double excitations greater than 0.166667


 *******************************************************************************

 --------------------------
 Symmetry class Nr.:     4
 Multiplicity      :     3
 --------------------------

 Length of Excitation vectors in this class is:        72
 No Excitation Energies calculated in this symmetry class

 *******************************************************************

 Ground state energy is target 

 Ecorr =                    -25.19281026407692536395

 *******************************************************************
  

 *******************************************************************************
 *******************************************************************************
 *                                                                             *
 *                                                                             *
 *                   SUMMARY OF COUPLED CLUSTER CALCULATION                    *
 *                                                                             *
 *                                                                             *
 *******************************************************************************
 *******************************************************************************

                                                                                
                                                                                
            Total SCF   energy:                   -25.1195868955                
            Total MP2-R12/B energy:               -25.1924845508                
            Total CC2-R12/B energy:               -25.1928102641                
                                                                                
                                                                                
 +=============================================================================+
 |  sym. | Exci.  |        CC2-R12/B  Excitation energies            | ||T1||  |
 |(spin, |        +------------------------------------------------------------+
 | spat) |        |     Hartree    |       eV.      |     cm-1       |    %    |
 +=============================================================================+
 | ^1A1  |    1   |     0.3304039  |       8.99075  |     72515.282  |  97.71  |
 | ^1A1  |    2   |     0.3484357  |       9.48142  |     76472.795  |  97.31  |
 | ^1A1  |    3   |     0.4599650  |      12.51628  |    100950.643  |  97.90  |
 | ^1A1  |    4   |     0.6234864  |      16.96593  |    136839.445  |  97.85  |
 +-----------------------------------------------------------------------------+
 | ^1B1  |    1   |     0.1229973  |       3.34693  |     26994.794  |  98.67  |
 | ^1B1  |    2   |     0.3609128  |       9.82094  |     79211.212  |  97.12  |
 | ^1B1  |    3   |     0.4472515  |      12.17033  |     98160.355  |  98.10  |
 | ^1B1  |    4   |     0.6722428  |      18.29266  |    147540.235  |  96.84  |
 +-----------------------------------------------------------------------------+
 | ^1B2  |    1   |     0.1229973  |       3.34693  |     26994.794  |  98.67  |
 | ^1B2  |    2   |     0.3609128  |       9.82094  |     79211.212  |  97.12  |
 | ^1B2  |    3   |     0.4472515  |      12.17033  |     98160.355  |  98.10  |
 | ^1B2  |    4   |     0.6722428  |      18.29266  |    147540.235  |  96.84  |
 +-----------------------------------------------------------------------------+
 | ^1A2  |    1   |     0.7739121  |      21.05922  |    169854.077  |   0.00  |
 | ^1A2  |    2   |     1.0025406  |      27.28052  |    220032.216  |   0.00  |
 | ^1A2  |    3   |     1.0025406  |      27.28052  |    220032.216  |   0.00  |
 | ^1A2  |    4   |     1.0837639  |      29.49072  |    237858.680  |   0.00  |
 +=============================================================================+
                                                                                
                                                                                
     Total energies in Hartree:                                                 
             1 ^1A1       -24.8624063231                                        
             2 ^1A1       -24.8443745676                                        
             3 ^1A1       -24.7328452879                                        
             4 ^1A1       -24.5693238708                                        
             1 ^1B1       -25.0698129326                                        
             2 ^1B1       -24.8318974228                                        
             3 ^1B1       -24.7455587740                                        
             4 ^1B1       -24.5205674838                                        
             1 ^1B2       -25.0698129326                                        
             2 ^1B2       -24.8318974228                                        
             3 ^1B2       -24.7455587740                                        
             4 ^1B2       -24.5205674838                                        
             1 ^1A2       -24.4188981375                                        
             2 ^1A2       -24.1902697108                                        
             3 ^1A2       -24.1902697108                                        
             4 ^1A2       -24.1090463650                                        

  1 a.u. =        27.21138 eV.  
  1 a.u. =    219474.62934 cm-1.
  

 *******************************************************************************
 *******************************************************************************
 *                                                                             *
 *                                                                             *
 *                      END OF COUPLED CLUSTER CALCULATION                     *
 *                                                                             *
 *                                                                             *
 *******************************************************************************
 *******************************************************************************


 >>>> CPU and wall time for CC :      27.926      28.626

 
     Date and time (Linux)  : Sun Sep  8 21:08:56 2013
     Host name              : lpqlx131.ups-tlse.fr                    


                      .-------------------------------------.
                      | End of Coupled Cluster Section (CC) |
                      `-------------------------------------'

 >>>> Total CPU  time used in DALTON:  28.06 seconds
 >>>> Total wall time used in DALTON:  28.76 seconds

 
     Date and time (Linux)  : Sun Sep  8 21:08:56 2013
     Host name              : lpqlx131.ups-tlse.fr                    
