

     ************************************************************************
     *************** Dalton - An Electronic Structure Program ***************
     ************************************************************************

    This is output from DALTON (Release Dalton2013 patch 0)
   ----------------------------------------------------------------------------
    NOTE:
     
    Dalton is an experimental code for the evaluation of molecular
    properties using (MC)SCF, DFT, CI, and CC wave functions.
    The authors accept no responsibility for the performance of
    the code or for the correctness of the results.
     
    The code (in whole or part) is provided under a licence and
    is not to be reproduced for further distribution without
    the written permission of the authors or their representatives.
     
    See the home page "http://daltonprogram.org" for further information.
     
    If results obtained with this code are published,
    the appropriate citations would be both of:
     
       K. Aidas, C. Angeli, K. L. Bak, V. Bakken, R. Bast,
       L. Boman, O. Christiansen, R. Cimiraglia, S. Coriani,
       P. Dahle, E. K. Dalskov, U. Ekstroem, T. Enevoldsen,
       J. J. Eriksen, P. Ettenhuber, B. Fernandez, L. Ferrighi,
       H. Fliegl, L. Frediani, K. Hald, A. Halkier, C. Haettig,
       H. Heiberg, T. Helgaker, A. C. Hennum, H. Hettema,
       E. Hjertenaes, S. Hoest, I.-M. Hoeyvik, M. F. Iozzi,
       B. Jansik, H. J. Aa. Jensen, D. Jonsson, P. Joergensen,
       J. Kauczor, S. Kirpekar, T. Kjaergaard, W. Klopper,
       S. Knecht, R. Kobayashi, H. Koch, J. Kongsted, A. Krapp,
       K. Kristensen, A. Ligabue, O. B. Lutnaes, J. I. Melo,
       K. V. Mikkelsen, R. H. Myhre, C. Neiss, C. B. Nielsen,
       P. Norman, J. Olsen, J. M. H. Olsen, A. Osted,
       M. J. Packer, F. Pawlowski, T. B. Pedersen, P. F. Provasi,
       S. Reine, Z. Rinkevicius, T. A. Ruden, K. Ruud, V. Rybkin,
       P. Salek, C. C. M. Samson, A. Sanchez de Meras, T. Saue,
       S. P. A. Sauer, B. Schimmelpfennig, K. Sneskov,
       A. H. Steindal, K. O. Sylvester-Hvid, P. R. Taylor,
       A. M. Teale, E. I. Tellgren, D. P. Tew, A. J. Thorvaldsen,
       L. Thoegersen, O. Vahtras, M. A. Watson, D. J. D. Wilson,
       M. Ziolkowski and H. Agren.
       The Dalton quantum chemistry program system.
       WIREs Comput. Mol. Sci. 2013. doi: 10.1002/wcms.1172
    
    and
    
       Dalton, a Molecular Electronic Structure Program,
       Release DALTON2013.0 (2013), see http://daltonprogram.org
   ----------------------------------------------------------------------------

    Authors in alphabetical order (major contribution(s) in parenthesis):

  Kestutis Aidas,           Vilnius University,           Lithuania   (QM/MM)
  Celestino Angeli,         University of Ferrara,        Italy       (NEVPT2)
  Keld L. Bak,              UNI-C,                        Denmark     (AOSOPPA, non-adiabatic coupling, magnetic properties)
  Vebjoern Bakken,          University of Oslo,           Norway      (DALTON; geometry optimizer, symmetry detection)
  Radovan Bast,             KTH Stockholm                 Sweden      (DALTON installation and execution frameworks)
  Linus Boman,              NTNU,                         Norway      (Cholesky decomposition and subsystems)
  Ove Christiansen,         Aarhus University,            Denmark     (CC module)
  Renzo Cimiraglia,         University of Ferrara,        Italy       (NEVPT2)
  Sonia Coriani,            University of Trieste,        Italy       (CC module, MCD in RESPONS)
  Paal Dahle,               University of Oslo,           Norway      (Parallelization)
  Erik K. Dalskov,          UNI-C,                        Denmark     (SOPPA)
  Thomas Enevoldsen,        Univ. of Southern Denmark,    Denmark     (SOPPA)
  Janus J. Eriksen,         Aarhus University,            Denmark     (PE-MP2/SOPPA, TDA)
  Berta Fernandez,          U. of Santiago de Compostela, Spain       (doublet spin, ESR in RESPONS)
  Lara Ferrighi,            Aarhus University,            Denmark     (PCM Cubic response)
  Heike Fliegl,             University of Oslo,           Norway      (CCSD(R12))
  Luca Frediani,            UiT The Arctic U. of Norway,  Norway      (PCM)
  Bin Gao,                  UiT The Arctic U. of Norway,  Norway      (Gen1Int library)
  Christof Haettig,         Ruhr-University Bochum,       Germany     (CC module)
  Kasper Hald,              Aarhus University,            Denmark     (CC module)
  Asger Halkier,            Aarhus University,            Denmark     (CC module)
  Hanne Heiberg,            University of Oslo,           Norway      (geometry analysis, selected one-electron integrals)
  Trygve Helgaker,          University of Oslo,           Norway      (DALTON; ABACUS, ERI, DFT modules, London, and much more)
  Alf Christian Hennum,     University of Oslo,           Norway      (Parity violation)
  Hinne Hettema,            University of Auckland,       New Zealand (quadratic response in RESPONS; SIRIUS supersymmetry)
  Eirik Hjertenaes,         NTNU,                         Norway      (Cholesky decomposition)
  Maria Francesca Iozzi,    University of Oslo,           Norway      (RPA)
  Brano Jansik              Technical Univ. of Ostrava    Czech Rep.  (DFT cubic response)
  Hans Joergen Aa. Jensen,  Univ. of Southern Denmark,    Denmark     (DALTON; SIRIUS, RESPONS, ABACUS modules, London, and much more)
  Dan Jonsson,              UiT The Arctic U. of Norway,  Norway      (cubic response in RESPONS module)
  Poul Joergensen,          Aarhus University,            Denmark     (RESPONS, ABACUS, and CC modules)
  Joanna Kauczor,           Linkoeping University,        Sweden      (Complex polarization propagator (CPP) module)
  Sheela Kirpekar,          Univ. of Southern Denmark,    Denmark     (Mass-velocity & Darwin integrals)
  Wim Klopper,              KIT Karlsruhe,                Germany     (R12 code in CC, SIRIUS, and ABACUS modules)
  Stefan Knecht,            ETH Zurich,                   Switzerland (Parallel CI and MCSCF)
  Rika Kobayashi,           Australian National Univ.,    Australia   (DIIS in CC, London in MCSCF)
  Henrik Koch,              NTNU,                         Norway      (CC module, Cholesky decomposition)
  Jacob Kongsted,           Univ. of Southern Denmark,    Denmark     (Polarizable embedding, QM/MM)
  Andrea Ligabue,           University of Modena,         Italy       (CTOCD, AOSOPPA)
  Ola B. Lutnaes,           University of Oslo,           Norway      (DFT Hessian)
  Juan I. Melo,             University of Buenos Aires,   Argentina   (LRESC, Relativistic Effects on NMR Shieldings)
  Kurt V. Mikkelsen,        University of Copenhagen,     Denmark     (MC-SCRF and QM/MM)
  Rolf H. Myhre,            NTNU,                         Norway      (Cholesky, subsystems and ECC2)
  Christian Neiss,          Univ. Erlangen-Nuernberg,     Germany     (CCSD(R12))
  Christian B. Nielsen,     University of Copenhagen,     Denmark     (QM/MM)
  Patrick Norman,           Linkoeping University,        Sweden      (Cubic response and complex response in RESPONS)
  Jeppe Olsen,              Aarhus University,            Denmark     (SIRIUS CI/density modules)
  Jogvan Magnus H. Olsen,   Univ. of Southern Denmark,    Denmark     (Polarizable embedding, PE library, QM/MM)
  Anders Osted,             Copenhagen University,        Denmark     (QM/MM)
  Martin J. Packer,         University of Sheffield,      UK          (SOPPA)
  Filip Pawlowski,          Kazimierz Wielki University   Poland      (CC3)
  Thomas B. Pedersen,       University of Oslo,           Norway      (Cholesky decomposition)
  Patricio F. Provasi,      University of Northeastern,   Argentina   (Analysis of coupling constants in localized orbitals)
  Zilvinas Rinkevicius,     KTH Stockholm,                Sweden      (open-shell DFT, ESR)
  Elias Rudberg,            KTH Stockholm,                Sweden      (DFT grid and basis info)
  Torgeir A. Ruden,         University of Oslo,           Norway      (Numerical derivatives in ABACUS)
  Kenneth Ruud,             UiT The Arctic U. of Norway,  Norway      (DALTON; ABACUS magnetic properties and  much more)
  Pawel Salek,              KTH Stockholm,                Sweden      (DALTON; DFT code)
  Claire C. M. Samson       University of Karlsruhe       Germany     (Boys localization, r12 integrals in ERI)
  Alfredo Sanchez de Meras, University of Valencia,       Spain       (CC module, Cholesky decomposition)
  Trond Saue,               Paul Sabatier University,     France      (direct Fock matrix construction)
  Stephan P. A. Sauer,      University of Copenhagen,     Denmark     (SOPPA(CCSD), SOPPA prop., AOSOPPA, vibrational g-factors)
  Bernd Schimmelpfennig,    Forschungszentrum Karlsruhe,  Germany     (AMFI module)
  Kristian Sneskov,         Aarhus University,            Denmark     (QM/MM, PE-CC)
  Arnfinn H. Steindal,      UiT The Arctic U. of Norway,  Norway      (parallel QM/MM)
  K. O. Sylvester-Hvid,     University of Copenhagen,     Denmark     (MC-SCRF)
  Peter R. Taylor,          VLSCI/Univ. of Melbourne,     Australia   (Symmetry handling ABACUS, integral transformation)
  Andrew M. Teale,          University of Nottingham,     England     (DFT-AC, DFT-D)
  David P. Tew,             University of Bristol,        England     (CCSD(R12))
  Olav Vahtras,             KTH Stockholm,                Sweden      (triplet response, spin-orbit, ESR, TDDFT, open-shell DFT)
  David J. Wilson,          La Trobe University,          Australia   (DFT Hessian and DFT magnetizabilities)
  Hans Agren,               KTH Stockholm,                Sweden      (SIRIUS module, RESPONS, MC-SCRF solvation model)
 --------------------------------------------------------------------------------

     Date and time (Linux)  : Sun Sep  8 20:38:30 2013
     Host name              : lpqlx131.ups-tlse.fr                    

 * Work memory size             :    64000000 =  488.28 megabytes.

 * Directories for basis set searches:
   1) /home/bast/DALTON-2013.0-Source/build/test_energy_stex
   2) /home/bast/DALTON-2013.0-Source/build/basis


Compilation information
-----------------------

 Who compiled             | bast
 Host                     | lpqlx131.ups-tlse.fr
 System                   | Linux-3.8.5-201.fc18.x86_64
 CMake generator          | Unix Makefiles
 Processor                | x86_64
 64-bit integers          | OFF
 MPI                      | OFF
 Fortran compiler         | /usr/bin/gfortran
 Fortran compiler version | GNU Fortran (GCC) 4.7.2 20121109 (Red Hat 4.7.2-8)
 C compiler               | /usr/bin/gcc
 C compiler version       | gcc (GCC) 4.7.2 20121109 (Red Hat 4.7.2-8)
 C++ compiler             | /usr/bin/g++
 C++ compiler version     | g++ (GCC) 4.7.2 20121109 (Red Hat 4.7.2-8)
 Static linking           | OFF
 Last Git revision        | f34203295a86316e27f9e7b44f9b6769c4a046c0
 Configuration time       | 2013-09-08 20:31:27.952056


   Content of the .dal input file
 ----------------------------------

**DALTON INPUT                                    
.RUN WAVE FUNCTION                                
#.DIRECT                                          
**INTEGRALS                                       
.DIPLEN                                           
.DIPVEL                                           
**WAVE FUNCTIONS                                  
.STEX                                             
*SCF INPUT                                        
.DOUBLY OCCUP                                     
 7                                                
*STEX                                             
.XAS                                              
.OPEN SHELLS                                      
 1                                                
 7                                                
.COEFFICIENTS                                     
 +1.0                                             
 -2.0                                             
.PRINT                                            
  2                                               
*ORBITAL                                          
.MOSTART                                          
 H1DIAG                                           
.AO DEL                                           
1.D-8                                             
.THRSSY                                           
1.0D-7                                            
.CMOMAXL                                          
1.D5                                              
.NOSUPSYM                                         
*END OF INPUT                                     


   Content of the .mol file
 ----------------------------

INTGRL                                                                         
base CCATZ (gaussiane sferiche)  , nessuna simmetria                           
picolla base aumentata s,p,d su O                                              
    3    0                                                                     
        6.    1    3    1    1    1                                            
C      0.0000 0.0000 0.00000                                                   
F  11    5    0                                                                
8236.      0.000531   -0.000113   0.000000   0.000000  0.0                     
1235.      0.004108   -0.000878   0.000000   0.000000  0.0                     
280.8      0.021087   -0.004540   0.000000   0.000000  0.0                     
79.27      0.081853   -0.018133   0.000000   0.000000  0.0                     
25.59      0.234817   -0.055760   0.000000   0.000000  0.0                     
8.997      0.434401   -0.126895   0.000000   0.000000  0.0                     
3.319      0.346129   -0.170352   0.000000   0.000000  0.0                     
0.9059     0.039378    0.140382   1.000000   0.000000  0.0                     
0.3643    -0.008983    0.598684   0.000000   0.000000  0.0                     
0.1285     0.002385    0.395389   0.000000   1.000000  0.0                     
0.04402    0.000000    0.000000   0.000000   0.000000  1.0                     
F   6    4    0                                                                
18.71      0.014031    0.000000   0.000000  0.0                                
4.133      0.086866    0.000000   0.000000  0.0                                
1.200      0.290216    0.000000   0.000000  0.0                                
0.3827     0.501008    1.000000   0.000000  0.0                                
0.1209     0.343406    0.000000   1.000000  0.0                                
0.03569    0.000000    0.000000   0.000000  1.0                                
F   3    3    0                                                                
1.097      1.000000    0.000000  0.0                                           
0.318      0.000000    1.000000  0.0                                           
0.100      0.000000    0.000000  1.0                                           
        8.    1    3    1    1    1                                            
O      0.0000 0.0000 2.13200                                                   
F  11    5    0                                                                
15330.     0.000508   -0.000115   0.000000   0.000000  0.0                     
2299.      0.003929   -0.000895   0.000000   0.000000  0.0                     
522.4      0.020243   -0.004636   0.000000   0.000000  0.0                     
147.3      0.079181   -0.018724   0.000000   0.000000  0.0                     
47.55      0.230687   -0.058463   0.000000   0.000000  0.0                     
16.76      0.433118   -0.136463   0.000000   0.000000  0.0                     
6.207      0.350260   -0.175740   0.000000   0.000000  0.0                     
1.752      0.042728    0.160934   1.000000   0.000000  0.0                     
0.6882    -0.008154    0.603418   0.000000   0.000000  0.0                     
0.2384     0.002381    0.378765   0.000000   1.000000  0.0                     
0.073760   0.0         0.0        0.0        0.0       1.000000                
F   6    4    0                                                                
34.46      0.015928    0.000000   0.000000   0.0                               
7.749      0.099740    0.000000   0.000000   0.0                               
2.280      0.310492    0.000000   0.000000   0.0                               
0.7156     0.491026    1.000000   0.000000   0.0                               
0.2140     0.336337    0.000000   1.000000   0.0                               
0.05974    0.0         0.0        0.0        1.000000                          
F   3    3    0                                                                
2.314      1.000000    0.000000   0.0                                          
0.645      0.000000    1.000000   0.0                                          
0.214000   0.0         0.0        1.000000                                     
        0.    1    3    1    1    1                                            
AUO    0.0000 0.0000 2.13200                                                   
F   5    5                                                                     
5.00     1 0 0 0 0                                                             
3.47     0 1 0 0 0                                                             
2.41     0 0 1 0 0                                                             
1.774    0 0 0 1 0                                                             
1.050    0 0 0 0 1                                                             
F   5    5                                                                     
5.00     1 0 0 0 0                                                             
3.47     0 1 0 0 0                                                             
2.41     0 0 1 0 0                                                             
1.774    0 0 0 1 0                                                             
1.050    0 0 0 0 1                                                             
F   5    5                                                                     
5.00     1 0 0 0 0                                                             
3.47     0 1 0 0 0                                                             
2.41     0 0 1 0 0                                                             
1.774    0 0 0 1 0                                                             
1.050    0 0 0 0 1                                                             


       *******************************************************************
       *********** Output from DALTON general input processing ***********
       *******************************************************************

 --------------------------------------------------------------------------------
   Overall default print level:    0
   Print level for DALTON.STAT:    1

    HERMIT 1- and 2-electron integral sections will be executed
    "Old" integral transformation used (limited to max 255 basis functions)
    Wave function sections will be executed (SIRIUS module)
 --------------------------------------------------------------------------------


   ****************************************************************************
   *************** Output of molecule and basis set information ***************
   ****************************************************************************


    The two title cards from your ".mol" input:
    ------------------------------------------------------------------------
 1: base CCATZ (gaussiane sferiche)  , nessuna simmetria                    
 2: picolla base aumentata s,p,d su O                                       
    ------------------------------------------------------------------------

  Atomic type no.    1
  --------------------
  Nuclear charge:   6.00000
  Number of symmetry independent centers:    1
  Number of basis sets to read;    1

  Atomic type no.    2
  --------------------
  Nuclear charge:   8.00000
  Number of symmetry independent centers:    1
  Number of basis sets to read;    1

  Atomic type no.    3
  --------------------
  Nuclear charge:   0.00000
  Number of symmetry independent centers:    1
  Number of basis sets to read;    1


                         SYMGRP: Point group information
                         -------------------------------

Point group: C1 


                                 Isotopic Masses
                                 ---------------

                           C          12.000000
                           O          15.994915

                       Total mass:    27.994915 amu
                       Natural abundance:  98.663 %

 Center-of-mass coordinates (a.u.):    0.000000    0.000000    1.218120


  Atoms and basis sets
  --------------------

  Number of atom types :    3
  Total number of atoms:    3

  label    atoms   charge   prim   cont     basis
  ----------------------------------------------------------------------
  C           1    6.0000    44    32      [11s6p3d|5s4p3d]                                   
  O           1    8.0000    44    32      [11s6p3d|5s4p3d]                                   
  AU          1    0.0000    45    45      [5s5p5d|5s5p5d]                                    
  ----------------------------------------------------------------------
  total:      3   14.0000   133   109
  ----------------------------------------------------------------------
  Spherical harmonic basis used.

  Threshold for neglecting AO integrals:  1.00D-12


  Cartesian Coordinates (a.u.)
  ----------------------------

  Total number of coordinates:    9
  C       :     1  x   0.0000000000    2  y   0.0000000000    3  z   0.0000000000
  O       :     4  x   0.0000000000    5  y   0.0000000000    6  z   2.1320000000
  AUO     :     7  x   0.0000000000    8  y   0.0000000000    9  z   2.1320000000


   Interatomic separations (in Angstrom):
   --------------------------------------

            C           O           AUO   
            ------      ------      ------
 C     :    0.000000
 O     :    1.128206    0.000000
 AUO   :    1.128206    0.000000    0.000000


  Max    interatomic separation is    1.1282 Angstrom (    2.1320 Bohr)
  between atoms    2 and    1, "O     " and "C     ".

  Min YX interatomic separation is    0.0000 Angstrom (    0.0000 Bohr)

WARNING: Number of short HX and YX bond lengths:    0    1
WARNING: If not intentional, maybe your coordinates were in Angstrom,
WARNING: but "Angstrom" was not specified in .mol file


  Bond distances (Angstrom):
  --------------------------

                  atom 1     atom 2       distance
                  ------     ------       --------
  bond distance:  O          C            1.128206


  Bond angles (degrees):
  ----------------------

                  atom 1     atom 2     atom 3         angle
                  ------     ------     ------         -----
     No angles found




 Principal moments of inertia (u*A**2) and principal axes
 --------------------------------------------------------

   IA       0.000000          0.000000    0.000000    1.000000
   IB       8.726914          0.000000    1.000000    0.000000
   IC       8.726914          1.000000    0.000000    0.000000


 Rotational constants
 --------------------

 The molecule is linear.

               B =        57910.39 MHz     (    1.931683 cm-1)


@  Nuclear repulsion energy :   22.514071294559 Hartree

  Number of floating/multiple basis set orbitals :    1


                     .---------------------------------------.
                     | Starting in Integral Section (HERMIT) |
                     `---------------------------------------'



    *************************************************************************
    ****************** Output from HERMIT input processing ******************
    *************************************************************************


 Default print level:        1

 * Nuclear model: Point charge

 Calculation of one- and two-electron Hamiltonian integrals.

 The following one-electron property integrals are calculated as requested:
          - overlap integrals
          - dipole length integrals
          - dipole velocity integrals

 Center of mass  (bohr):      0.000000000000      0.000000000000      1.218119747104
 Operator center (bohr):      0.000000000000      0.000000000000      0.000000000000
 Gauge origin    (bohr):      0.000000000000      0.000000000000      0.000000000000
 Dipole origin   (bohr):      0.000000000000      0.000000000000      0.000000000000


     ************************************************************************
     ************************** Output from HERINT **************************
     ************************************************************************


 Threshold for neglecting two-electron integrals:  1.00D-12
 Number of two-electron integrals written:     3620794 ( 20.1% )
 Megabytes written:                             41.462

 >>>  Time used in TWOINT     is   0.98 seconds
 >>>> Total CPU  time used in HERMIT:   1.05 seconds
 >>>> Total wall time used in HERMIT:   1.05 seconds


                        .----------------------------------.
                        | End of Integral Section (HERMIT) |
                        `----------------------------------'



                   .--------------------------------------------.
                   | Starting in Wave Function Section (SIRIUS) |
                   `--------------------------------------------'



@ Primary orbitals are deleted during canonical orthonormalization
@   because of detected numerical linear dependence or too large coefficients.
@ Eigenvalue threshold for num. lin. dep. =  1.00D-08

@   1 MO components are deleted in symmetry    1
 Overlap eigenvalues of the deleted orbitals:
  1.34D-10

 Max MO coeff. of last deleted MO & limit:  6.19D+04  1.00D+05

 **********************************************************************
 *SIRIUS* a direct, restricted step, second order MCSCF program       *
 **********************************************************************

 
     Date and time (Linux)  : Sun Sep  8 20:38:31 2013
     Host name              : lpqlx131.ups-tlse.fr                    

 Title lines from ".mol" input file:
     base CCATZ (gaussiane sferiche)  , nessuna simmetria                    
     picolla base aumentata s,p,d su O                                       

 Print level on unit LUPRI =   2 is   0
 Print level on unit LUW4  =   2 is   5

@    No wave function optimization.

 Initial molecular orbitals are obtained according to
 ".MOSTART H1DIAG" input option

     Wave function specification
     ============================
@    For the wave function of type :      >>>  <<<
@    Number of closed shell electrons          14
@    Number of electrons in active shells       0
@    Total charge of the molecule               0

@    Spin multiplicity and 2 M_S                1         0
     Total number of symmetries                 1
@    Reference state symmetry                   1

     Orbital specifications
     ======================
     Abelian symmetry species          All |    1
                                       --- |  ---
@    Occupied SCF orbitals               7 |    7
     Secondary orbitals                101 |  101
     Total number of orbitals          108 |  108
     Number of basis functions         109 |  109


                     ***************************************
                     ***** Static exchange calculation *****
                     ***************************************



   X-ray absorption spectrum
   -------------------------

       Print level in STEX routines     2
       Static exchange Hamiltonian calculated for
       orbital (symmetry)    7 (1)
       J coefficients      1.0
       K coefficients     -2.0


   UAUG:Initial MO
   ---------------


               Column   1     Column   2     Column   3     Column   4     Column   5
       1       0.00037962    -0.99848892    -0.01988372    -0.00152683    -0.00000000
       2       0.00141924     0.00255797     0.41958477     0.57192310     0.00000000
       3      -0.00007285    -0.00190516     0.00237650     0.00462862     0.00000000
       4      -0.00270472    -0.00235828    -0.11791216    -0.07786831     0.00000000
       5      -0.00038549    -0.00044379     0.00507851     0.00867908     0.00000000
       6      -0.00000000     0.00000000     0.00000000     0.00000000    -0.10029066
       7       0.00000000     0.00000000    -0.00000000    -0.00000000     0.43489932
       8       0.00119718    -0.00843439     0.34408928     0.20600483    -0.00000000
       9       0.00000000    -0.00000000    -0.00000000    -0.00000000     0.00601721
      10      -0.00000000    -0.00000000     0.00000000     0.00000000    -0.02609298
      11       0.00037593     0.00567657    -0.05765503    -0.02918947     0.00000000
      12       0.00000000    -0.00000000    -0.00000000    -0.00000000     0.02098964
      13      -0.00000000    -0.00000000     0.00000000    -0.00000000    -0.09101924
      14      -0.00190766     0.00187817    -0.12806703    -0.07409894     0.00000000
      15      -0.00000000     0.00000000     0.00000000     0.00000000     0.00019316
      16       0.00000000    -0.00000000    -0.00000000    -0.00000000    -0.00083763
      17      -0.00007021    -0.00023565    -0.00110711     0.00072177     0.00000000
      19       0.00000000     0.00000000     0.00000000     0.00000000     0.02961388
      20       0.00024979    -0.00116362     0.02696464     0.01619004     0.00000000
      21      -0.00000000     0.00000000    -0.00000000     0.00000000    -0.00682916
      24       0.00000000     0.00000000    -0.00000000    -0.00000000     0.02857251
      25       0.00046239     0.00040429     0.00871055     0.00384310     0.00000000
      26      -0.00000000     0.00000000     0.00000000     0.00000000    -0.00658901
      29      -0.00000000    -0.00000000     0.00000000    -0.00000000    -0.00406366
      30      -0.00054531    -0.00043076    -0.01045273    -0.00062267    -0.00000000
      31       0.00000000     0.00000000    -0.00000000    -0.00000000     0.00093711
      33       0.99869365     0.00024599    -0.00537810    -0.00314285    -0.00000000
      34      -0.00300556    -0.00163117     0.83244689    -0.47086745    -0.00000000
      35       0.00132966    -0.00011194    -0.00713694    -0.00251407    -0.00000000
      36       0.00354053     0.00028258    -0.12279022    -0.16846842    -0.00000000
      37       0.00082991     0.00173795    -0.02773892    -0.06159146    -0.00000000
      38       0.00000000    -0.00000000    -0.00000000    -0.00000000    -0.17792140
      39      -0.00000000     0.00000000     0.00000000    -0.00000000     0.77153637
      40      -0.00427881     0.00162020    -0.24176978    -0.73809933    -0.00000000
      41      -0.00000000     0.00000000     0.00000000     0.00000000    -0.00290718
      42       0.00000000     0.00000000    -0.00000000     0.00000000     0.01260667
      43       0.00346443    -0.00048243     0.00285956     0.01808730     0.00000000
      44      -0.00000000     0.00000000     0.00000000     0.00000000     0.00065088
      45       0.00000000     0.00000000    -0.00000000     0.00000000    -0.00282248
      46       0.00057718     0.00023333     0.11287322     0.12021370     0.00000000
      47       0.00000000     0.00000000    -0.00000000    -0.00000000    -0.00374226
      48      -0.00000000     0.00000000     0.00000000    -0.00000000     0.01622788
      49       0.00001545    -0.00025763     0.01455101     0.00596406    -0.00000000
      51      -0.00000000    -0.00000000     0.00000000    -0.00000000    -0.01114290
      52       0.00029235    -0.00020842     0.01061199     0.01158775    -0.00000000
      53       0.00000000    -0.00000000    -0.00000000    -0.00000000     0.00256963
      56      -0.00000000    -0.00000000    -0.00000000     0.00000000    -0.03571780
      57      -0.00036940     0.00057912     0.01707251     0.01664729     0.00000000
      58       0.00000000    -0.00000000     0.00000000     0.00000000     0.00823676
      61      -0.00000000    -0.00000000     0.00000000    -0.00000000    -0.00752171
      62       0.00022061    -0.00050365    -0.02594334    -0.01288426    -0.00000000
      63       0.00000000    -0.00000000    -0.00000000    -0.00000000     0.00173456

               Column   6     Column   7     Column   8     Column   9     Column  10
       1      -0.00000000     0.00516272     0.01721643     0.00000000    -0.00000000
       2       0.00000000     0.62277877    -0.01850111     0.00000000    -0.00000000
       3       0.00000000    -0.00682348    -0.00198434     0.00000000    -0.00000000
       4       0.00000000     0.12835967     1.99007583    -0.00000000     0.00000000
       5       0.00000000     0.01860520     3.79693206    -0.00000000    -0.00000000
       6       0.43489932    -0.00000000    -0.00000000     0.15975705    -0.00995400
       7       0.10029066     0.00000000    -0.00000000     0.00995400     0.15975705
       8      -0.00000000    -0.70797549     0.08051375     0.00000000     0.00000000
       9      -0.02609298     0.00000000     0.00000000     0.03403793    -0.00212080
      10      -0.00601721    -0.00000000     0.00000000     0.00212080     0.03403793
      11       0.00000000     0.05019407     0.15359151     0.00000000    -0.00000000
      12      -0.09101924     0.00000000     0.00000000     0.06212775    -0.00387100
      13      -0.02098964    -0.00000000     0.00000000     0.00387100     0.06212775
      14       0.00000000     0.12294990     1.26817014    -0.00000000    -0.00000000
      15      -0.00083763    -0.00000000    -0.00000000     1.46323706    -0.09117005
      16      -0.00019316     0.00000000    -0.00000000     0.09117005     1.46323706
      17      -0.00000000    -0.00247652     1.23925798     0.00000000     0.00000000
      19       0.00682916    -0.00000000     0.00000000    -0.00029578    -0.00474705
      20       0.00000000    -0.02172370    -0.00038121     0.00000000    -0.00000000
      21       0.02961388     0.00000000    -0.00000000    -0.00474705     0.00029578
      24       0.00658901     0.00000000    -0.00000000    -0.00217339    -0.03488197
      25       0.00000000    -0.01375622     0.09012914     0.00000000     0.00000000
      26       0.02857251    -0.00000000    -0.00000000    -0.03488197     0.00217339
      29      -0.00093711    -0.00000000     0.00000000     0.00868612     0.13940816
      30      -0.00000000     0.00325290     0.26488544    -0.00000000    -0.00000000
      31      -0.00406366     0.00000000     0.00000000     0.13940816    -0.00868612
      33       0.00000000    -0.00198765     0.01279642    -0.00000000    -0.00000000
      34      -0.00000000    -0.07124990    -0.05371787    -0.00000000    -0.00000000
      35      -0.00000000    -0.00087748    -0.00272096    -0.00000000    -0.00000000
      36      -0.00000000     0.05527137    -0.86688510    -0.00000000     0.00000000
      37      -0.00000000     0.04298173    -4.72937325     0.00000000     0.00000000
      38       0.77153637     0.00000000     0.00000000    -0.22551221     0.01405101
      39       0.17792140    -0.00000000     0.00000000    -0.01405101    -0.22551221
      40      -0.00000000     0.37828996    -0.06967115     0.00000000    -0.00000000
      41       0.01260667    -0.00000000    -0.00000000    -0.00522073     0.00032529
      42       0.00290718     0.00000000    -0.00000000    -0.00032529    -0.00522073
      43       0.00000000    -0.00832924     0.01455413    -0.00000000     0.00000000
      44      -0.00282248     0.00000000    -0.00000000    -0.05109277     0.00318344
      45      -0.00065088     0.00000000    -0.00000000    -0.00318344    -0.05109277
      46       0.00000000    -0.06189331     0.54490469    -0.00000000     0.00000000
      47       0.01622788    -0.00000000     0.00000000    -0.73473984     0.04577950
      48       0.00374226    -0.00000000     0.00000000    -0.04577950    -0.73473984
      49      -0.00000000    -0.00156291     0.92042700     0.00000000    -0.00000000
      51      -0.00256963    -0.00000000     0.00000000    -0.00001995    -0.00032020
      52      -0.00000000    -0.00679569     0.00201483     0.00000000    -0.00000000
      53      -0.01114290    -0.00000000     0.00000000    -0.00032020     0.00001995
      56      -0.00823676     0.00000000    -0.00000000    -0.00027407    -0.00439864
      57       0.00000000    -0.01025032    -0.02456904    -0.00000000     0.00000000
      58      -0.03571780     0.00000000    -0.00000000    -0.00439864     0.00027407
      61      -0.00173456    -0.00000000     0.00000000     0.00085919     0.01378953
      62      -0.00000000     0.01581211    -0.06769037    -0.00000000     0.00000000
      63      -0.00752171    -0.00000000     0.00000000     0.01378953    -0.00085919

               Column  11     Column  12     Column  13     Column  14     Column  15
       1       0.00755173     0.00000000    -0.00000000    -0.01239966     0.00000000
       2      -0.13078677     0.00000000    -0.00000000    -0.21042511     0.00000000
       3      -0.00942110     0.00000000    -0.00000000    -0.02322452     0.00000000
       4       0.15919270     0.00000000     0.00000000    -2.40233316    -0.00000000
       5       0.99025855     0.00000000     0.00000000     0.01199107    -0.00000000
       6       0.00000000     0.02622762    -0.66395235     0.00000000     0.14977700
       7       0.00000000    -0.66395235    -0.02622762    -0.00000000     0.00116813
       8       0.12224724    -0.00000000    -0.00000000     0.07647982     0.00000000
       9      -0.00000000    -0.00075726     0.01916995    -0.00000000     0.01549238
      10      -0.00000000     0.01916995     0.00075726     0.00000000     0.00012083
      11      -0.03629480     0.00000000    -0.00000000    -0.19603547     0.00000000
      12      -0.00000000     0.03059947    -0.77462594    -0.00000000    -0.66648730
      13      -0.00000000    -0.77462594    -0.03059947    -0.00000000    -0.00519802
      14       0.37989760     0.00000000     0.00000000     0.02345435    -0.00000000
      15       0.00000000    -0.01588403     0.40210447     0.00000000    -1.68190033
      16       0.00000000     0.40210447     0.01588403    -0.00000000    -0.01311737
      17      -1.35331329    -0.00000000    -0.00000000     1.01697522     0.00000000
      19      -0.00000000     0.01528735     0.00060388     0.00000000    -0.00005708
      20      -0.00376647     0.00000000    -0.00000000    -0.00538109     0.00000000
      21      -0.00000000    -0.00060388     0.01528735    -0.00000000    -0.00731915
      24       0.00000000    -0.05597031    -0.00221095    -0.00000000    -0.00020344
      25       0.06087207     0.00000000    -0.00000000    -0.04510887     0.00000000
      26       0.00000000     0.00221095    -0.05597031     0.00000000    -0.02608533
      29      -0.00000000     0.08459192     0.00334157    -0.00000000    -0.00475109
      30      -0.13563068     0.00000000     0.00000000     0.27420157    -0.00000000
      31      -0.00000000    -0.00334157     0.08459192    -0.00000000    -0.60918176
      33       0.00433612     0.00000000     0.00000000    -0.00758974    -0.00000000
      34       0.04735477    -0.00000000     0.00000000    -0.00222399    -0.00000000
      35      -0.00231153    -0.00000000     0.00000000     0.00141719    -0.00000000
      36      -0.14095783    -0.00000000     0.00000000     0.27360623    -0.00000000
      37      -0.34698175    -0.00000000    -0.00000000     1.29466606     0.00000000
      38      -0.00000000    -0.01347733     0.34117870    -0.00000000    -0.30455719
      39      -0.00000000     0.34117870     0.01347733    -0.00000000    -0.00237528
      40      -0.03287061     0.00000000    -0.00000000     0.07387753     0.00000000
      41       0.00000000    -0.00035382     0.00895695     0.00000000    -0.00637669
      42       0.00000000     0.00895695     0.00035382     0.00000000    -0.00004973
      43       0.00170434     0.00000000     0.00000000    -0.02383923    -0.00000000
      44       0.00000000    -0.00944619     0.23913045     0.00000000     0.02397486
      45       0.00000000     0.23913045     0.00944619     0.00000000     0.00018698
      46       0.05790642     0.00000000     0.00000000    -0.34588840    -0.00000000
      47      -0.00000000    -0.02016173     0.51039444    -0.00000000     2.76222722
      48      -0.00000000     0.51039444     0.02016173    -0.00000000     0.02154298
      49       0.76632535     0.00000000    -0.00000000    -2.57734476     0.00000000
      51      -0.00000000     0.00725363     0.00028653    -0.00000000    -0.00003987
      52      -0.00040068     0.00000000    -0.00000000    -0.00004663     0.00000000
      53      -0.00000000    -0.00028653     0.00725363    -0.00000000    -0.00511264
      56       0.00000000     0.01871622     0.00073933     0.00000000     0.00038065
      57       0.00800554    -0.00000000     0.00000000    -0.02722252    -0.00000000
      58       0.00000000    -0.00073933     0.01871622     0.00000000     0.04880704
      61      -0.00000000    -0.08190351    -0.00323537    -0.00000000    -0.00193708
      62      -0.02120155    -0.00000000     0.00000000     0.26673038    -0.00000000
      63      -0.00000000     0.00323537    -0.08190351    -0.00000000    -0.24837168

               Column  16     Column  17     Column  18     Column  19     Column  20
       1      -0.00000000    -0.02942209    -0.00000000     0.00000000     0.07198304
       2      -0.00000000    -0.16149278    -0.00000000     0.00000000     0.41264320
       3      -0.00000000    -0.01382483    -0.00000000     0.00000000    -0.00546349
       4       0.00000000    -4.50474962     0.00000000     0.00000000     4.38758331
       5      -0.00000000    -4.72273507    -0.00000000     0.00000000     1.97378882
       6      -0.00116813    -0.00000000     0.00000000     0.00000000    -0.00000000
       7       0.14977700    -0.00000000    -0.00000000     0.00000000    -0.00000000
       8       0.00000000     0.12218010    -0.00000000     0.00000000    -0.15257728
       9      -0.00012083     0.00000000    -0.00000000     0.00000000     0.00000000
      10       0.01549238     0.00000000     0.00000000     0.00000000     0.00000000
      11      -0.00000000    -0.34495676    -0.00000000     0.00000000     0.31147833
      12       0.00519802     0.00000000    -0.00000000     0.00000000     0.00000000
      13      -0.66648730     0.00000000     0.00000000     0.00000000     0.00000000
      14      -0.00000000    -2.44308267     0.00000000     0.00000000     1.90680889
      15       0.01311737    -0.00000000     0.00000000     0.00000000    -0.00000000
      16      -1.68190033    -0.00000000    -0.00000000     0.00000000    -0.00000000
      17       0.00000000    -1.75598272    -0.00000000     0.00000000    -0.53136165
      18       0.00000000     0.00000000     0.00000000    -0.03575156     0.00000000
      19      -0.00731915     0.00000000    -0.00000000     0.00000000     0.00000000
      20      -0.00000000    -0.02588567    -0.00000000     0.00000000    -0.04300451
      21       0.00005708     0.00000000     0.00000000     0.00000000     0.00000000
      22      -0.00000000     0.00000000    -0.03575156     0.00000000     0.00000000
      23       0.00000000     0.00000000     0.00000000     0.10033539     0.00000000
      24      -0.02608533    -0.00000000    -0.00000000     0.00000000    -0.00000000
      25       0.00000000    -0.17322877    -0.00000000     0.00000000     0.24666748
      26       0.00020344    -0.00000000     0.00000000     0.00000000    -0.00000000
      27       0.00000000    -0.00000000     0.10033539     0.00000000    -0.00000000
      28       0.00000000     0.00000000     0.00000000    -1.08294680     0.00000000
      29      -0.60918176     0.00000000     0.00000000     0.00000000     0.00000000
      30      -0.00000000    -1.04383536     0.00000000     0.00000000    -1.15686444
      31       0.00475109     0.00000000    -0.00000000     0.00000000     0.00000000
      32      -0.00000000    -0.00000000    -1.08294680     0.00000000    -0.00000000
      33      -0.00000000    -0.04514915     0.00000000     0.00000000    -0.01491033
      34      -0.00000000    -0.39150778     0.00000000     0.00000000    -0.03190799
      35      -0.00000000    -0.00400705     0.00000000     0.00000000     0.01014533
      36       0.00000000     1.48017562     0.00000000     0.00000000    -0.71835904
      37       0.00000000     9.10120256     0.00000000     0.00000000    -5.27351303
      38       0.00237528     0.00000000    -0.00000000     0.00000000     0.00000000
      39      -0.30455719     0.00000000     0.00000000     0.00000000     0.00000000
      40      -0.00000000    -0.05681852    -0.00000000     0.00000000     0.22464564
      41       0.00004973    -0.00000000     0.00000000     0.00000000    -0.00000000
      42      -0.00637669    -0.00000000    -0.00000000     0.00000000    -0.00000000
      43       0.00000000    -0.00297581     0.00000000     0.00000000     0.00087715
      44      -0.00018698    -0.00000000     0.00000000     0.00000000    -0.00000000
      45       0.02397486    -0.00000000    -0.00000000     0.00000000    -0.00000000
      46       0.00000000    -1.25633687    -0.00000000     0.00000000     1.26242955
      47      -0.02154298     0.00000000    -0.00000000     0.00000000     0.00000000
      48       2.76222722     0.00000000     0.00000000     0.00000000     0.00000000
      49      -0.00000000    -0.63593909    -0.00000000     0.00000000     2.24460487
      50       0.00000000     0.00000000     0.00000000    -0.00092303     0.00000000
      51      -0.00511264     0.00000000     0.00000000     0.00000000     0.00000000
      52      -0.00000000    -0.00698400     0.00000000     0.00000000     0.00097301
      53       0.00003987     0.00000000    -0.00000000     0.00000000     0.00000000
      54       0.00000000     0.00000000    -0.00092303     0.00000000    -0.00000000
      55       0.00000000     0.00000000     0.00000000    -0.03846992     0.00000000
      56       0.04880704    -0.00000000     0.00000000     0.00000000    -0.00000000
      57       0.00000000     0.06227056     0.00000000     0.00000000    -0.02867574
      58      -0.00038065    -0.00000000    -0.00000000     0.00000000    -0.00000000
      59      -0.00000000    -0.00000000    -0.03846992     0.00000000    -0.00000000
      60       0.00000000     0.00000000     0.00000000     0.07097281     0.00000000
      61      -0.24837168     0.00000000     0.00000000     0.00000000     0.00000000
      62       0.00000000     0.08976040     0.00000000     0.00000000    -0.20809540
      63       0.00193708     0.00000000    -0.00000000     0.00000000     0.00000000
      64       0.00000000     0.00000000     0.07097281     0.00000000     0.00000000

               Column  21     Column  22     Column  23     Column  24     Column  25
       1      -0.00000000    -0.00000000     0.01750623     0.00000000     0.00000000
       2       0.00000000    -0.00000000     0.36752777     0.00000000    -0.00000000
       3       0.00000000    -0.00000000    -0.04932872     0.00000000    -0.00000000
       4       0.00000000     0.00000000     3.22504974    -0.00000000    -0.00000000
       5       0.00000000     0.00000000     3.03073883    -0.00000000    -0.00000000
       6       0.00106861    -0.33186368    -0.00000000     0.66053504    -0.00138187
       7      -0.33186368    -0.00106861    -0.00000000     0.00138187     0.66053504
       8      -0.00000000    -0.00000000    -0.17882865     0.00000000     0.00000000
       9       0.00029025    -0.09013764     0.00000000     0.26428232    -0.00055289
      10      -0.09013764    -0.00029025     0.00000000     0.00055289     0.26428232
      11       0.00000000    -0.00000000    -0.05744358     0.00000000    -0.00000000
      12       0.00253350    -0.78679379     0.00000000    -3.14004797     0.00656911
      13      -0.78679379    -0.00253350     0.00000000    -0.00656911    -3.14004797
      14       0.00000000     0.00000000     4.77427181    -0.00000000    -0.00000000
      15       0.00334353    -1.03835386    -0.00000000    -0.17364229     0.00036327
      16      -1.03835386    -0.00334353    -0.00000000    -0.00036327    -0.17364229
      17      -0.00000000    -0.00000000     0.66055072     0.00000000     0.00000000
      19      -0.02319728    -0.00007470     0.00000000     0.00009590     0.04584118
      20       0.00000000    -0.00000000    -0.02903532     0.00000000    -0.00000000
      21       0.00007470    -0.02319728     0.00000000     0.04584118    -0.00009590
      24       0.08058775     0.00025949    -0.00000000    -0.00064531    -0.30845976
      25       0.00000000    -0.00000000     0.26499097     0.00000000    -0.00000000
      26      -0.00025949     0.08058775    -0.00000000    -0.30845976     0.00064531
      29      -1.88088361    -0.00605650     0.00000000    -0.00204447    -0.97726079
      30       0.00000000     0.00000000     1.87376113    -0.00000000     0.00000000
      31       0.00605650    -1.88088361     0.00000000    -0.97726079     0.00204447
      33       0.00000000     0.00000000     0.07844146    -0.00000000    -0.00000000
      34      -0.00000000     0.00000000     0.01993875    -0.00000000     0.00000000
      35      -0.00000000     0.00000000    -0.03321079    -0.00000000     0.00000000
      36      -0.00000000     0.00000000    -3.64476053    -0.00000000     0.00000000
      37      -0.00000000    -0.00000000    -4.90775614     0.00000000     0.00000000
      38      -0.00097565     0.30299345     0.00000000     0.05625676    -0.00011769
      39       0.30299345     0.00097565     0.00000000     0.00011769     0.05625676
      40      -0.00000000    -0.00000000     0.06531053     0.00000000     0.00000000
      41       0.00031321    -0.09726947    -0.00000000    -0.06415428     0.00013421
      42      -0.09726947    -0.00031321    -0.00000000    -0.00013421    -0.06415428
      43       0.00000000     0.00000000     0.09077533    -0.00000000    -0.00000000
      44      -0.00254993     0.79189768    -0.00000000     0.99107727    -0.00207337
      45       0.79189768     0.00254993    -0.00000000     0.00207337     0.99107727
      46       0.00000000     0.00000000     0.47178281    -0.00000000    -0.00000000
      47      -0.00545164     1.69304015     0.00000000     1.61201933    -0.00337241
      48       1.69304015     0.00545164     0.00000000     0.00337241     1.61201933
      49       0.00000000    -0.00000000    -0.44367072     0.00000000     0.00000000
      51       0.00462197     0.00001488     0.00000000    -0.00004023    -0.01922885
      52       0.00000000    -0.00000000    -0.00242200     0.00000000    -0.00000000
      53      -0.00001488     0.00462197     0.00000000    -0.01922885     0.00004023
      56       0.02102410     0.00006770    -0.00000000     0.00004245     0.02029225
      57      -0.00000000     0.00000000    -0.03914041    -0.00000000     0.00000000
      58      -0.00006770     0.02102410    -0.00000000     0.02029225    -0.00004245
      61      -0.05857065    -0.00018860     0.00000000    -0.00159895    -0.76430119
      62      -0.00000000     0.00000000     0.21525823    -0.00000000     0.00000000
      63       0.00018860    -0.05857065     0.00000000    -0.76430119     0.00159895

               Column  26     Column  27     Column  28     Column  29     Column  30
       1      -0.01208428     0.00000000     0.00000000     0.04658298     0.00000000
       2      -0.54645197     0.00000000     0.00000000     0.06849039     0.00000000
       3       0.04150918     0.00000000     0.00000000     0.00597396     0.00000000
       4       7.63828332    -0.00000000     0.00000000    -5.14913549    -0.00000000
       5       1.49166760    -0.00000000     0.00000000    -1.92322051    -0.00000000
       6       0.00000000     0.00000000     0.00000000     0.00000000     0.30327416
       7      -0.00000000    -0.00000000     0.00000000     0.00000000     0.00038801
       8      -0.07167765     0.00000000     0.00000000    -0.71326776     0.00000000
       9      -0.00000000    -0.00000000     0.00000000    -0.00000000     0.52489055
      10       0.00000000     0.00000000     0.00000000    -0.00000000     0.00067155
      11       0.98360005    -0.00000000     0.00000000    -0.89456772     0.00000000
      12      -0.00000000    -0.00000000     0.00000000    -0.00000000     0.41164562
      13      -0.00000000     0.00000000     0.00000000    -0.00000000     0.00052667
      14       1.70867754    -0.00000000     0.00000000    -2.12164376    -0.00000000
      15       0.00000000     0.00000000     0.00000000     0.00000000     0.60783899
      16      -0.00000000    -0.00000000     0.00000000     0.00000000     0.00077768
      17       0.18634126     0.00000000     0.00000000    -0.91807803     0.00000000
      18       0.00000000     0.00000000    -0.01737364     0.00000000     0.00000000
      19       0.00000000    -0.00000000     0.00000000     0.00000000    -0.00004255
      20       0.00753254     0.00000000     0.00000000    -0.02153950     0.00000000
      21      -0.00000000     0.00000000     0.00000000    -0.00000000    -0.03325492
      22      -0.00000000    -0.01737364     0.00000000    -0.00000000     0.00000000
      23       0.00000000     0.00000000    -0.06532586     0.00000000     0.00000000
      24      -0.00000000    -0.00000000     0.00000000     0.00000000    -0.00011385
      25       0.09062322     0.00000000     0.00000000     0.12482186     0.00000000
      26       0.00000000     0.00000000     0.00000000     0.00000000    -0.08898427
      27       0.00000000    -0.06532586     0.00000000     0.00000000    -0.00000000
      28       0.00000000     0.00000000     0.68806722     0.00000000     0.00000000
      29      -0.00000000     0.00000000     0.00000000    -0.00000000     0.00043089
      30       0.29328733    -0.00000000     0.00000000    -0.95855458    -0.00000000
      31      -0.00000000    -0.00000000     0.00000000    -0.00000000     0.33678838
      32       0.00000000     0.68806722     0.00000000     0.00000000    -0.00000000
      33       0.05875871     0.00000000     0.00000000    -0.00324870    -0.00000000
      34       0.11212563    -0.00000000     0.00000000     0.34300132    -0.00000000
      35      -0.00630119    -0.00000000     0.00000000    -0.01569637    -0.00000000
      36      -2.54850148     0.00000000     0.00000000     2.75933345    -0.00000000
      37      -5.77631404     0.00000000     0.00000000     4.88886704     0.00000000
      38      -0.00000000    -0.00000000     0.00000000    -0.00000000    -0.33696216
      39      -0.00000000     0.00000000     0.00000000    -0.00000000    -0.00043111
      40       0.05935908     0.00000000     0.00000000    -0.22648537     0.00000000
      41       0.00000000     0.00000000     0.00000000     0.00000000    -0.16770660
      42       0.00000000    -0.00000000     0.00000000     0.00000000    -0.00021457
      43       0.11713041    -0.00000000     0.00000000    -0.09285753    -0.00000000
      44       0.00000000     0.00000000     0.00000000     0.00000000     0.37278484
      45       0.00000000    -0.00000000     0.00000000     0.00000000     0.00047695
      46       1.72330524    -0.00000000     0.00000000    -1.87179682    -0.00000000
      47      -0.00000000    -0.00000000     0.00000000    -0.00000000    -1.23893042
      48      -0.00000000     0.00000000     0.00000000    -0.00000000    -0.00158511
      49       1.92022127     0.00000000     0.00000000     0.10236619     0.00000000
      50       0.00000000     0.00000000    -0.04199546     0.00000000     0.00000000
      51      -0.00000000     0.00000000     0.00000000    -0.00000000     0.00004676
      52      -0.02638867     0.00000000     0.00000000    -0.03643974     0.00000000
      53      -0.00000000    -0.00000000     0.00000000    -0.00000000     0.03654462
      54       0.00000000    -0.04199546     0.00000000    -0.00000000     0.00000000
      55       0.00000000     0.00000000     0.10981418     0.00000000     0.00000000
      56       0.00000000     0.00000000     0.00000000     0.00000000    -0.00014063
      57      -0.03934419    -0.00000000     0.00000000     0.15024485    -0.00000000
      58       0.00000000    -0.00000000     0.00000000     0.00000000    -0.10991881
      59      -0.00000000     0.10981418     0.00000000     0.00000000    -0.00000000
      60       0.00000000     0.00000000    -1.26684179     0.00000000     0.00000000
      61      -0.00000000     0.00000000     0.00000000    -0.00000000     0.00171778
      62      -1.21934642    -0.00000000     0.00000000    -0.49520895    -0.00000000
      63       0.00000000    -0.00000000     0.00000000    -0.00000000     1.34262965
      64       0.00000000    -1.26684179     0.00000000    -0.00000000     0.00000000

               Column  31     Column  32     Column  33     Column  34     Column  35
       1      -0.00000000    -0.07863186    -0.00000000     0.00000000     0.00000000
       2      -0.00000000     0.05450066    -0.00000000     0.00000000     0.00000000
       3      -0.00000000     0.00556867    -0.00000000     0.00000000     0.00000000
       4       0.00000000   -10.24389106     0.00000000     0.00000000    -0.00000000
       5      -0.00000000    -3.15345771     0.00000000     0.00000000    -0.00000000
       6      -0.00038801    -0.00000000     0.00000000     0.00000000    -0.04202449
       7       0.30327416    -0.00000000    -0.00000000     0.00000000    -0.00003148
       8       0.00000000     0.35981511    -0.00000000     0.00000000     0.00000000
       9      -0.00067155     0.00000000    -0.00000000     0.00000000    -0.54745739
      10       0.52489055     0.00000000     0.00000000     0.00000000    -0.00041004
      11      -0.00000000    -1.26888376    -0.00000000     0.00000000     0.00000000
      12      -0.00052667     0.00000000    -0.00000000     0.00000000    -2.04274268
      13       0.41164562     0.00000000     0.00000000     0.00000000    -0.00152999
      14      -0.00000000    -5.12625275     0.00000000     0.00000000    -0.00000000
      15      -0.00077768    -0.00000000     0.00000000     0.00000000    -0.30066756
      16       0.60783899    -0.00000000    -0.00000000     0.00000000    -0.00022520
      17       0.00000000    -0.54232744    -0.00000000     0.00000000     0.00000000
      18       0.00000000     0.00000000     0.00000000     0.02217464     0.00000000
      19      -0.03325492    -0.00000000    -0.00000000     0.00000000     0.00001326
      20      -0.00000000    -0.06201181    -0.00000000     0.00000000     0.00000000
      21       0.00004255     0.00000000     0.00000000     0.00000000     0.01769896
      22      -0.00000000     0.00000000     0.02217464     0.00000000     0.00000000
      23       0.00000000     0.00000000     0.00000000    -1.27888971     0.00000000
      24      -0.08898427    -0.00000000    -0.00000000     0.00000000     0.00004941
      25       0.00000000    -1.23827097    -0.00000000     0.00000000     0.00000000
      26       0.00011385    -0.00000000     0.00000000     0.00000000     0.06596398
      27       0.00000000    -0.00000000    -1.27888971     0.00000000    -0.00000000
      28       0.00000000     0.00000000     0.00000000     0.41589780     0.00000000
      29       0.33678838     0.00000000     0.00000000     0.00000000    -0.00098694
      30      -0.00000000    -0.42786970     0.00000000     0.00000000    -0.00000000
      31      -0.00043089     0.00000000    -0.00000000     0.00000000    -1.31769900
      32      -0.00000000    -0.00000000     0.41589780     0.00000000    -0.00000000
      33      -0.00000000    -0.01948390     0.00000000     0.00000000    -0.00000000
      34      -0.00000000    -0.02018362     0.00000000     0.00000000    -0.00000000
      35      -0.00000000    -0.02297765    -0.00000000     0.00000000    -0.00000000
      36       0.00000000     5.67429508     0.00000000     0.00000000    -0.00000000
      37       0.00000000     8.69375519    -0.00000000     0.00000000     0.00000000
      38       0.00043111     0.00000000    -0.00000000     0.00000000    -0.60662339
      39      -0.33696216     0.00000000     0.00000000     0.00000000    -0.00045435
      40      -0.00000000     0.70782628    -0.00000000     0.00000000     0.00000000
      41       0.00021457    -0.00000000     0.00000000     0.00000000    -0.56874119
      42      -0.16770660    -0.00000000    -0.00000000     0.00000000    -0.00042598
      43       0.00000000    -0.02374538     0.00000000     0.00000000    -0.00000000
      44      -0.00047695    -0.00000000     0.00000000     0.00000000     3.02876899
      45       0.37278484    -0.00000000    -0.00000000     0.00000000     0.00226851
      46       0.00000000    -4.21778766     0.00000000     0.00000000    -0.00000000
      47       0.00158511     0.00000000    -0.00000000     0.00000000     0.89976503
      48      -1.23893042     0.00000000     0.00000000     0.00000000     0.00067391
      49      -0.00000000    -1.16183191    -0.00000000     0.00000000     0.00000000
      50       0.00000000     0.00000000     0.00000000     0.00098321     0.00000000
      51       0.03654462     0.00000000     0.00000000     0.00000000    -0.00000590
      52      -0.00000000    -0.02411385     0.00000000     0.00000000     0.00000000
      53      -0.00004676     0.00000000    -0.00000000     0.00000000    -0.00788245
      54       0.00000000     0.00000000     0.00098321     0.00000000     0.00000000
      55       0.00000000     0.00000000     0.00000000    -0.06689749     0.00000000
      56      -0.10991881    -0.00000000     0.00000000     0.00000000    -0.00000225
      57       0.00000000     0.28461087     0.00000000     0.00000000    -0.00000000
      58       0.00014063    -0.00000000    -0.00000000     0.00000000    -0.00300841
      59      -0.00000000    -0.00000000    -0.06689749     0.00000000    -0.00000000
      60       0.00000000     0.00000000     0.00000000     0.48006316     0.00000000
      61       1.34262965     0.00000000     0.00000000     0.00000000    -0.00087925
      62       0.00000000    -0.00300494     0.00000000     0.00000000    -0.00000000
      63      -0.00171778     0.00000000    -0.00000000     0.00000000    -1.17391770
      64       0.00000000     0.00000000     0.48006316     0.00000000     0.00000000

               Column  36     Column  37     Column  38     Column  39     Column  40
       1       0.00000000     0.00000000     0.00000000     0.49849019     0.25895628
       2      -0.00000000     0.00000000    -0.00000000     2.34628468     1.48158243
       3      -0.00000000     0.00000000    -0.00000000     0.41479393     0.10458897
       4      -0.00000000    -0.00000000    -0.00000000    -5.30889457     4.57761703
       5      -0.00000000    -0.00000000    -0.00000000    -0.75395501     0.72036278
       6       0.00003148     0.48592699    -0.00016463    -0.00000000    -0.00000000
       7      -0.04202449     0.00016463     0.48592699    -0.00000000     0.00000000
       8       0.00000000     0.00000000     0.00000000     0.17733513     1.21223670
       9       0.00041004     0.68516513    -0.00023213     0.00000000     0.00000000
      10      -0.54745739     0.00023213     0.68516513    -0.00000000    -0.00000000
      11      -0.00000000     0.00000000    -0.00000000    -0.90867990     0.49075142
      12       0.00152999     2.10410981    -0.00071286     0.00000000     0.00000000
      13      -2.04274268     0.00071286     2.10410981     0.00000000     0.00000000
      14      -0.00000000    -0.00000000    -0.00000000    -4.32145818     1.70346763
      15       0.00022520    -0.16170690     0.00005479    -0.00000000    -0.00000000
      16      -0.30066756    -0.00005479    -0.16170690    -0.00000000     0.00000000
      17       0.00000000     0.00000000     0.00000000    -0.18046784    -0.27739874
      19       0.01769896    -0.00001145    -0.03380196    -0.00000000    -0.00000000
      20      -0.00000000     0.00000000    -0.00000000    -0.07877425    -0.09763578
      21      -0.00001326    -0.03380196     0.00001145     0.00000000     0.00000000
      24       0.06596398     0.00068454     2.02051017     0.00000000     0.00000000
      25      -0.00000000     0.00000000    -0.00000000    -1.34219777     1.48701366
      26      -0.00004941     2.02051017    -0.00068454    -0.00000000    -0.00000000
      29      -1.31769900     0.00007146     0.21091321     0.00000000     0.00000000
      30       0.00000000    -0.00000000     0.00000000    -1.31089970    -0.21502823
      31       0.00098694     0.21091321    -0.00007146     0.00000000     0.00000000
      33      -0.00000000    -0.00000000    -0.00000000    -0.16402405    -0.00588730
      34       0.00000000    -0.00000000     0.00000000    -0.92194447    -0.18730124
      35       0.00000000    -0.00000000     0.00000000    -0.00481097    -0.02318045
      36       0.00000000    -0.00000000     0.00000000     6.45178228    -4.08358154
      37       0.00000000     0.00000000     0.00000000     1.02886974    -2.85930180
      38       0.00045435    -0.06577131     0.00002228     0.00000000     0.00000000
      39      -0.60662339    -0.00002228    -0.06577131     0.00000000     0.00000000
      40       0.00000000     0.00000000     0.00000000    -0.05190022     0.54324391
      41       0.00042598     0.01803972    -0.00000611    -0.00000000    -0.00000000
      42      -0.56874119     0.00000611     0.01803972    -0.00000000    -0.00000000
      43      -0.00000000    -0.00000000    -0.00000000    -0.88165338     0.33768942
      44      -0.00226851    -2.81383998     0.00095331    -0.00000000    -0.00000000
      45       3.02876899    -0.00095331    -2.81383998    -0.00000000    -0.00000000
      46      -0.00000000    -0.00000000    -0.00000000     1.07724238     1.61197716
      47      -0.00067391    -0.39794535     0.00013482     0.00000000     0.00000000
      48       0.89976503    -0.00013482    -0.39794535     0.00000000     0.00000000
      49       0.00000000     0.00000000     0.00000000     0.55301879     1.09527002
      51      -0.00788245    -0.00000586    -0.01729787     0.00000000     0.00000000
      52      -0.00000000     0.00000000     0.00000000    -0.00558011     0.01711710
      53       0.00000590    -0.01729787     0.00000586     0.00000000     0.00000000
      56      -0.00300841    -0.00000562    -0.01659319    -0.00000000    -0.00000000
      57       0.00000000    -0.00000000    -0.00000000     0.30902031     0.37371125
      58       0.00000225    -0.01659319     0.00000562    -0.00000000    -0.00000000
      61      -1.17391770     0.00062471     1.84391951     0.00000000     0.00000000
      62       0.00000000     0.00000000     0.00000000    -1.81943569    -0.75584042
      63       0.00087925     1.84391951    -0.00062471     0.00000000     0.00000000

               Column  41     Column  42     Column  43     Column  44     Column  45
       1       0.14924530     0.00000000     0.00000000    -0.00000000    -0.00000000
       2       0.62046911     0.00000000     0.00000000     0.00000000     0.00000000
       3       0.26684819    -0.00000000     0.00000000     0.00000000     0.00000000
       4       3.73235939    -0.00000000     0.00000000    -0.00000000     0.00000000
       5       1.17306954    -0.00000000     0.00000000     0.00000000     0.00000000
       6       0.00000000    -0.00000000     0.00000000     0.23540567    -0.00010392
       7       0.00000000     0.00000000     0.00000000     0.00010392     0.23540567
       8       0.05582649     0.00000000     0.00000000    -0.00000000     0.00000000
       9      -0.00000000     0.00000000     0.00000000     0.46726083    -0.00020628
      10      -0.00000000    -0.00000000     0.00000000     0.00020628     0.46726083
      11      -0.29956295    -0.00000000     0.00000000     0.00000000     0.00000000
      12      -0.00000000     0.00000000     0.00000000    -0.53229969     0.00023499
      13      -0.00000000    -0.00000000     0.00000000    -0.00023499    -0.53229969
      14       1.88635884    -0.00000000     0.00000000     0.00000000     0.00000000
      15       0.00000000    -0.00000000     0.00000000    -0.34639395     0.00015292
      16       0.00000000     0.00000000     0.00000000    -0.00015292    -0.34639395
      17       0.27688842     0.00000000     0.00000000    -0.00000000     0.00000000
      18       0.00000000     0.00000000     0.05318976     0.00000000     0.00000000
      19      -0.00000000     0.00000000     0.00000000    -0.00007952    -0.18013089
      20       0.13379134     0.00000000     0.00000000     0.00000000     0.00000000
      21      -0.00000000    -0.00000000     0.00000000    -0.18013089     0.00007952
      22      -0.00000000     0.05318976     0.00000000     0.00000000    -0.00000000
      23       0.00000000     0.00000000    -0.22282075     0.00000000     0.00000000
      24       0.00000000     0.00000000     0.00000000     0.00040250     0.91174401
      25      -0.94708427    -0.00000000     0.00000000     0.00000000     0.00000000
      26       0.00000000    -0.00000000     0.00000000     0.91174401    -0.00040250
      27       0.00000000    -0.22282075     0.00000000    -0.00000000     0.00000000
      28       0.00000000     0.00000000     0.33647296     0.00000000     0.00000000
      29      -0.00000000    -0.00000000     0.00000000    -0.00019568    -0.44325155
      30       0.76873549    -0.00000000     0.00000000    -0.00000000    -0.00000000
      31      -0.00000000     0.00000000     0.00000000    -0.44325155     0.00019568
      32       0.00000000     0.33647296     0.00000000    -0.00000000    -0.00000000
      33       0.68494431    -0.00000000     0.00000000    -0.00000000     0.00000000
      34       2.99711363    -0.00000000     0.00000000    -0.00000000    -0.00000000
      35       0.01414288    -0.00000000     0.00000000    -0.00000000    -0.00000000
      36      -5.03774943     0.00000000     0.00000000    -0.00000000    -0.00000000
      37      -3.17476570     0.00000000     0.00000000    -0.00000000    -0.00000000
      38      -0.00000000     0.00000000     0.00000000    -0.08182408     0.00003612
      39      -0.00000000    -0.00000000     0.00000000    -0.00003612    -0.08182408
      40      -0.31596521     0.00000000     0.00000000     0.00000000    -0.00000000
      41       0.00000000    -0.00000000     0.00000000    -0.08741991     0.00003859
      42       0.00000000     0.00000000     0.00000000    -0.00003859    -0.08741991
      43      -0.29726697     0.00000000     0.00000000     0.00000000     0.00000000
      44       0.00000000    -0.00000000     0.00000000    -0.39359882     0.00017376
      45      -0.00000000     0.00000000     0.00000000    -0.00017376    -0.39359882
      46       2.21927360    -0.00000000     0.00000000     0.00000000     0.00000000
      47      -0.00000000     0.00000000     0.00000000     0.76245869    -0.00033660
      48      -0.00000000    -0.00000000     0.00000000     0.00033660     0.76245869
      49       0.41041552     0.00000000     0.00000000     0.00000000    -0.00000000
      50       0.00000000     0.00000000     0.00001337     0.00000000     0.00000000
      51      -0.00000000    -0.00000000     0.00000000     0.00000251     0.00568746
      52       0.01642600     0.00000000     0.00000000     0.00000000    -0.00000000
      53      -0.00000000     0.00000000     0.00000000     0.00568746    -0.00000251
      54      -0.00000000     0.00001337     0.00000000    -0.00000000     0.00000000
      55       0.00000000     0.00000000     1.29541229     0.00000000     0.00000000
      56       0.00000000    -0.00000000     0.00000000     0.00060949     1.38060874
      57       0.47153435    -0.00000000     0.00000000    -0.00000000     0.00000000
      58       0.00000000     0.00000000     0.00000000     1.38060874    -0.00060949
      59       0.00000000     1.29541229     0.00000000    -0.00000000    -0.00000000
      60       0.00000000     0.00000000    -0.82903595     0.00000000     0.00000000
      61       0.00000000    -0.00000000     0.00000000    -0.00022935    -0.51952967
      62      -1.02656961    -0.00000000     0.00000000    -0.00000000    -0.00000000
      63      -0.00000000     0.00000000     0.00000000    -0.51952967     0.00022935
      64      -0.00000000    -0.82903595     0.00000000     0.00000000     0.00000000

               Column  46     Column  47     Column  48     Column  49     Column  50
       1       0.00000000     0.00000000    -0.52461139     0.43633280     0.00000000
       2      -0.00000000     0.00000000    -3.05093950     1.54964853     0.00000000
       3      -0.00000000     0.00000000    -0.88119345     0.13549655     0.00000000
       4      -0.00000000    -0.00000000   -10.02977462     1.12148031     0.00000000
       5      -0.00000000    -0.00000000    -2.01105695     0.98088661     0.00000000
       6      -0.00026567     3.71010536    -0.00000000    -0.00000000     0.00000000
       7       3.71010536     0.00026567     0.00000000     0.00000000     0.00000000
       8       0.00000000     0.00000000     2.11630382     2.92840220     0.00000000
       9       0.00029089    -4.06231438     0.00000000     0.00000000     0.00000000
      10      -4.06231438    -0.00029089    -0.00000000    -0.00000000     0.00000000
      11      -0.00000000     0.00000000    -5.59413979    -2.02175020     0.00000000
      12       0.00009128    -1.27468754     0.00000000     0.00000000     0.00000000
      13      -1.27468754    -0.00009128     0.00000000     0.00000000     0.00000000
      14      -0.00000000    -0.00000000    -4.86544755     0.67165797     0.00000000
      15       0.00000872    -0.12174633    -0.00000000    -0.00000000     0.00000000
      16      -0.12174633    -0.00000872    -0.00000000     0.00000000     0.00000000
      17       0.00000000     0.00000000    -0.45411120     0.25301748     0.00000000
      18       0.00000000     0.00000000     0.00000000     0.00000000    -1.22404278
      19      -0.06162460    -0.00000441    -0.00000000    -0.00000000     0.00000000
      20      -0.00000000     0.00000000    -0.08459374    -0.12611707     0.00000000
      21       0.00000441    -0.06162460    -0.00000000     0.00000000     0.00000000
      23       0.00000000     0.00000000     0.00000000     0.00000000     0.83252974
      24      -0.71752163    -0.00005138     0.00000000     0.00000000     0.00000000
      25      -0.00000000     0.00000000    -1.44053747    -0.19413978     0.00000000
      26       0.00005138    -0.71752163    -0.00000000    -0.00000000     0.00000000
      28       0.00000000     0.00000000     0.00000000     0.00000000    -0.23409561
      29      -0.10756400    -0.00000770     0.00000000     0.00000000     0.00000000
      30      -0.00000000    -0.00000000    -0.55859990     0.40888986     0.00000000
      31       0.00000770    -0.10756400     0.00000000     0.00000000     0.00000000
      33      -0.00000000    -0.00000000    -0.19463318     0.35070574     0.00000000
      34       0.00000000    -0.00000000    -0.90094654     1.41419121     0.00000000
      35       0.00000000    -0.00000000    -0.12919639     0.04435886     0.00000000
      36       0.00000000    -0.00000000    10.61523951    -3.20067721     0.00000000
      37       0.00000000     0.00000000     6.83195605    -1.90431085     0.00000000
      38      -0.00000136     0.01897030     0.00000000     0.00000000     0.00000000
      39       0.01897030     0.00000136     0.00000000     0.00000000     0.00000000
      40       0.00000000     0.00000000    -0.26008056     0.67986023     0.00000000
      41      -0.00000698     0.09750419    -0.00000000    -0.00000000     0.00000000
      42       0.09750419     0.00000698    -0.00000000    -0.00000000     0.00000000
      43      -0.00000000    -0.00000000    -0.72463368    -0.73040309     0.00000000
      44      -0.00008438     1.17834615    -0.00000000    -0.00000000     0.00000000
      45       1.17834615     0.00008438    -0.00000000    -0.00000000     0.00000000
      46      -0.00000000    -0.00000000    -5.19563050     1.39532840     0.00000000
      47      -0.00000320     0.04462238     0.00000000     0.00000000     0.00000000
      48       0.04462238     0.00000320     0.00000000     0.00000000     0.00000000
      49      -0.00000000     0.00000000    -1.06072431    -0.18833005     0.00000000
      50       0.00000000     0.00000000     0.00000000     0.00000000     0.00414886
      51       0.02062916     0.00000148     0.00000000     0.00000000     0.00000000
      52      -0.00000000     0.00000000    -0.01893284     0.01026018     0.00000000
      53      -0.00000148     0.02062916     0.00000000     0.00000000     0.00000000
      55       0.00000000     0.00000000     0.00000000     0.00000000     0.08019798
      56      -0.18169366    -0.00001301    -0.00000000    -0.00000000     0.00000000
      57       0.00000000    -0.00000000     1.03140013    -1.13968714     0.00000000
      58       0.00001301    -0.18169366     0.00000000    -0.00000000     0.00000000
      60       0.00000000     0.00000000     0.00000000     0.00000000    -0.13254802
      61      -0.81304538    -0.00005822     0.00000000     0.00000000     0.00000000
      62       0.00000000    -0.00000000     0.56546060     0.12265877     0.00000000
      63       0.00005822    -0.81304538     0.00000000     0.00000000     0.00000000

               Column  51     Column  52     Column  53     Column  54     Column  55
       1       0.00000000     0.00000000     0.00000000    -0.14083817    -0.00000000
       2       0.00000000     0.00000000    -0.00000000     0.01954073    -0.00000000
       3       0.00000000     0.00000000    -0.00000000     0.50916270    -0.00000000
       4      -0.00000000    -0.00000000    -0.00000000    -0.95705074     0.00000000
       5      -0.00000000    -0.00000000    -0.00000000    -0.09854501     0.00000000
       6      -0.00000000     0.39977436    -0.00002597    -0.00000000     0.18125399
       7       0.00000000     0.00002597     0.39977436     0.00000000     0.00001036
       8       0.00000000     0.00000000     0.00000000     0.74641990    -0.00000000
       9       0.00000000    -0.48281310     0.00003137     0.00000000    -0.13508585
      10      -0.00000000    -0.00003137    -0.48281310    -0.00000000    -0.00000772
      11       0.00000000     0.00000000    -0.00000000    -0.13944198    -0.00000000
      12       0.00000000    -0.64888978     0.00004216     0.00000000    -1.06604194
      13      -0.00000000    -0.00004216    -0.64888978     0.00000000    -0.00006095
      14      -0.00000000    -0.00000000    -0.00000000    -0.72551142     0.00000000
      15      -0.00000000     0.07159549    -0.00000465    -0.00000000    -0.01464577
      16       0.00000000     0.00000465     0.07159549     0.00000000    -0.00000084
      17       0.00000000     0.00000000     0.00000000     0.20818498    -0.00000000
[...]
     103       0.10158965     0.37050633     0.14156676    -0.81973664
     104      -0.13643455    -0.49813011     0.07263638    -0.62160126
     105      -0.66831827     0.10630248    -0.02367221     0.01497408
     106      -0.28098484    -0.41788421    -0.06221459     1.58934413
     107       0.13341738    -0.59981352    -0.26690468     0.37605237
     108      -0.30901910    -0.25854356    -0.72861651     1.86380071

               Column  65     Column  66     Column  67     Column  68
      65      31.79446169
      66      -1.43915222    13.99464021
      67       1.32976109    -0.37230888    17.26429420
      68       0.51148347    -0.06293655    -3.62857195    14.95821656
      69       1.82699681    -0.61003652    -1.18132221     4.25632825
      70       1.17498593     2.18227799     0.63883658    -0.34670600
      71       0.76701560     0.92052932    -0.81937606     2.32219687
      72       1.37431569    -1.05343402    -0.42426600     2.65179577
      73       0.03940522     2.63895006    -1.07757456     3.54105603
      74      -0.76780516    -1.73447837    -3.26857575     2.89139236
      75       0.65656699     3.96003571    -0.82977862     1.22175264
      76       1.57482509     3.93405864    -2.02243255     5.66626038
      77       0.29351954     0.57778251    -0.09509051    -0.18937081
      78      -0.31754015     0.90507107    -1.68388060     2.71753897
      79       1.13693341     2.37213182     3.06993892     0.69016145
      80      -0.86765628    -0.16726433    -0.98534003    -0.19821965
      81      -2.02128061    -2.95378208    -0.40356864     0.41778855
      82       2.84250559     0.34105114    -0.26766921     0.21839029
      83       1.40697950     4.55451247    -3.02046974     5.31154986
      84       1.97058885    -1.23242216    -3.00607490    -1.90871602
      85      -0.54370237     3.59895386     0.56685475     0.82431635
      86       3.62288894     0.94624969     0.48910453     3.16048908
      87      -0.60628356    -0.07691511     0.10247379    -0.32541576
      88       0.00827352     1.61157878    -0.21014037     2.81965847
      89       1.26610523    -3.38915355     4.74723725    -4.03330165
      90      -0.00789932     4.76986176     0.40985072     1.17921065
      91      -2.52741424     1.17881386    -0.00305554    -0.20962799
      92      -0.24564065    -0.88732713    -0.02924287     1.62628971
      93      -0.85833232    -2.78389522     1.26370935    -0.32149017
      94       2.57728308     0.78625166    -0.73727597     1.83086178
      95       0.66754040     4.75075871     0.26965176     0.81526139
      96      -0.09768443    -0.03190316    -1.82966989     1.19026075
      97      -0.50484390     0.23733586     0.07379526    -1.55347020
      98       0.90718720     0.68745551     0.46237957     2.65934638
      99       0.47221235    -0.31922928     0.72325928     0.43526307
     100       1.09559181     0.50621148     0.91595077    -0.97471590
     101      -0.43454794     2.44294873    -0.68304793    -4.05035400
     102       2.75133444     0.24406365     0.08598501     0.31909969
     103       0.13730488     0.77844681    -0.60897408    -0.47633769
     104       0.29206075    -1.23992243     1.12832193     1.90095512
     105      -0.07552551    -0.61937616     0.66642563     2.37501721
     106      -2.15380325     2.53535975     0.14391831    -1.88743628
     107      -0.18948327     1.39887781    -1.05868024     1.21322107
     108      -2.17504827    -1.01754877    -1.35435079     0.78489479

               Column  69     Column  70     Column  71     Column  72
      69      31.91795377
      70      -0.05430648    16.40489817
      71       3.66391192    -1.02476385     8.29179812
      72       1.74128651    -1.76851944     2.19960524    13.28846279
      73      -2.64823585     0.60087845     0.80652283     0.52235321
      74       1.64144652     1.68881858    -0.68879996    -2.82718784
      75       1.63380380     1.13960929     1.43265441     0.94769379
      76       5.17690864     1.17748911     2.39198283     2.03866514
      77       2.67175216    -0.03299448     0.71434417     1.88578510
      78       0.82983026     0.38618920    -0.47354386    -0.50606266
      79       2.17831754     0.22746356     2.92047684     1.28253367
      80      -0.53675002    -1.88944833    -1.03067984    -1.80090368
      81       0.34494454    -2.34686546    -0.80889080     2.32503021
      82      -3.34967897     0.88726314    -0.16157892     0.73098971
      83      11.39050929     2.89743440     2.05130839     1.98197694
      84       9.01046275     0.23874935     1.97555639     0.26101042
      85       6.76679221    -0.40691951     2.31004622     2.70979209
      86       3.47421316     0.36589289     1.94720402     3.33706155
      87      -0.13100274     0.14413338    -0.17833339    -0.29820758
      88       1.29804955     1.03074010    -0.27847399     1.11619279
      89       1.13770456    -0.96274410    -1.25026144    -0.01064634
      90      -0.20391613    -1.79477928     0.49315729    -0.58807871
      91      -1.88686204    -1.34649137    -1.41958265    -1.10287400
      92       0.45737570     2.98743801    -1.46076657     0.86483908
      93      -5.00094604    -0.22192768     0.60935026     3.30082056
      94      -0.70852135     2.72701734     0.58358019     0.67888136
      95      -2.34381661     2.45093208     0.15636459     0.73764714
      96       3.13398835    -1.59868082     1.77784969     2.08594738
      97      -3.44849671     0.08745558    -0.80269511     1.07507191
      98       3.83426976    -0.36304267     2.68085986     2.87889338
      99      -0.70275701    -0.32209365     0.34400067     0.82403869
     100       1.39272015     0.45844452    -1.63940355     2.03776892
     101      -1.12445020    -0.09140836    -1.10976425    -2.95417252
     102      -4.01864967    -0.10218984    -0.39582045    -2.43594801
     103       2.56233781     1.57111090     0.37981533     0.07043536
     104      -1.56811590    -1.85649499     0.73449623     0.48195947
     105       2.74149454    -0.16029382     2.17228026    -0.26392226
     106      -5.50356888     2.71310086     1.48241387    -0.61868357
     107       1.91333126     0.65478324     1.32689067     2.30190980
     108      -0.17293034    -2.93418640    -1.17749181    -1.63431419

               Column  73     Column  74     Column  75     Column  76
      73      16.16882232
      74       1.58719595    23.17530262
      75      -1.00180482     2.22999020    16.19388419
      76       3.23034733     1.43029820     0.09128236    18.38189799
      77       0.61399968    -0.90719169    -0.18625440     2.31809717
      78       1.05897312     0.75728716     0.70576985     4.06723057
      79      -1.43204794    -1.83360232     0.45033160    -0.04215734
      80      -0.52224823     1.38784751     0.00812747    -0.47567671
      81       2.75687741    -3.63586872    -0.92922642    -0.12659738
      82       1.53153175    -1.08812647     1.80210780    -0.56833044
      83       2.18486776     4.56309331     3.38289270     4.40349982
      84      -2.93878860     2.06064604     1.30483761    -2.28330170
      85       0.87760741    -4.98991352     0.68023691     2.72951484
      86       0.84437541    -0.14074486     2.16054821     3.08423934
      87      -0.11259042     0.80346818     0.06065938    -0.07294453
      88      -3.76349666     0.58597316     2.98785562     0.50831997
      89      -2.92417432    -3.85993724     0.22842727    -5.73287797
      90       1.60440220     2.41287776     1.79784427     1.67597743
      91       3.52255082    -0.92465564    -0.58574161    -1.39876383
      92       0.08744377    -1.59678051     2.39479746    -0.10746179
      93       0.85017875    -2.06734571     1.63767636    -1.51414771
      94       1.72746051    -2.41694906     0.63924162    -1.42259395
      95       2.69959851    -1.98620553     2.11889309    -0.86511106
      96      -0.32936263    -4.14730359     1.93198931     2.91675938
      97       1.96797046    -0.60174980    -1.37297457    -0.14609313
      98      -1.17837242     3.23677204     1.11279287     7.43865308
      99       0.51650011     0.68166887     0.33498345     1.18712820
     100       1.94137510    -1.25593705     1.67217317    -1.89814527
     101       1.72106001     0.94039023    -3.57400531    -2.50024377
     102       0.52776437    -1.02235817    -2.69266567     0.20598073
     103      -0.35942974     0.78080361     0.57383543    -0.41498957
     104      -0.11549331    -0.41712212     1.70137380     1.37593422
     105       0.09416469    -1.24788934    -1.00936510     0.02360831
     106       1.95387795    -1.17534457     0.83314113     2.05449821
     107      -3.87436783    -5.62095996    -0.90309961    -1.04569692
     108      -4.92267314     0.58366008    -2.59224943    -0.71579482

               Column  77     Column  78     Column  79     Column  80
      77      37.87880491
      78       0.26038963    12.76695702
      79       0.59957698    -4.36409730    19.61033220
      80      -0.61041512    -0.64449115     0.13175367    22.32450368
      81       0.51115230     0.32480870    -3.30847385     0.50429073
      82      -2.37525943     0.59285648    -2.17064935    -4.82903480
      83       3.27662645     0.53118887     1.55302644    -1.99818663
      84       0.78951931    -1.90532014     4.57062138    -1.03214380
      85       1.11200703     0.32293796     1.00631853    -2.67154589
      86       3.46808416     1.27202492     3.55530239     4.13007445
      87       0.50945231    -0.13256948     0.13619460    -0.07470871
      88       0.52467309     1.62277216     1.08468628     0.87362525
      89      -0.97537188    -3.99310361     2.02772659    -0.31453501
      90      -0.80397452     1.21676245    -0.29579983     1.09436771
      91      -0.74131546    -2.24351701    -5.70977882     2.98040422
      92      -1.10685198    -0.15544710     1.79368597    -0.64095929
      93      -0.19706427    -0.08795123     1.24202032    -0.00928796
      94       1.65776981    -0.31014009     0.14978357    -3.66663133
      95      -0.07337852     0.57049915     0.26290490    -1.18901510
      96       1.29791054     5.33656493    -7.74284421    -1.01639672
      97       2.52383816     0.02175438    -0.30234047    -1.66439906
      98       2.69674465    -2.07761712     9.06314593     0.85611816
      99      -4.78587042     0.10656459     1.33285428     0.88868616
     100       1.23096230     2.77988763    -0.10440400    -0.97295634
     101       0.07564871    -3.26986536    -0.60270170     0.45789281
     102       1.27110619    -2.51182398     0.43804964    -1.21124266
     103       0.46227444    -0.25368840     0.77867119    -0.22818349
     104      -0.81345527     0.56878965    -1.34886726     1.57916111
     105      -0.96264333     1.83672885    -0.58251740    -2.26371369
     106      -1.81250652    -0.38173397     2.17694391     0.99682796
     107       0.31827339    -0.19132697     0.46140646    -1.83853654
     108      -2.79589158    -2.87090777     1.45475054     3.20136139

               Column  81     Column  82     Column  83     Column  84
      81      20.68878311
      82       0.93963771    24.11596371
      83      -2.81021636     4.37214226    45.87583448
      84      -0.07063933     0.32394950     5.47718284    17.78482447
      85       4.22596099     1.59302488     4.57757436     1.76471747
      86      -3.02962208   -12.56397906     0.93231653    -1.35448454
      87       0.01387146    -0.27270708     0.35184922     0.14132169
      88      -0.36646534     0.35725384     4.42520931    -0.17133652
      89       1.00889454     0.14389827    -3.30844818     2.71243640
      90      -2.04249856     0.50767074     0.15190808    -2.62014957
      91       4.35661953    -0.56003744    -1.56306518     2.36304162
      92       0.11869245     0.81627954     0.88273053     0.60817909
      93      -1.68801128    -1.43498159    -4.15874998    -2.27557381
      94      -3.19340768     3.98231631     7.78970889     0.69220089
      95      -1.57312763     2.55124436     3.26656552    -0.73217547
      96       2.34676203     1.49268972     0.35343250    -3.02971520
      97       2.35909514    -4.06464775    -2.27962413    -2.49866437
      98      -4.10507392     0.48956551    -5.21526578     1.79607113
      99      -1.26696961     0.79679962     0.22072562    -0.68147413
     100       2.74682051     2.11923439     2.55094463     1.54542312
     101      -1.70924490    -0.35956840    -0.75073176     4.15781046
     102      -5.07668807    -0.26478894     3.39923024     1.18567850
     103      -0.65218259    -0.83479316     0.80732960     2.08618781
     104       0.14817668     0.94608961     3.09474498    -2.24160210
     105      -2.65783782     0.56389124     0.66803458     0.58566704
     106      -1.30530364    -1.58024822    -1.93625458    -0.98573889
     107      -4.02998110    -0.39573496     0.05095487     2.52895445
     108      -0.95055468    -3.73231984    -3.40306409     1.90252504

               Column  85     Column  86     Column  87     Column  88
      85      20.76944893
      86      -1.44033413    39.45118059
      87      -0.38803785    -0.13414711    79.62326720
      88       0.33681498     1.62808008     0.24141742    15.45039075
      89      -1.52882819    -1.37726941     0.50304134     3.42493217
      90      -2.37651412    -0.27909359     0.16453753     1.80116692
      91      -2.47780569    -4.65003013    -0.56960363     0.49257217
      92       0.39787914    -1.58087730     0.18082953     2.33760889
      93      -2.66456162     1.00792457    -0.26698459    -2.26921326
      94       0.87621851    -0.61561437    -0.34502325    -1.90233853
      95       3.75533892     1.71398508    -0.27905342     3.34385035
      96       1.51959956    -1.57998602    -0.00883513     2.98689564
      97      -4.40639941    -2.86933764     0.86322917     0.69651727
      98      -2.45925014     2.85006136    -0.67996607     2.44010269
      99      -1.73894988     0.78308313     0.59878597     0.53734427
     100       1.17479801    -0.26146715     0.05965780    -1.39663525
     101       0.03831824    -1.31406695     0.09936748    -2.85345324
     102       9.66422950    -9.81209302    -0.06156577    -3.45492901
     103       0.50321321    -0.25295962     0.12595210     0.03829257
     104      -0.74548591    -0.14068881     0.59926033    -0.02621743
     105       1.98571533    -0.88246693    -0.00773787    -1.53027308
     106      -1.28903258     2.53812489    -0.14307020    -1.74812203
     107      -1.84955367    -2.15992405    -0.30461128     0.86953202
     108      -3.70772304    -0.33820712    -0.36245129     0.55891802

               Column  89     Column  90     Column  91     Column  92
      89      23.73376876
      90      -1.22485619    16.61476142
      91      -3.16135552    -0.05437101    28.43609807
      92       3.68510230    -1.04263288    -1.07285529    14.81963110
      93      -0.51995665    -2.03363564    -0.60138590     0.19388851
      94      -3.63785983    -1.89095873    -1.71755731    -0.64062774
      95      -0.08170372     2.69309270     1.75369688     0.84167673
      96       1.77248489     3.16102675    -0.60239012     0.62710722
      97       0.75901227    -1.12373639     0.22002647    -0.92103581
      98      -0.54395672     2.80873637    -2.76432744    -0.18866247
      99       1.03903776     1.34076000    -2.30536738    -0.38923493
     100       1.84959863    -0.35231321    -0.73844365     2.81385648
     101      -1.08495557    -0.95226544     2.53139149    -3.46419933
     102      -1.43272544     2.34108268     2.38749435     4.39245258
     103      -0.31609711    -0.89252707     0.89163257     0.56722425
     104      -0.91855484     1.17554563    -1.02170730    -1.45711890
     105       3.51514638     0.39392638    -7.38568414     1.17652339
     106      -1.02328331     1.56175077    -0.11035775     2.18325348
     107       0.75775185    -1.42709150     3.05297199     0.00427597
     108       1.14536575     2.93779165     6.82203384    -2.60279957

               Column  93     Column  94     Column  95     Column  96
      93      20.64413957
      94       2.49441425    29.43709012
      95      -1.79081272     3.56449564    11.09648559
      96      -1.79025953    -5.11034069    -1.36075831    25.19206384
      97       1.37864208    -0.11695755    -1.30486883    -0.12130819
      98       1.86444533    -4.46522001    -1.89090809    -2.74368629
      99      -0.31326312    -0.73515739    -0.03105880     0.32677189
     100      -3.66586823    -0.44317505     1.04927010     2.99123866
     101      -5.54454047     1.36309674     0.76663998    -4.44704408
     102       2.64412618    -2.94418026     2.21313932     0.02473463
     103      -0.25957092    -1.42574490     0.01337464    -0.92649540
     104      -0.35101771    -1.40311341    -0.21722108     0.94813010
     105      -0.68381988     2.32446109    -0.00792523     2.14761638
     106       0.44547327     0.07010923     1.66710068    -0.58198029
     107      -0.33283718     1.30281298     0.09876888     1.13274091
     108      -2.24889496    -2.72634185    -2.24128058    -0.13534110

               Column  97     Column  98     Column  99     Column 100
      97      32.25619475
      98       6.88501189    58.03388751
      99      -4.16869082     2.10209576    36.60592493
     100      -0.20253385    -3.08762600     0.42893008    16.71311807
     101       2.04089423    -3.02019913    -0.66513083    -5.14226305
     102       2.43581099     3.13879220     1.57216912     0.02217084
     103      -1.21476803    -1.12820747    -0.07361744     0.44510481
     104       0.82552279     2.71858195     0.67171883    -1.67242634
     105      -1.38963984    -4.22072515    -0.51844853    -1.14272145
     106       0.91559054     0.53740125     0.05541411    -1.34343379
     107       1.06180616    -1.79099465    -1.08380335     1.14663131
     108      -2.71478095     2.89962449    -0.54134052    -3.00452542

               Column 101     Column 102     Column 103     Column 104
     101      22.51833236
     102      -5.02695001    61.30439346
     103       0.73681419    -0.46988512    29.19395567
     104      -0.65109404    -1.11278863     1.18663038    29.00175927
     105       2.43078972     0.69231359     0.30838699    -0.14010831
     106      -0.06726742    -1.13733349    -0.92124888     0.34197734
     107       0.64975347    -1.50316737     2.12138858    -2.09113855
     108       1.82549485     3.81064463    -1.01993320     0.69193336

               Column 105     Column 106     Column 107     Column 108
     105      14.60278059
     106      -0.56796919    14.91190217
     107       4.42602657    -3.77505742    19.06235683
     108      -3.29766167     1.17000438     0.33500643    21.72285204
    ==== End of matrix output ====


   Nuclear dipole moment
   ---------------------


               Column   1     Column   2     Column   3
       1       0.00000000     0.00000000    17.05600000
    ==== End of matrix output ====
 >>>  Time used in STXCTL     is   0.40 seconds



 >>>> Total CPU  time used in SIRIUS :      0.45 seconds
 >>>> Total wall time used in SIRIUS :      0.45 seconds

 
     Date and time (Linux)  : Sun Sep  8 20:38:32 2013
     Host name              : lpqlx131.ups-tlse.fr                    


                     .---------------------------------------.
                     | End of Wave Function Section (SIRIUS) |
                     `---------------------------------------'

 >>>> Total CPU  time used in DALTON:   1.50 seconds
 >>>> Total wall time used in DALTON:   1.51 seconds

 
     Date and time (Linux)  : Sun Sep  8 20:38:32 2013
     Host name              : lpqlx131.ups-tlse.fr                    
