

     ************************************************************************
     *************** Dalton - An Electronic Structure Program ***************
     ************************************************************************

    This is output from DALTON (Release Dalton2013 patch 0)
   ----------------------------------------------------------------------------
    NOTE:
     
    Dalton is an experimental code for the evaluation of molecular
    properties using (MC)SCF, DFT, CI, and CC wave functions.
    The authors accept no responsibility for the performance of
    the code or for the correctness of the results.
     
    The code (in whole or part) is provided under a licence and
    is not to be reproduced for further distribution without
    the written permission of the authors or their representatives.
     
    See the home page "http://daltonprogram.org" for further information.
     
    If results obtained with this code are published,
    the appropriate citations would be both of:
     
       K. Aidas, C. Angeli, K. L. Bak, V. Bakken, R. Bast,
       L. Boman, O. Christiansen, R. Cimiraglia, S. Coriani,
       P. Dahle, E. K. Dalskov, U. Ekstroem, T. Enevoldsen,
       J. J. Eriksen, P. Ettenhuber, B. Fernandez, L. Ferrighi,
       H. Fliegl, L. Frediani, K. Hald, A. Halkier, C. Haettig,
       H. Heiberg, T. Helgaker, A. C. Hennum, H. Hettema,
       E. Hjertenaes, S. Hoest, I.-M. Hoeyvik, M. F. Iozzi,
       B. Jansik, H. J. Aa. Jensen, D. Jonsson, P. Joergensen,
       J. Kauczor, S. Kirpekar, T. Kjaergaard, W. Klopper,
       S. Knecht, R. Kobayashi, H. Koch, J. Kongsted, A. Krapp,
       K. Kristensen, A. Ligabue, O. B. Lutnaes, J. I. Melo,
       K. V. Mikkelsen, R. H. Myhre, C. Neiss, C. B. Nielsen,
       P. Norman, J. Olsen, J. M. H. Olsen, A. Osted,
       M. J. Packer, F. Pawlowski, T. B. Pedersen, P. F. Provasi,
       S. Reine, Z. Rinkevicius, T. A. Ruden, K. Ruud, V. Rybkin,
       P. Salek, C. C. M. Samson, A. Sanchez de Meras, T. Saue,
       S. P. A. Sauer, B. Schimmelpfennig, K. Sneskov,
       A. H. Steindal, K. O. Sylvester-Hvid, P. R. Taylor,
       A. M. Teale, E. I. Tellgren, D. P. Tew, A. J. Thorvaldsen,
       L. Thoegersen, O. Vahtras, M. A. Watson, D. J. D. Wilson,
       M. Ziolkowski and H. Agren.
       The Dalton quantum chemistry program system.
       WIREs Comput. Mol. Sci. 2013. doi: 10.1002/wcms.1172
    
    and
    
       Dalton, a Molecular Electronic Structure Program,
       Release DALTON2013.0 (2013), see http://daltonprogram.org
   ----------------------------------------------------------------------------

    Authors in alphabetical order (major contribution(s) in parenthesis):

  Kestutis Aidas,           Vilnius University,           Lithuania   (QM/MM)
  Celestino Angeli,         University of Ferrara,        Italy       (NEVPT2)
  Keld L. Bak,              UNI-C,                        Denmark     (AOSOPPA, non-adiabatic coupling, magnetic properties)
  Vebjoern Bakken,          University of Oslo,           Norway      (DALTON; geometry optimizer, symmetry detection)
  Radovan Bast,             KTH Stockholm                 Sweden      (DALTON installation and execution frameworks)
  Linus Boman,              NTNU,                         Norway      (Cholesky decomposition and subsystems)
  Ove Christiansen,         Aarhus University,            Denmark     (CC module)
  Renzo Cimiraglia,         University of Ferrara,        Italy       (NEVPT2)
  Sonia Coriani,            University of Trieste,        Italy       (CC module, MCD in RESPONS)
  Paal Dahle,               University of Oslo,           Norway      (Parallelization)
  Erik K. Dalskov,          UNI-C,                        Denmark     (SOPPA)
  Thomas Enevoldsen,        Univ. of Southern Denmark,    Denmark     (SOPPA)
  Janus J. Eriksen,         Aarhus University,            Denmark     (PE-MP2/SOPPA, TDA)
  Berta Fernandez,          U. of Santiago de Compostela, Spain       (doublet spin, ESR in RESPONS)
  Lara Ferrighi,            Aarhus University,            Denmark     (PCM Cubic response)
  Heike Fliegl,             University of Oslo,           Norway      (CCSD(R12))
  Luca Frediani,            UiT The Arctic U. of Norway,  Norway      (PCM)
  Bin Gao,                  UiT The Arctic U. of Norway,  Norway      (Gen1Int library)
  Christof Haettig,         Ruhr-University Bochum,       Germany     (CC module)
  Kasper Hald,              Aarhus University,            Denmark     (CC module)
  Asger Halkier,            Aarhus University,            Denmark     (CC module)
  Hanne Heiberg,            University of Oslo,           Norway      (geometry analysis, selected one-electron integrals)
  Trygve Helgaker,          University of Oslo,           Norway      (DALTON; ABACUS, ERI, DFT modules, London, and much more)
  Alf Christian Hennum,     University of Oslo,           Norway      (Parity violation)
  Hinne Hettema,            University of Auckland,       New Zealand (quadratic response in RESPONS; SIRIUS supersymmetry)
  Eirik Hjertenaes,         NTNU,                         Norway      (Cholesky decomposition)
  Maria Francesca Iozzi,    University of Oslo,           Norway      (RPA)
  Brano Jansik              Technical Univ. of Ostrava    Czech Rep.  (DFT cubic response)
  Hans Joergen Aa. Jensen,  Univ. of Southern Denmark,    Denmark     (DALTON; SIRIUS, RESPONS, ABACUS modules, London, and much more)
  Dan Jonsson,              UiT The Arctic U. of Norway,  Norway      (cubic response in RESPONS module)
  Poul Joergensen,          Aarhus University,            Denmark     (RESPONS, ABACUS, and CC modules)
  Joanna Kauczor,           Linkoeping University,        Sweden      (Complex polarization propagator (CPP) module)
  Sheela Kirpekar,          Univ. of Southern Denmark,    Denmark     (Mass-velocity & Darwin integrals)
  Wim Klopper,              KIT Karlsruhe,                Germany     (R12 code in CC, SIRIUS, and ABACUS modules)
  Stefan Knecht,            ETH Zurich,                   Switzerland (Parallel CI and MCSCF)
  Rika Kobayashi,           Australian National Univ.,    Australia   (DIIS in CC, London in MCSCF)
  Henrik Koch,              NTNU,                         Norway      (CC module, Cholesky decomposition)
  Jacob Kongsted,           Univ. of Southern Denmark,    Denmark     (Polarizable embedding, QM/MM)
  Andrea Ligabue,           University of Modena,         Italy       (CTOCD, AOSOPPA)
  Ola B. Lutnaes,           University of Oslo,           Norway      (DFT Hessian)
  Juan I. Melo,             University of Buenos Aires,   Argentina   (LRESC, Relativistic Effects on NMR Shieldings)
  Kurt V. Mikkelsen,        University of Copenhagen,     Denmark     (MC-SCRF and QM/MM)
  Rolf H. Myhre,            NTNU,                         Norway      (Cholesky, subsystems and ECC2)
  Christian Neiss,          Univ. Erlangen-Nuernberg,     Germany     (CCSD(R12))
  Christian B. Nielsen,     University of Copenhagen,     Denmark     (QM/MM)
  Patrick Norman,           Linkoeping University,        Sweden      (Cubic response and complex response in RESPONS)
  Jeppe Olsen,              Aarhus University,            Denmark     (SIRIUS CI/density modules)
  Jogvan Magnus H. Olsen,   Univ. of Southern Denmark,    Denmark     (Polarizable embedding, PE library, QM/MM)
  Anders Osted,             Copenhagen University,        Denmark     (QM/MM)
  Martin J. Packer,         University of Sheffield,      UK          (SOPPA)
  Filip Pawlowski,          Kazimierz Wielki University   Poland      (CC3)
  Thomas B. Pedersen,       University of Oslo,           Norway      (Cholesky decomposition)
  Patricio F. Provasi,      University of Northeastern,   Argentina   (Analysis of coupling constants in localized orbitals)
  Zilvinas Rinkevicius,     KTH Stockholm,                Sweden      (open-shell DFT, ESR)
  Elias Rudberg,            KTH Stockholm,                Sweden      (DFT grid and basis info)
  Torgeir A. Ruden,         University of Oslo,           Norway      (Numerical derivatives in ABACUS)
  Kenneth Ruud,             UiT The Arctic U. of Norway,  Norway      (DALTON; ABACUS magnetic properties and  much more)
  Pawel Salek,              KTH Stockholm,                Sweden      (DALTON; DFT code)
  Claire C. M. Samson       University of Karlsruhe       Germany     (Boys localization, r12 integrals in ERI)
  Alfredo Sanchez de Meras, University of Valencia,       Spain       (CC module, Cholesky decomposition)
  Trond Saue,               Paul Sabatier University,     France      (direct Fock matrix construction)
  Stephan P. A. Sauer,      University of Copenhagen,     Denmark     (SOPPA(CCSD), SOPPA prop., AOSOPPA, vibrational g-factors)
  Bernd Schimmelpfennig,    Forschungszentrum Karlsruhe,  Germany     (AMFI module)
  Kristian Sneskov,         Aarhus University,            Denmark     (QM/MM, PE-CC)
  Arnfinn H. Steindal,      UiT The Arctic U. of Norway,  Norway      (parallel QM/MM)
  K. O. Sylvester-Hvid,     University of Copenhagen,     Denmark     (MC-SCRF)
  Peter R. Taylor,          VLSCI/Univ. of Melbourne,     Australia   (Symmetry handling ABACUS, integral transformation)
  Andrew M. Teale,          University of Nottingham,     England     (DFT-AC, DFT-D)
  David P. Tew,             University of Bristol,        England     (CCSD(R12))
  Olav Vahtras,             KTH Stockholm,                Sweden      (triplet response, spin-orbit, ESR, TDDFT, open-shell DFT)
  David J. Wilson,          La Trobe University,          Australia   (DFT Hessian and DFT magnetizabilities)
  Hans Agren,               KTH Stockholm,                Sweden      (SIRIUS module, RESPONS, MC-SCRF solvation model)
 --------------------------------------------------------------------------------

     Date and time (Linux)  : Sun Sep  8 20:53:01 2013
     Host name              : lpqlx131.ups-tlse.fr                    

 * Work memory size             :    64000000 =  488.28 megabytes.

 * Directories for basis set searches:
   1) /home/bast/DALTON-2013.0-Source/build/test_dft_b3lyp_nosym
   2) /home/bast/DALTON-2013.0-Source/build/basis


Compilation information
-----------------------

 Who compiled             | bast
 Host                     | lpqlx131.ups-tlse.fr
 System                   | Linux-3.8.5-201.fc18.x86_64
 CMake generator          | Unix Makefiles
 Processor                | x86_64
 64-bit integers          | OFF
 MPI                      | OFF
 Fortran compiler         | /usr/bin/gfortran
 Fortran compiler version | GNU Fortran (GCC) 4.7.2 20121109 (Red Hat 4.7.2-8)
 C compiler               | /usr/bin/gcc
 C compiler version       | gcc (GCC) 4.7.2 20121109 (Red Hat 4.7.2-8)
 C++ compiler             | /usr/bin/g++
 C++ compiler version     | g++ (GCC) 4.7.2 20121109 (Red Hat 4.7.2-8)
 Static linking           | OFF
 Last Git revision        | f34203295a86316e27f9e7b44f9b6769c4a046c0
 Configuration time       | 2013-09-08 20:31:27.952056


   Content of the .dal input file
 ----------------------------------

**DALTON INPUT                                    
.RUN WAVE                                         
**WAVE FUNCTIONS                                  
.DFT                                              
B3LYP                                             
**END OF DALTON INPUT                             
                                                  


   Content of the .mol file
 ----------------------------

INTGRL                                                                         
H20                                                                            
Test including f-functions                                                     
    2    0                                                                     
        8.    1    4    1    1    1    1                                       
O     0.0  0.0000000000          0.0                                           
    4    0                                                                     
87.0                                                                           
18.34                                                                          
3.23                                                                           
1.0                                                                            
    2    0                                                                     
3.67                                                                           
1.0                                                                            
    1    0                                                                     
1.0                                                                            
    1    0                                                                     
1.0                                                                            
        1.    2    2    1    1                                                 
H1    1.430    0.0  1.1                                                        
H2   -1.430    0.0  1.1                                                        
    2    0                                                                     
4.2321                                                                         
1.22                                                                           
    1    0                                                                     
1.0                                                                            
                                                                               


       *******************************************************************
       *********** Output from DALTON general input processing ***********
       *******************************************************************

 --------------------------------------------------------------------------------
   Overall default print level:    0
   Print level for DALTON.STAT:    1

    HERMIT 1- and 2-electron integral sections will be executed
    "Old" integral transformation used (limited to max 255 basis functions)
    Wave function sections will be executed (SIRIUS module)
 --------------------------------------------------------------------------------


   ****************************************************************************
   *************** Output of molecule and basis set information ***************
   ****************************************************************************


    The two title cards from your ".mol" input:
    ------------------------------------------------------------------------
 1: H20                                                                     
 2: Test including f-functions                                              
    ------------------------------------------------------------------------

  Atomic type no.    1
  --------------------
  Nuclear charge:   8.00000
  Number of symmetry independent centers:    1
  Number of basis sets to read;    2

  Atomic type no.    2
  --------------------
  Nuclear charge:   1.00000
  Number of symmetry independent centers:    2
  Number of basis sets to read;    2


                         SYMGRP: Point group information
                         -------------------------------

Point group: C1 


                                 Isotopic Masses
                                 ---------------

                           O          15.994915
                           H1          1.007825
                           H2          1.007825

                       Total mass:    18.010565 amu
                       Natural abundance:  99.730 %

 Center-of-mass coordinates (a.u.):    0.000000    0.000000    0.123106


  Atoms and basis sets
  --------------------

  Number of atom types :    2
  Total number of atoms:    3

  label    atoms   charge   prim   cont     basis
  ----------------------------------------------------------------------
  O           1    8.0000    22    22      [4s2p1d1f|4s2p1d1f]                                
  H2          2    1.0000     5     5      [2s1p|2s1p]                                        
  ----------------------------------------------------------------------
  total:      3   10.0000    32    32
  ----------------------------------------------------------------------
  Spherical harmonic basis used.

  Threshold for neglecting AO integrals:  1.00D-12


  Cartesian Coordinates (a.u.)
  ----------------------------

  Total number of coordinates:    9
  O       :     1  x   0.0000000000    2  y   0.0000000000    3  z   0.0000000000
  H1      :     4  x   1.4300000000    5  y   0.0000000000    6  z   1.1000000000
  H2      :     7  x  -1.4300000000    8  y   0.0000000000    9  z   1.1000000000


   Interatomic separations (in Angstrom):
   --------------------------------------

            O           H1          H2    
            ------      ------      ------
 O     :    0.000000
 H1    :    0.954707    0.000000
 H2    :    0.954707    1.513447    0.000000


  Max    interatomic separation is    1.5134 Angstrom (    2.8600 Bohr)
  between atoms    3 and    2, "H2    " and "H1    ".

  Min HX interatomic separation is    0.9547 Angstrom (    1.8041 Bohr)


  Bond distances (Angstrom):
  --------------------------

                  atom 1     atom 2       distance
                  ------     ------       --------
  bond distance:  H1         O            0.954707
  bond distance:  H2         O            0.954707


  Bond angles (degrees):
  ----------------------

                  atom 1     atom 2     atom 3         angle
                  ------     ------     ------         -----
  bond angle:     H1         O          H2           104.863




 Principal moments of inertia (u*A**2) and principal axes
 --------------------------------------------------------

   IA       0.606537          1.000000    0.000000    0.000000
   IB       1.154222          0.000000    0.000000    1.000000
   IC       1.760759          0.000000    1.000000    0.000000


 Rotational constants
 --------------------

 The molecule is planar.

               A                   B                   C

         833220.2929         437852.3988         287023.3200 MHz
           27.793237           14.605184            9.574067 cm-1


@  Nuclear repulsion energy :    9.218170507464 Hartree


                     .---------------------------------------.
                     | Starting in Integral Section (HERMIT) |
                     `---------------------------------------'



    *************************************************************************
    ****************** Output from HERMIT input processing ******************
    *************************************************************************



     ************************************************************************
     ************************** Output from HERINT **************************
     ************************************************************************


 Threshold for neglecting two-electron integrals:  1.00D-12
 Number of two-electron integrals written:       59029 ( 42.3% )
 Megabytes written:                              0.680

 >>>> Total CPU  time used in HERMIT:   0.03 seconds
 >>>> Total wall time used in HERMIT:   0.03 seconds


                        .----------------------------------.
                        | End of Integral Section (HERMIT) |
                        `----------------------------------'



                   .--------------------------------------------.
                   | Starting in Wave Function Section (SIRIUS) |
                   `--------------------------------------------'


 *** Output from Huckel module :

     Using EWMO model:          T
     Using EHT  model:          F
     Number of Huckel orbitals each symmetry:    7

 EWMO - Energy Weighted Maximum Overlap - is a Huckel type method,
        which normally is better than Extended Huckel Theory.
 Reference: Linderberg and Ohrn, Propagators in Quantum Chemistry (Wiley, 1973)

 Huckel EWMO eigenvalues for symmetry :  1
          -20.685009      -1.613106      -0.779035      -0.687725      -0.616200
           -0.231553      -0.167271

 **********************************************************************
 *SIRIUS* a direct, restricted step, second order MCSCF program       *
 **********************************************************************

 
     Date and time (Linux)  : Sun Sep  8 20:53:01 2013
     Host name              : lpqlx131.ups-tlse.fr                    

 Title lines from ".mol" input file:
     H20                                                                     
     Test including f-functions                                              

 Print level on unit LUPRI =   2 is   0
 Print level on unit LUW4  =   2 is   5

@    Restricted, closed shell Kohn-Sham DFT calculation.

 Initial molecular orbitals are obtained according to
 ".MOSTART EWMO  " input option

     Wave function specification
     ============================
@    For the wave function of type :      >>> KS-DFT <<<
@    Number of closed shell electrons          10
@    Number of electrons in active shells       0
@    Total charge of the molecule               0

@    Spin multiplicity and 2 M_S                1         0
     Total number of symmetries                 1
@    Reference state symmetry                   1
 
     This is a DFT calculation of type: B3LYP
 Weighted mixed functional:
               HF exchange:    0.20000
                       VWN:    0.19000
                       LYP:    0.81000
                     Becke:    0.72000
                    Slater:    0.80000

     Orbital specifications
     ======================
     Abelian symmetry species          All |    1
                                       --- |  ---
@    Occupied SCF orbitals               5 |    5
     Secondary orbitals                 27 |   27
     Total number of orbitals           32 |   32
     Number of basis functions          32 |   32

     Optimization information
     ========================
@    Number of configurations                 1
@    Number of orbital rotations            135
     ------------------------------------------
@    Total number of variables              136

     Maximum number of Fock   iterations      0
     Maximum number of DIIS   iterations     60
     Maximum number of QC-SCF iterations     60
     Threshold for SCF convergence     1.00D-05
 
     This is a DFT calculation of type: B3LYP
 Weighted mixed functional:
               HF exchange:    0.20000
                       VWN:    0.19000
                       LYP:    0.81000
                     Becke:    0.72000
                    Slater:    0.80000


 >>>>> DIIS optimization of Hartree-Fock <<<<<

 C1-DIIS algorithm; max error vectors =   10

 Iter      Total energy        Error norm    Delta(E)  DIIS dim.
 -----------------------------------------------------------------------------
      K-S energy, electrons, error :     -8.081241050327   9.9999993286   -6.71D-07
@  1    -72.3874057410        7.95059D+00   -7.24D+01    1
      Virial theorem: -V/T =      1.931847
@      MULPOP O       0.04; H1     -0.02; H2     -0.02; 
 -----------------------------------------------------------------------------
      K-S energy, electrons, error :     -8.099510616546   9.9999994278   -5.72D-07
@  2    -73.1343467215        1.01295D+00   -7.47D-01    2
      Virial theorem: -V/T =      1.946707
@      MULPOP O       0.24; H1     -0.12; H2     -0.12; 
 -----------------------------------------------------------------------------
      K-S energy, electrons, error :     -8.178233927283   9.9999994042   -5.96D-07
@  3    -73.1602597160        6.18549D-01   -2.59D-02    3
      Virial theorem: -V/T =      1.940006
@      MULPOP O      -0.00; H1      0.00; H2      0.00; 
 -----------------------------------------------------------------------------
      K-S energy, electrons, error :     -8.121959220302   9.9999994235   -5.77D-07
@  4    -73.1754442009        1.56170D-01   -1.52D-02    4
      Virial theorem: -V/T =      1.946398
@      MULPOP O       0.16; H1     -0.08; H2     -0.08; 
 -----------------------------------------------------------------------------
      K-S energy, electrons, error :     -8.136444858587   9.9999994191   -5.81D-07
@  5    -73.1763202626        1.08446D-02   -8.76D-04    5
      Virial theorem: -V/T =      1.944637
@      MULPOP O       0.12; H1     -0.06; H2     -0.06; 
 -----------------------------------------------------------------------------
      K-S energy, electrons, error :     -8.135527653714   9.9999994194   -5.81D-07
@  6    -73.1763247403        3.98391D-04   -4.48D-06    6
      Virial theorem: -V/T =      1.944749
@      MULPOP O       0.13; H1     -0.06; H2     -0.06; 
 -----------------------------------------------------------------------------
      K-S energy, electrons, error :     -8.135561655388   9.9999994194   -5.81D-07
@  7    -73.1763247479        2.85030D-05   -7.53D-09    7
      Virial theorem: -V/T =      1.944745
@      MULPOP O       0.12; H1     -0.06; H2     -0.06; 
 -----------------------------------------------------------------------------
      K-S energy, electrons, error :     -8.135559684231   9.9999994194   -5.81D-07
@  8    -73.1763247479        1.16232D-06   -4.15D-11    8

@ *** DIIS converged in   8 iterations !
@     Converged SCF energy, gradient:    -73.176324747907    1.16D-06
    - total time used in SIRFCK :              0.00 seconds


 *** SCF orbital energy analysis ***

 Only the five lowest virtual orbital energies printed in each symmetry.

 Number of electrons :   10
 Orbital occupations :    5

 Sym       Kohn-Sham orbital energies

  1    -17.79615286    -0.38368010     0.08670213     0.31775002     0.42469429
         1.01763722     1.03933760     1.76959653     1.84804774     1.97029003

    E(LUMO) :     1.01763722 au (symmetry 1)
  - E(HOMO) :     0.42469429 au (symmetry 1)
  ------------------------------------------
    gap     :     0.59294293 au

 >>> Writing SIRIFC interface file <<<

 >>>> CPU and wall time for SCF :       2.984       3.015


                       .-----------------------------------.
                       | >>> Final results from SIRIUS <<< |
                       `-----------------------------------'


@    Spin multiplicity:           1
@    Spatial symmetry:            1
@    Total charge of molecule:    0

@    Final DFT energy:            -73.176324747907                 
@    Nuclear repulsion:             9.218170507464
@    Electronic energy:           -82.394495255371

@    Final gradient norm:           0.000001162317

 
     Date and time (Linux)  : Sun Sep  8 20:53:04 2013
     Host name              : lpqlx131.ups-tlse.fr                    

 (Only coefficients >0.0100 are printed.)

 Molecular orbitals for symmetry species  1
 ------------------------------------------

    Orbital         1        2        3        4        5        6        7
   1 O   :1s    -0.2128   0.0489  -0.0000  -0.0257   0.0000   0.0000   0.0168
   2 O   :1s    -0.6117   0.1769  -0.0000  -0.0918   0.0000   0.0000   0.0732
   3 O   :1s    -0.4164   0.2660   0.0000  -0.1549   0.0000   0.0000   0.0286
   4 O   :1s     0.1301  -0.8886   0.0000   0.5214  -0.0000  -0.0000  -0.1717
   5 O   :2px   -0.0000  -0.0000  -0.1665   0.0000  -0.0000   0.2155  -0.0000
   6 O   :2py    0.0000   0.0000  -0.0000   0.0000   0.2314   0.0000   0.0000
   7 O   :2pz   -0.0109  -0.0629   0.0000  -0.1808   0.0000  -0.0000  -0.1638
   8 O   :2px    0.0000   0.0000  -0.5212   0.0000  -0.0000   0.3179  -0.0000
   9 O   :2py    0.0000   0.0000  -0.0000   0.0000   0.7857   0.0000   0.0000
  10 O   :2pz    0.0298  -0.0507  -0.0000  -0.6714   0.0000  -0.0000  -0.2680
  14 O   :3d1+   0.0000   0.0000   0.0039   0.0000   0.0000  -0.2778   0.0000
  15 O   :3d2+   0.0183   0.0593  -0.0000  -0.0274  -0.0000   0.0000   0.1778
  16 O   :4f3-  -0.0000  -0.0000   0.0000  -0.0000  -0.0197  -0.0000  -0.0000
  19 O   :4f0   -0.0068  -0.0371  -0.0000   0.0058   0.0000  -0.0000  -0.0092
  20 O   :4f1+  -0.0000   0.0000   0.0205   0.0000   0.0000  -0.0229   0.0000
  21 O   :4f2+   0.0133   0.0768  -0.0000   0.0036  -0.0000   0.0000   0.0381
  22 O   :4f3+  -0.0000   0.0000   0.0304  -0.0000   0.0000  -0.0352   0.0000
  23 H1  :1s     0.0101   0.0210   0.0087  -0.0025   0.0000  -0.0112  -0.0007
  24 H1  :1s    -0.0332  -0.3424  -0.4261  -0.2186   0.0000  -0.4016   0.5006
  25 H1  :2px    0.0189   0.0716  -0.0223   0.0018  -0.0000  -0.2169   0.2930
  26 H1  :2py    0.0000   0.0000  -0.0000   0.0000   0.1200   0.0000   0.0000
  27 H1  :2pz    0.0170   0.0537   0.0267  -0.0942   0.0000  -0.2555   0.1107
  28 H2  :1s     0.0101   0.0210  -0.0087  -0.0025  -0.0000   0.0112  -0.0007
  29 H2  :1s    -0.0332  -0.3424   0.4261  -0.2186   0.0000   0.4016   0.5006
  30 H2  :2px   -0.0189  -0.0716  -0.0223  -0.0018  -0.0000  -0.2169  -0.2930
  31 H2  :2py    0.0000   0.0000  -0.0000   0.0000   0.1200   0.0000   0.0000
  32 H2  :2pz    0.0170   0.0537  -0.0267  -0.0942   0.0000   0.2555   0.1107



 >>>> Total CPU  time used in SIRIUS :      2.99 seconds
 >>>> Total wall time used in SIRIUS :      3.02 seconds

 
     Date and time (Linux)  : Sun Sep  8 20:53:04 2013
     Host name              : lpqlx131.ups-tlse.fr                    


                     .---------------------------------------.
                     | End of Wave Function Section (SIRIUS) |
                     `---------------------------------------'

 >>>> Total CPU  time used in DALTON:   3.02 seconds
 >>>> Total wall time used in DALTON:   3.05 seconds

 
     Date and time (Linux)  : Sun Sep  8 20:53:04 2013
     Host name              : lpqlx131.ups-tlse.fr                    
