

     ************************************************************************
     *************** Dalton - An Electronic Structure Program ***************
     ************************************************************************

    This is output from DALTON (Release Dalton2013 patch 0)
   ----------------------------------------------------------------------------
    NOTE:
     
    Dalton is an experimental code for the evaluation of molecular
    properties using (MC)SCF, DFT, CI, and CC wave functions.
    The authors accept no responsibility for the performance of
    the code or for the correctness of the results.
     
    The code (in whole or part) is provided under a licence and
    is not to be reproduced for further distribution without
    the written permission of the authors or their representatives.
     
    See the home page "http://daltonprogram.org" for further information.
     
    If results obtained with this code are published,
    the appropriate citations would be both of:
     
       K. Aidas, C. Angeli, K. L. Bak, V. Bakken, R. Bast,
       L. Boman, O. Christiansen, R. Cimiraglia, S. Coriani,
       P. Dahle, E. K. Dalskov, U. Ekstroem, T. Enevoldsen,
       J. J. Eriksen, P. Ettenhuber, B. Fernandez, L. Ferrighi,
       H. Fliegl, L. Frediani, K. Hald, A. Halkier, C. Haettig,
       H. Heiberg, T. Helgaker, A. C. Hennum, H. Hettema,
       E. Hjertenaes, S. Hoest, I.-M. Hoeyvik, M. F. Iozzi,
       B. Jansik, H. J. Aa. Jensen, D. Jonsson, P. Joergensen,
       J. Kauczor, S. Kirpekar, T. Kjaergaard, W. Klopper,
       S. Knecht, R. Kobayashi, H. Koch, J. Kongsted, A. Krapp,
       K. Kristensen, A. Ligabue, O. B. Lutnaes, J. I. Melo,
       K. V. Mikkelsen, R. H. Myhre, C. Neiss, C. B. Nielsen,
       P. Norman, J. Olsen, J. M. H. Olsen, A. Osted,
       M. J. Packer, F. Pawlowski, T. B. Pedersen, P. F. Provasi,
       S. Reine, Z. Rinkevicius, T. A. Ruden, K. Ruud, V. Rybkin,
       P. Salek, C. C. M. Samson, A. Sanchez de Meras, T. Saue,
       S. P. A. Sauer, B. Schimmelpfennig, K. Sneskov,
       A. H. Steindal, K. O. Sylvester-Hvid, P. R. Taylor,
       A. M. Teale, E. I. Tellgren, D. P. Tew, A. J. Thorvaldsen,
       L. Thoegersen, O. Vahtras, M. A. Watson, D. J. D. Wilson,
       M. Ziolkowski and H. Agren.
       The Dalton quantum chemistry program system.
       WIREs Comput. Mol. Sci. 2013. doi: 10.1002/wcms.1172
    
    and
    
       Dalton, a Molecular Electronic Structure Program,
       Release DALTON2013.0 (2013), see http://daltonprogram.org
   ----------------------------------------------------------------------------

    Authors in alphabetical order (major contribution(s) in parenthesis):

  Kestutis Aidas,           Vilnius University,           Lithuania   (QM/MM)
  Celestino Angeli,         University of Ferrara,        Italy       (NEVPT2)
  Keld L. Bak,              UNI-C,                        Denmark     (AOSOPPA, non-adiabatic coupling, magnetic properties)
  Vebjoern Bakken,          University of Oslo,           Norway      (DALTON; geometry optimizer, symmetry detection)
  Radovan Bast,             KTH Stockholm                 Sweden      (DALTON installation and execution frameworks)
  Linus Boman,              NTNU,                         Norway      (Cholesky decomposition and subsystems)
  Ove Christiansen,         Aarhus University,            Denmark     (CC module)
  Renzo Cimiraglia,         University of Ferrara,        Italy       (NEVPT2)
  Sonia Coriani,            University of Trieste,        Italy       (CC module, MCD in RESPONS)
  Paal Dahle,               University of Oslo,           Norway      (Parallelization)
  Erik K. Dalskov,          UNI-C,                        Denmark     (SOPPA)
  Thomas Enevoldsen,        Univ. of Southern Denmark,    Denmark     (SOPPA)
  Janus J. Eriksen,         Aarhus University,            Denmark     (PE-MP2/SOPPA, TDA)
  Berta Fernandez,          U. of Santiago de Compostela, Spain       (doublet spin, ESR in RESPONS)
  Lara Ferrighi,            Aarhus University,            Denmark     (PCM Cubic response)
  Heike Fliegl,             University of Oslo,           Norway      (CCSD(R12))
  Luca Frediani,            UiT The Arctic U. of Norway,  Norway      (PCM)
  Bin Gao,                  UiT The Arctic U. of Norway,  Norway      (Gen1Int library)
  Christof Haettig,         Ruhr-University Bochum,       Germany     (CC module)
  Kasper Hald,              Aarhus University,            Denmark     (CC module)
  Asger Halkier,            Aarhus University,            Denmark     (CC module)
  Hanne Heiberg,            University of Oslo,           Norway      (geometry analysis, selected one-electron integrals)
  Trygve Helgaker,          University of Oslo,           Norway      (DALTON; ABACUS, ERI, DFT modules, London, and much more)
  Alf Christian Hennum,     University of Oslo,           Norway      (Parity violation)
  Hinne Hettema,            University of Auckland,       New Zealand (quadratic response in RESPONS; SIRIUS supersymmetry)
  Eirik Hjertenaes,         NTNU,                         Norway      (Cholesky decomposition)
  Maria Francesca Iozzi,    University of Oslo,           Norway      (RPA)
  Brano Jansik              Technical Univ. of Ostrava    Czech Rep.  (DFT cubic response)
  Hans Joergen Aa. Jensen,  Univ. of Southern Denmark,    Denmark     (DALTON; SIRIUS, RESPONS, ABACUS modules, London, and much more)
  Dan Jonsson,              UiT The Arctic U. of Norway,  Norway      (cubic response in RESPONS module)
  Poul Joergensen,          Aarhus University,            Denmark     (RESPONS, ABACUS, and CC modules)
  Joanna Kauczor,           Linkoeping University,        Sweden      (Complex polarization propagator (CPP) module)
  Sheela Kirpekar,          Univ. of Southern Denmark,    Denmark     (Mass-velocity & Darwin integrals)
  Wim Klopper,              KIT Karlsruhe,                Germany     (R12 code in CC, SIRIUS, and ABACUS modules)
  Stefan Knecht,            ETH Zurich,                   Switzerland (Parallel CI and MCSCF)
  Rika Kobayashi,           Australian National Univ.,    Australia   (DIIS in CC, London in MCSCF)
  Henrik Koch,              NTNU,                         Norway      (CC module, Cholesky decomposition)
  Jacob Kongsted,           Univ. of Southern Denmark,    Denmark     (Polarizable embedding, QM/MM)
  Andrea Ligabue,           University of Modena,         Italy       (CTOCD, AOSOPPA)
  Ola B. Lutnaes,           University of Oslo,           Norway      (DFT Hessian)
  Juan I. Melo,             University of Buenos Aires,   Argentina   (LRESC, Relativistic Effects on NMR Shieldings)
  Kurt V. Mikkelsen,        University of Copenhagen,     Denmark     (MC-SCRF and QM/MM)
  Rolf H. Myhre,            NTNU,                         Norway      (Cholesky, subsystems and ECC2)
  Christian Neiss,          Univ. Erlangen-Nuernberg,     Germany     (CCSD(R12))
  Christian B. Nielsen,     University of Copenhagen,     Denmark     (QM/MM)
  Patrick Norman,           Linkoeping University,        Sweden      (Cubic response and complex response in RESPONS)
  Jeppe Olsen,              Aarhus University,            Denmark     (SIRIUS CI/density modules)
  Jogvan Magnus H. Olsen,   Univ. of Southern Denmark,    Denmark     (Polarizable embedding, PE library, QM/MM)
  Anders Osted,             Copenhagen University,        Denmark     (QM/MM)
  Martin J. Packer,         University of Sheffield,      UK          (SOPPA)
  Filip Pawlowski,          Kazimierz Wielki University   Poland      (CC3)
  Thomas B. Pedersen,       University of Oslo,           Norway      (Cholesky decomposition)
  Patricio F. Provasi,      University of Northeastern,   Argentina   (Analysis of coupling constants in localized orbitals)
  Zilvinas Rinkevicius,     KTH Stockholm,                Sweden      (open-shell DFT, ESR)
  Elias Rudberg,            KTH Stockholm,                Sweden      (DFT grid and basis info)
  Torgeir A. Ruden,         University of Oslo,           Norway      (Numerical derivatives in ABACUS)
  Kenneth Ruud,             UiT The Arctic U. of Norway,  Norway      (DALTON; ABACUS magnetic properties and  much more)
  Pawel Salek,              KTH Stockholm,                Sweden      (DALTON; DFT code)
  Claire C. M. Samson       University of Karlsruhe       Germany     (Boys localization, r12 integrals in ERI)
  Alfredo Sanchez de Meras, University of Valencia,       Spain       (CC module, Cholesky decomposition)
  Trond Saue,               Paul Sabatier University,     France      (direct Fock matrix construction)
  Stephan P. A. Sauer,      University of Copenhagen,     Denmark     (SOPPA(CCSD), SOPPA prop., AOSOPPA, vibrational g-factors)
  Bernd Schimmelpfennig,    Forschungszentrum Karlsruhe,  Germany     (AMFI module)
  Kristian Sneskov,         Aarhus University,            Denmark     (QM/MM, PE-CC)
  Arnfinn H. Steindal,      UiT The Arctic U. of Norway,  Norway      (parallel QM/MM)
  K. O. Sylvester-Hvid,     University of Copenhagen,     Denmark     (MC-SCRF)
  Peter R. Taylor,          VLSCI/Univ. of Melbourne,     Australia   (Symmetry handling ABACUS, integral transformation)
  Andrew M. Teale,          University of Nottingham,     England     (DFT-AC, DFT-D)
  David P. Tew,             University of Bristol,        England     (CCSD(R12))
  Olav Vahtras,             KTH Stockholm,                Sweden      (triplet response, spin-orbit, ESR, TDDFT, open-shell DFT)
  David J. Wilson,          La Trobe University,          Australia   (DFT Hessian and DFT magnetizabilities)
  Hans Agren,               KTH Stockholm,                Sweden      (SIRIUS module, RESPONS, MC-SCRF solvation model)
 --------------------------------------------------------------------------------

     Date and time (Linux)  : Sun Sep  8 20:59:52 2013
     Host name              : lpqlx131.ups-tlse.fr                    

 * Work memory size             :    64000000 =  488.28 megabytes.

 * Directories for basis set searches:
   1) /home/bast/DALTON-2013.0-Source/build/test_r12_stg
   2) /home/bast/DALTON-2013.0-Source/build/basis


Compilation information
-----------------------

 Who compiled             | bast
 Host                     | lpqlx131.ups-tlse.fr
 System                   | Linux-3.8.5-201.fc18.x86_64
 CMake generator          | Unix Makefiles
 Processor                | x86_64
 64-bit integers          | OFF
 MPI                      | OFF
 Fortran compiler         | /usr/bin/gfortran
 Fortran compiler version | GNU Fortran (GCC) 4.7.2 20121109 (Red Hat 4.7.2-8)
 C compiler               | /usr/bin/gcc
 C compiler version       | gcc (GCC) 4.7.2 20121109 (Red Hat 4.7.2-8)
 C++ compiler             | /usr/bin/g++
 C++ compiler version     | g++ (GCC) 4.7.2 20121109 (Red Hat 4.7.2-8)
 Static linking           | OFF
 Last Git revision        | f34203295a86316e27f9e7b44f9b6769c4a046c0
 Configuration time       | 2013-09-08 20:31:27.952056


   Content of the .dal input file
 ----------------------------------

**DALTON INPUT                                    
.RUN WAVE FUNCTION                                
.DIRECT                                           
*MOLBAS                                           
.R12AUX                                           
**INTEGRALS                                       
.R12STG                                           
0.5                                               
3                                                 
**WAVE FUNCTIONS                                  
.HF                                               
.CC                                               
*SCF INPUT                                        
.THRESH                                           
 1D-10                                            
*ORBITAL INPUT                                    
.NOSUPSYM                                         
.MOSTART                                          
 H1DIAG                                           
*CC INPUT                                         
#.HERDIR                                          
.FROIMP                                           
 1 0 0 0                                          
 0 0 0 0                                          
.MP2                                              
.PRINT                                            
 3                                                
*R12 INPUT                                        
.CABS                                             
.R12XXL                                           
**END OF DALTON INPUT                             


   Content of the .mol file
 ----------------------------

BASIS                                                                          
6-311G Turbomole-TZVPP                                                         
Direct MP2-R12/B calculation using symmetry                                    
                                                                               
    4  0 2 XY XZ      0.10D-14                                                 
 1      6.    1                                                                
C        0.0000000000000     0.0000000000000     0.0000000000000               
 1      1.    1                                                                
H        1.2767310000000     1.2767310000000     1.2767310000000               
 2      6.    1                                                                
C        0.0000000000000     0.0000000000000     0.0000000000000               
 2      1.    1                                                                
H        1.2767310000000     1.2767310000000     1.2767310000000               


       *******************************************************************
       *********** Output from DALTON general input processing ***********
       *******************************************************************

 --------------------------------------------------------------------------------
   Overall default print level:    0
   Print level for DALTON.STAT:    1

    AO-direct calculation (in sections where implemented)
    HERMIT 1- and 2-electron integral sections will be executed
    "Old" integral transformation used (limited to max 255 basis functions)
    Wave function sections will be executed (SIRIUS module)
 --------------------------------------------------------------------------------


 Changes of defaults for *MOLBAS:
 --------------------------------

 Print level in molecule setup (READIN):    1

 .R12AUX: Reading auxiliary basis sets from .mol file for R12



   ****************************************************************************
   *************** Output of molecule and basis set information ***************
   ****************************************************************************


    The two title cards from your ".mol" input:
    ------------------------------------------------------------------------
 1: Direct MP2-R12/B calculation using symmetry                             
 2:                                                                         
    ------------------------------------------------------------------------

  Atomic type no.    1
  --------------------
  Nuclear charge:   6.00000
  Number of symmetry independent centers:    1
  Number of basis sets to read;    1
  Basis set file used for this atomic type with Z =   6 :
     "/home/bast/DALTON-2013.0-Source/build/basis/6-311G"

  Atomic type no.    2
  --------------------
  Nuclear charge:   1.00000
  Number of symmetry independent centers:    1
  Number of basis sets to read;    1
  Basis set file used for this atomic type with Z =   1 :
     "/home/bast/DALTON-2013.0-Source/build/basis/6-311G"

  Atomic type no.    3
  --------------------
  Nuclear charge:   6.00000
  Number of symmetry independent centers:    1
  This is an auxiliary basis for R12, MBSI:    2
  Basis set file used for this atomic type with Z =   6 :
     "/home/bast/DALTON-2013.0-Source/build/basis/Turbomole-TZVPP"

  Atomic type no.    4
  --------------------
  Nuclear charge:   1.00000
  Number of symmetry independent centers:    1
  This is an auxiliary basis for R12, MBSI:    2
  Basis set file used for this atomic type with Z =   1 :
     "/home/bast/DALTON-2013.0-Source/build/basis/Turbomole-TZVPP"


                         SYMGRP: Point group information
                         -------------------------------

Point group: D2 

   * The point group was generated by:

      Rotation about the z-axis
      Rotation about the y-axis

   * Group multiplication table

        |  E   C2z  C2y  C2x
   -----+--------------------
     E  |  E   C2z  C2y  C2x
    C2z | C2z   E   C2x  C2y
    C2y | C2y  C2x   E   C2z
    C2x | C2x  C2y  C2z   E 

   * Character table

        |  E   C2z  C2y  C2x
   -----+--------------------
    A   |   1    1    1    1
    B2  |   1   -1    1   -1
    B1  |   1    1   -1   -1
    B3  |   1   -1   -1    1

   * Direct product table

        | A    B2   B1   B3 
   -----+--------------------
    A   | A    B2   B1   B3 
    B2  | B2   A    B3   B1 
    B1  | B1   B3   A    B2 
    B3  | B3   B1   B2   A  


                                 Isotopic Masses
                                 ---------------

                           C          12.000000
                           H   _1      1.007825
                           H   _2      1.007825
                           H   _3      1.007825
                           H   _4      1.007825
                           C           0.000000
                           H   _1      0.000000
                           H   _2      0.000000
                           H   _3      0.000000
                           H   _4      0.000000

                       Total mass:    16.031300 amu
                       Natural abundance:   0.000 %

 Center-of-mass coordinates (a.u.):    0.000000    0.000000    0.000000


  Atoms and basis sets
  --------------------

  Number of atom types :    4
  Total number of atoms:   10

  Basis set 1 refers to the basis "6-311G" from the basis set library.

  Basis set 2 refers to the basis "Turbomole-TZVPP" from the basis set library.

  label  basis   atoms  charge   prim  cont     basis
  ------------------------------------------------------------------------------
  C        1       1    6.0000    26    13      [11s5p|4s3p]                                       
  H        1       4    1.0000     5     3      [5s|3s]                                            
  C        2       1    0.0000    46    31      [11s6p2d1f|5s3p2d1f]                               
  H        2       4    0.0000    16    14      [5s2p1d|3s2p1d]                                    
  ------------------------------------------------------------------------------
  total:          10   10.0000   156   112
  ------------------------------------------------------------------------------
  Spherical harmonic basis used.

  Threshold for neglecting AO integrals:  1.00D-15


  Cartesian Coordinates (a.u.)
  ----------------------------

  Total number of coordinates:   30
  C       :     1  x   0.0000000000    2  y   0.0000000000    3  z   0.0000000000
  H   / 1 :     4  x   1.2767310000    5  y   1.2767310000    6  z   1.2767310000
  H   / 2 :     7  x  -1.2767310000    8  y  -1.2767310000    9  z   1.2767310000
  H   / 3 :    10  x  -1.2767310000   11  y   1.2767310000   12  z  -1.2767310000
  H   / 4 :    13  x   1.2767310000   14  y  -1.2767310000   15  z  -1.2767310000
  C       :    16  x   0.0000000000   17  y   0.0000000000   18  z   0.0000000000
  H   / 1 :    19  x   1.2767310000   20  y   1.2767310000   21  z   1.2767310000
  H   / 2 :    22  x  -1.2767310000   23  y  -1.2767310000   24  z   1.2767310000
  H   / 3 :    25  x  -1.2767310000   26  y   1.2767310000   27  z  -1.2767310000
  H   / 4 :    28  x   1.2767310000   29  y  -1.2767310000   30  z  -1.2767310000


  Symmetry Coordinates
  --------------------

  Number of coordinates in each symmetry:     6    8    8    8

  Symmetry  A   ( 1)

    1   H     x    [  4  -    7  -   10  +   13 ]/4
    2   H     y    [  5  -    8  +   11  -   14 ]/4
    3   H     z    [  6  +    9  -   12  -   15 ]/4
    4   H     x    [ 19  -   22  -   25  +   28 ]/4
    5   H     y    [ 20  -   23  +   26  -   29 ]/4
    6   H     z    [ 21  +   24  -   27  -   30 ]/4

  Symmetry  B2  ( 2)

    7   C     y    2
    8   H     x    [  4  +    7  -   10  -   13 ]/4
    9   H     y    [  5  +    8  +   11  +   14 ]/4
   10   H     z    [  6  -    9  -   12  +   15 ]/4
   11   C     y   17
   12   H     x    [ 19  +   22  -   25  -   28 ]/4
   13   H     y    [ 20  +   23  +   26  +   29 ]/4
   14   H     z    [ 21  -   24  -   27  +   30 ]/4

  Symmetry  B1  ( 3)

   15   C     z    3
   16   H     x    [  4  -    7  +   10  -   13 ]/4
   17   H     y    [  5  -    8  -   11  +   14 ]/4
   18   H     z    [  6  +    9  +   12  +   15 ]/4
   19   C     z   18
   20   H     x    [ 19  -   22  +   25  -   28 ]/4
   21   H     y    [ 20  -   23  -   26  +   29 ]/4
   22   H     z    [ 21  +   24  +   27  +   30 ]/4

  Symmetry  B3  ( 4)

   23   C     x    1
   24   H     x    [  4  +    7  +   10  +   13 ]/4
   25   H     y    [  5  +    8  -   11  -   14 ]/4
   26   H     z    [  6  -    9  +   12  -   15 ]/4
   27   C     x   16
   28   H     x    [ 19  +   22  +   25  +   28 ]/4
   29   H     y    [ 20  +   23  -   26  -   29 ]/4
   30   H     z    [ 21  -   24  +   27  -   30 ]/4


   Interatomic separations (in Angstrom):
   --------------------------------------

            C           H   _1      H   _2      H   _3      H   _4      C     
            ------      ------      ------      ------      ------      ------
 C     :    0.000000
 H   _1:    1.170203    0.000000
 H   _2:    1.170203    1.910933    0.000000
 H   _3:    1.170203    1.910933    1.910933    0.000000
 H   _4:    1.170203    1.910933    1.910933    1.910933    0.000000
 C     :    0.000000    1.170203    1.170203    1.170203    1.170203    0.000000
 H   _1:    1.170203    0.000000    1.910933    1.910933    1.910933    1.170203
 H   _2:    1.170203    1.910933    0.000000    1.910933    1.910933    1.170203
 H   _3:    1.170203    1.910933    1.910933    0.000000    1.910933    1.170203
 H   _4:    1.170203    1.910933    1.910933    1.910933    0.000000    1.170203

            H   _1      H   _2      H   _3      H   _4
            ------      ------      ------      ------
 H   _1:    0.000000
 H   _2:    1.910933    0.000000
 H   _3:    1.910933    1.910933    0.000000
 H   _4:    1.910933    1.910933    1.910933    0.000000


  Max    interatomic separation is    1.9109 Angstrom (    3.6111 Bohr)
  between atoms    3 and    2, "H   _2" and "H   _1".

  Min HX interatomic separation is    0.0000 Angstrom (    0.0000 Bohr)

  Min YX interatomic separation is    0.0000 Angstrom (    0.0000 Bohr)

WARNING: Number of short HX and YX bond lengths:    4    1
WARNING: If not intentional, maybe your coordinates were in Angstrom,
WARNING: but "Angstrom" was not specified in .mol file


  Bond distances (Angstrom):
  --------------------------

                  atom 1     atom 2       distance
                  ------     ------       --------
  bond distance:  H   _1     C            1.170203
  bond distance:  H   _2     C            1.170203
  bond distance:  H   _3     C            1.170203
  bond distance:  H   _4     C            1.170203


  Bond angles (degrees):
  ----------------------

                  atom 1     atom 2     atom 3         angle
                  ------     ------     ------         -----
  bond angle:     H   _1     C          H   _2       109.471
  bond angle:     H   _1     C          H   _3       109.471
  bond angle:     H   _1     C          H   _4       109.471
  bond angle:     H   _2     C          H   _3       109.471
  bond angle:     H   _2     C          H   _4       109.471
  bond angle:     H   _3     C          H   _4       109.471




 Principal moments of inertia (u*A**2) and principal axes
 --------------------------------------------------------

   IA       3.680240          1.000000    0.000000    0.000000
   IB       3.680240          0.000000    1.000000    0.000000
   IC       3.680240          0.000000    0.000000    1.000000


 Rotational constants
 --------------------

               A                   B                   C

         137322.2814         137322.2814         137322.2814 MHz
            4.580578            4.580578            4.580578 cm-1


@  Nuclear repulsion energy :   12.514560078913 Hartree


  Symmetry Orbitals
  -----------------

  Number of orbitals in each symmetry:          31   27   27   27

  Number of main orbitals in each symmetry:           7    6    6    6
  Number of auxiliary functions in each symmetry:    24   21   21   21


  Symmetry  A  ( 1)

    1     C    M   1s         1
    2     C    M   1s         2
    3     C    M   1s         3
    4     C    M   1s         4
    5     H    M   1s        14 +   15 +   16 +   17
    6     H    M   1s        18 +   19 +   20 +   21
    7     H    M   1s        22 +   23 +   24 +   25
    8     C    A   1s        26
    9     C    A   1s        27
   10     C    A   1s        28
   11     C    A   1s        29
   12     C    A   1s        30
   13     C    A   3d0       42
   14     C    A   3d2+      44
   15     C    A   3d0       47
   16     C    A   3d2+      49
   17     C    A   4f2-      51
   18     H    A   1s        57 +   58 +   59 +   60
   19     H    A   1s        61 +   62 +   63 +   64
   20     H    A   1s        65 +   66 +   67 +   68
   21     H    A   2px       69 -   70 -   71 +   72
   22     H    A   2py       73 -   74 +   75 -   76
   23     H    A   2pz       77 +   78 -   79 -   80
   24     H    A   2px       81 -   82 -   83 +   84
   25     H    A   2py       85 -   86 +   87 -   88
   26     H    A   2pz       89 +   90 -   91 -   92
   27     H    A   3d2-      93 +   94 -   95 -   96
   28     H    A   3d1-      97 -   98 -   99 +  100
   29     H    A   3d0      101 +  102 +  103 +  104
   30     H    A   3d1+     105 -  106 +  107 -  108
   31     H    A   3d2+     109 +  110 +  111 +  112


  Symmetry  B2 ( 2)

   32     C    M   2py        6
   33     C    M   2py        9
   34     C    M   2py       12
   35     H    M   1s        14 -   15 +   16 -   17
   36     H    M   1s        18 -   19 +   20 -   21
   37     H    M   1s        22 -   23 +   24 -   25
   38     C    A   2py       32
   39     C    A   2py       35
   40     C    A   2py       38
   41     C    A   3d1+      43
   42     C    A   3d1+      48
   43     C    A   4f3-      50
   44     C    A   4f1-      52
   45     H    A   1s        57 -   58 +   59 -   60
   46     H    A   1s        61 -   62 +   63 -   64
   47     H    A   1s        65 -   66 +   67 -   68
   48     H    A   2px       69 +   70 -   71 -   72
   49     H    A   2py       73 +   74 +   75 +   76
   50     H    A   2pz       77 -   78 -   79 +   80
   51     H    A   2px       81 +   82 -   83 -   84
   52     H    A   2py       85 +   86 +   87 +   88
   53     H    A   2pz       89 -   90 -   91 +   92
   54     H    A   3d2-      93 -   94 -   95 +   96
   55     H    A   3d1-      97 +   98 -   99 -  100
   56     H    A   3d0      101 -  102 +  103 -  104
   57     H    A   3d1+     105 +  106 +  107 +  108
   58     H    A   3d2+     109 -  110 +  111 -  112


  Symmetry  B1 ( 3)

   59     C    M   2pz        7
   60     C    M   2pz       10
   61     C    M   2pz       13
   62     H    M   1s        14 +   15 -   16 -   17
   63     H    M   1s        18 +   19 -   20 -   21
   64     H    M   1s        22 +   23 -   24 -   25
   65     C    A   2pz       33
   66     C    A   2pz       36
   67     C    A   2pz       39
   68     C    A   3d2-      40
   69     C    A   3d2-      45
   70     C    A   4f0       53
   71     C    A   4f2+      55
   72     H    A   1s        57 +   58 -   59 -   60
   73     H    A   1s        61 +   62 -   63 -   64
   74     H    A   1s        65 +   66 -   67 -   68
   75     H    A   2px       69 -   70 +   71 -   72
   76     H    A   2py       73 -   74 -   75 +   76
   77     H    A   2pz       77 +   78 +   79 +   80
   78     H    A   2px       81 -   82 +   83 -   84
   79     H    A   2py       85 -   86 -   87 +   88
   80     H    A   2pz       89 +   90 +   91 +   92
   81     H    A   3d2-      93 +   94 +   95 +   96
   82     H    A   3d1-      97 -   98 +   99 -  100
   83     H    A   3d0      101 +  102 -  103 -  104
   84     H    A   3d1+     105 -  106 -  107 +  108
   85     H    A   3d2+     109 +  110 -  111 -  112


  Symmetry  B3 ( 4)

   86     C    M   2px        5
   87     C    M   2px        8
   88     C    M   2px       11
   89     H    M   1s        14 -   15 -   16 +   17
   90     H    M   1s        18 -   19 -   20 +   21
   91     H    M   1s        22 -   23 -   24 +   25
   92     C    A   2px       31
   93     C    A   2px       34
   94     C    A   2px       37
   95     C    A   3d1-      41
   96     C    A   3d1-      46
   97     C    A   4f1+      54
   98     C    A   4f3+      56
   99     H    A   1s        57 -   58 -   59 +   60
  100     H    A   1s        61 -   62 -   63 +   64
  101     H    A   1s        65 -   66 -   67 +   68
  102     H    A   2px       69 +   70 +   71 +   72
  103     H    A   2py       73 +   74 -   75 -   76
  104     H    A   2pz       77 -   78 +   79 -   80
  105     H    A   2px       81 +   82 +   83 +   84
  106     H    A   2py       85 +   86 -   87 -   88
  107     H    A   2pz       89 -   90 +   91 -   92
  108     H    A   3d2-      93 -   94 +   95 -   96
  109     H    A   3d1-      97 +   98 +   99 +  100
  110     H    A   3d0      101 -  102 -  103 +  104
  111     H    A   3d1+     105 +  106 -  107 -  108
  112     H    A   3d2+     109 -  110 -  111 +  112

  Number of floating/multiple basis set orbitals :    5

  Symmetries of electric field:  B3 (4)  B2 (2)  B1 (3)

  Symmetries of magnetic field:  B3 (4)  B2 (2)  B1 (3)


                     .---------------------------------------.
                     | Starting in Integral Section (HERMIT) |
                     `---------------------------------------'



    *************************************************************************
    ****************** Output from HERMIT input processing ******************
    *************************************************************************


 Default print level:        1

 * Nuclear model: Point charge

 Calculation of one-electron Hamiltonian integrals.

 The following one-electron property integrals are calculated as requested:
          - overlap integrals
          - Cartesian multipole moment integrals of orders 2 and lower

 Center of mass  (bohr):      0.000000000000      0.000000000000      0.000000000000
 Operator center (bohr):      0.000000000000      0.000000000000      0.000000000000
 Gauge origin    (bohr):      0.000000000000      0.000000000000      0.000000000000
 Dipole origin   (bohr):      0.000000000000      0.000000000000      0.000000000000


     ************************************************************************
     ************************** Output from HERINT **************************
     ************************************************************************

 >>>> Total CPU  time used in HERMIT:   0.06 seconds
 >>>> Total wall time used in HERMIT:   0.06 seconds


                        .----------------------------------.
                        | End of Integral Section (HERMIT) |
                        `----------------------------------'



                   .--------------------------------------------.
                   | Starting in Wave Function Section (SIRIUS) |
                   `--------------------------------------------'


 >>>> Detected R12 input:
 Direct Fock matrix formation switched on!
 Scale factors for CC excitations manifolds:
 for bra states (projection manifold):   1.0000000000000000     
 for ket states (operator manifold)  :   1.0000000000000000     

 **********************************************************************
 *SIRIUS* a direct, restricted step, second order MCSCF program       *
 **********************************************************************

 
     Date and time (Linux)  : Sun Sep  8 20:59:52 2013
     Host name              : lpqlx131.ups-tlse.fr                    

 Title lines from ".mol" input file:
     Direct MP2-R12/B calculation using symmetry                             
                                                                             

 Print level on unit LUPRI =   2 is   0
 Print level on unit LUW4  =   2 is   5

@    (Integral direct) CC calculation.

@    This is a combination run starting with
@              a restricted, closed shell Hartree-Fock calculation

 Fock matrices are calculated directly without use of integrals on disk.

 Initial molecular orbitals are obtained according to
 ".MOSTART H1DIAG" input option

     Wave function specification
     ============================

     For the specification of the Coupled Cluster: see later.

@    For the wave function of type :      >>> CC <<<
@    Number of closed shell electrons          10
@    Number of electrons in active shells       0
@    Total charge of the molecule               0

@    Spin multiplicity and 2 M_S                1         0
     Total number of symmetries                 4
@    Reference state symmetry                   1

     Orbital specifications
     ======================
     Abelian symmetry species          All |    1    2    3    4
                                       --- |  ---  ---  ---  ---
     Total number of orbitals           25 |    7    6    6    6
     Number of basis functions         112 |   31   27   27   27

      ** Automatic occupation of RHF orbitals **

      -- Initial occupation of symmetries is determined from diagonal of H1 matrix.           
      -- Initial occupation of symmetries is :
@    Occupied SCF orbitals               5 |    2    1    1    1

     Maximum number of Fock   iterations      0
     Maximum number of DIIS   iterations     60
     Maximum number of QC-SCF iterations     60
     Threshold for SCF convergence     1.00D-10


 Changes of defaults for CC:
 ---------------------------


 -This is a direct atomic orbital integral based
  calculation for coupled cluster wave function

 -Implicit frozen core calculation
  


 >>>>> DIIS optimization of Hartree-Fock <<<<<

 C1-DIIS algorithm; max error vectors =   10

 Automatic occupation of symmetries with  10 electrons.

 Iter     Total energy    Error norm  Delta(E)    SCF occupation
 -----------------------------------------------------------------------------
   1  Screening settings (-IFTHRS, DIFDEN)   -7    T
@  1  -27.1365641112       1.69D+01  -2.71D+01     2   1   1   1
      Virial theorem: -V/T =      1.403372
@      MULPOP C      -3.73; H   _1  0.93; H   _2  0.93; H   _3  0.93; H   _4  0.93; 
 -----------------------------------------------------------------------------
   2  Screening settings (-IFTHRS, DIFDEN)   -7    T
@  2  -34.5898762640       5.94D+00  -7.45D+00     2   1   1   1
      Virial theorem: -V/T =      2.091355
@      MULPOP C       7.29; H   _1 -1.82; H   _2 -1.82; H   _3 -1.82; H   _4 -1.82; 
 -----------------------------------------------------------------------------
   3  Screening settings (-IFTHRS, DIFDEN)   -7    T
@  3  -38.7946873569       4.88D+00  -4.20D+00     2   1   1   1
      Virial theorem: -V/T =      1.867310
@      MULPOP C      -2.33; H   _1  0.58; H   _2  0.58; H   _3  0.58; H   _4  0.58; 
 -----------------------------------------------------------------------------
   4  Screening settings (-IFTHRS, DIFDEN)   -7    T
@  4  -40.0763992813       1.17D+00  -1.28D+00     2   1   1   1
      Virial theorem: -V/T =      1.982613
@      MULPOP C      -1.13; H   _1  0.28; H   _2  0.28; H   _3  0.28; H   _4  0.28; 
 -----------------------------------------------------------------------------
   5  Screening settings (-IFTHRS, DIFDEN)   -7    T
@  5  -40.1693024542       7.17D-02  -9.29D-02     2   1   1   1
      Virial theorem: -V/T =      2.012201
@      MULPOP C      -0.65; H   _1  0.16; H   _2  0.16; H   _3  0.16; H   _4  0.16; 
 -----------------------------------------------------------------------------
   6  Screening settings (-IFTHRS, DIFDEN)   -9    F
@  6  -40.1695672514       2.35D-02  -2.65D-04     2   1   1   1
      Virial theorem: -V/T =      2.010994
@      MULPOP C      -0.65; H   _1  0.16; H   _2  0.16; H   _3  0.16; H   _4  0.16; 
 -----------------------------------------------------------------------------
   7  Screening settings (-IFTHRS, DIFDEN)   -9    T
@  7  -40.1696077079       1.69D-03  -4.05D-05     2   1   1   1
      Virial theorem: -V/T =      2.010335
@      MULPOP C      -0.65; H   _1  0.16; H   _2  0.16; H   _3  0.16; H   _4  0.16; 
 -----------------------------------------------------------------------------
   8  Screening settings (-IFTHRS, DIFDEN)  -11    F
@  8  -40.1696081787       1.82D-04  -4.71D-07     2   1   1   1
      Virial theorem: -V/T =      2.010296
@      MULPOP C      -0.65; H   _1  0.16; H   _2  0.16; H   _3  0.16; H   _4  0.16; 
 -----------------------------------------------------------------------------
   9  Screening settings (-IFTHRS, DIFDEN)  -11    T
@  9  -40.1696081840       2.57D-05  -5.32D-09     2   1   1   1
      Virial theorem: -V/T =      2.010298
@      MULPOP C      -0.65; H   _1  0.16; H   _2  0.16; H   _3  0.16; H   _4  0.16; 
 -----------------------------------------------------------------------------
  10  Screening settings (-IFTHRS, DIFDEN)  -13    F
@ 10  -40.1696081840       1.78D-06  -5.91D-11     2   1   1   1
      Virial theorem: -V/T =      2.010298
@      MULPOP C      -0.65; H   _1  0.16; H   _2  0.16; H   _3  0.16; H   _4  0.16; 
 -----------------------------------------------------------------------------
  11  Screening settings (-IFTHRS, DIFDEN)  -16    F
@ 11  -40.1696081840       1.32D-07  -2.27D-13     2   1   1   1
      Virial theorem: -V/T =      2.010298
@      MULPOP C      -0.65; H   _1  0.16; H   _2  0.16; H   _3  0.16; H   _4  0.16; 
 -----------------------------------------------------------------------------
  12  Screening settings (-IFTHRS, DIFDEN)  -16    T
@ 12  -40.1696081840       3.24D-08  -1.42D-14     2   1   1   1
      Virial theorem: -V/T =      2.010298
@      MULPOP C      -0.65; H   _1  0.16; H   _2  0.16; H   _3  0.16; H   _4  0.16; 
 -----------------------------------------------------------------------------
  13  Screening settings (-IFTHRS, DIFDEN)  -16    T
@ 13  -40.1696081840       2.10D-10   1.42D-14     2   1   1   1
      Virial theorem: -V/T =      2.010298
@      MULPOP C      -0.65; H   _1  0.16; H   _2  0.16; H   _3  0.16; H   _4  0.16; 
 -----------------------------------------------------------------------------
  14  Screening settings (-IFTHRS, DIFDEN)  -16    T
@ 14  -40.1696081840       1.31D-11   0.00D+00     2   1   1   1

@ *** DIIS converged in  14 iterations !
@     Converged SCF energy, gradient:    -40.169608184049    1.31D-11
    - total time used in SIRFCK :              0.00 seconds


 *** SCF orbital energy analysis ***

 Only the five lowest virtual orbital energies printed in each symmetry.

 Number of electrons :   10
 Orbital occupations :    2    1    1    1

 Sym       Hartree-Fock orbital energies

  1    -11.24883460    -0.91570058     0.15124038     0.66852352     0.98912603
         2.55246795    24.48920405

  2     -0.52493145     0.22803923     0.41917923     0.77943391     2.56471901
         3.26692922

  3     -0.52493145     0.22803923     0.41917923     0.77943391     2.56471901
         3.26692922

  4     -0.52493145     0.22803923     0.41917923     0.77943391     2.56471901
         3.26692922

    E(LUMO) :     0.15124038 au (symmetry 1)
  - E(HOMO) :    -0.52493145 au (symmetry 4)
  ------------------------------------------
    gap     :     0.67617183 au

 >>> Writing SIRIFC interface file <<<

  Canonical primary and secondary basis sets
  ISYM       NORB1 MBAS1       NORB2 MBAS2
     1           7     7          24    24
     2           6     6          21    21
     3           6     6          21    21
     4           6     6          21    21


@ Auxiliary orbitals are deleted during canonical orthonormalization
@   because of detected numerical linear dependence.
@ Eigenvalue threshold for num. lin. dep. =  1.00D-06

@   2 MO components are deleted in symmetry    1
 Overlap eigenvalues of the deleted orbitals:
  2.81D-07  8.87D-09

@   2 MO components are deleted in symmetry    2
 Overlap eigenvalues of the deleted orbitals:
  4.95D-07  1.42D-08

@   2 MO components are deleted in symmetry    3
 Overlap eigenvalues of the deleted orbitals:
  4.95D-07  1.42D-08

@   2 MO components are deleted in symmetry    4
 Overlap eigenvalues of the deleted orbitals:
  4.95D-07  1.42D-08

  Canonical primary and secondary basis sets
  ISYM       NORB1 MBAS1       NORB2 MBAS2
     1           7     7          22    24
     2           6     6          19    21
     3           6     6          19    21
     4           6     6          19    21

 Computation of exchange matrix done [5]

 AUXILIARY BASIS LOW EIGENVALUES
 ISYM         EIGENVALUE
   1      0.000000000000
   2      0.000000000000
   3      0.000000000000
   4      0.000000000000
 >>>  Time used in R12AUX     is   0.10 seconds

 >>>> CPU and wall time for SCF :       0.299       0.305


                       .-----------------------------------.
                       | >>> Final results from SIRIUS <<< |
                       `-----------------------------------'


@    Spin multiplicity:           1
@    Spatial symmetry:            1
@    Total charge of molecule:    0

@    Final HF energy:             -40.169608184049                 
@    Nuclear repulsion:            12.514560078913
@    Electronic energy:           -52.684168262962

@    Final gradient norm:           0.000000000013

 
     Date and time (Linux)  : Sun Sep  8 20:59:52 2013
     Host name              : lpqlx131.ups-tlse.fr                    

 (Only coefficients >0.0100 are printed.)

 Molecular orbitals for symmetry species  1
 ------------------------------------------

    Orbital         1        2        3        4
   1 C   :1s     0.5635  -0.1021   0.0533  -0.0689
   2 C   :1s     0.4666  -0.1727   0.0859  -0.1329
   3 C   :1s     0.0036   0.4457  -0.1037   0.4206
   4 C   :1s    -0.0004   0.3911  -1.9654   1.3118
   5 H   :1s     0.0003   0.0803   0.0194  -0.0607
   6 H   :1s     0.0001   0.0818  -0.0072  -1.0444
   7 H   :1s     0.0001  -0.0006   0.7462   0.2806

 Molecular orbitals for symmetry species  2
 ------------------------------------------

    Orbital         1        2        3
   1 C   :2py   -0.1801  -0.1426   0.0217
   2 C   :2py   -0.3119  -0.1410  -0.0468
   3 C   :2py   -0.2086  -1.1541   1.3027
   4 H   :1s    -0.0975   0.0198  -0.0401
   5 H   :1s    -0.1604  -0.0463  -0.7577
   6 H   :1s    -0.0679   1.2200   0.2430

 Molecular orbitals for symmetry species  3
 ------------------------------------------

    Orbital         1        2        3
   1 C   :2pz   -0.1801  -0.1426   0.0217
   2 C   :2pz   -0.3119  -0.1410  -0.0468
   3 C   :2pz   -0.2086  -1.1541   1.3027
   4 H   :1s    -0.0975   0.0198  -0.0401
   5 H   :1s    -0.1604  -0.0463  -0.7577
   6 H   :1s    -0.0679   1.2200   0.2430

 Molecular orbitals for symmetry species  4
 ------------------------------------------

    Orbital         1        2        3
   1 C   :2px   -0.1801  -0.1426   0.0217
   2 C   :2px   -0.3119  -0.1410  -0.0468
   3 C   :2px   -0.2086  -1.1541   1.3027
   4 H   :1s    -0.0975   0.0198  -0.0401
   5 H   :1s    -0.1604  -0.0463  -0.7577
   6 H   :1s    -0.0679   1.2200   0.2430



 >>>> Total CPU  time used in SIRIUS :      0.30 seconds
 >>>> Total wall time used in SIRIUS :      0.31 seconds

 
     Date and time (Linux)  : Sun Sep  8 20:59:52 2013
     Host name              : lpqlx131.ups-tlse.fr                    


                     .---------------------------------------.
                     | End of Wave Function Section (SIRIUS) |
                     `---------------------------------------'



                    .------------------------------------------.
                    | Starting in Coupled Cluster Section (CC) |
                    `------------------------------------------'

  

 *******************************************************************************
 *******************************************************************************
 *                                                                             *
 *                                                                             *
 *                    START OF COUPLED CLUSTER CALCULATION                     *
 *                                                                             *
 *                                                                             *
 *******************************************************************************
 *******************************************************************************



 CCR12 ANSATZ =   0

 CCR12 APPROX =   0

   NRHF   :       1       1       1       1
   NRHFS  :       2       1       1       1
   NORB1  :       7       6       6       6
   NORB2  :      22      19      19      19

 Number of primary orbitals             :           25
 Number of secondary orbitals           :           79
 Total number of orbitals               :          104
 Total number of basis functions        :          112
 Number of (i|p') integrals             :          104
 Number of (i|u') integrals             :          112
 Number of (Ip'|1/r12|jL) integrals     :          104
 Number of (ip'|1/r12|jq') integrals    :        21840
 Number of (ip'|r12|jq') integrals      :        21840
 Number of (ip'|[T1,r12]|jq') integrals :        43264
 Threshold for R12 contributions            =  0.00000    
 Threshold for singular value decomposition = 0.100000E-11

 Calculation with Gaussian-type geminals (GTGs)
 Expansion coefficients and exponents:
    1        0.468300000000000        0.082575000000000
    2        0.308700000000000        0.580250000000000
    3        0.152900000000000        4.070000000000000
 The B matrix is transformed into an orthogonal basis
 and inverted by diagonalization

 ******************************************************************************
 The MP2-R12/A and MP2-R12/B energies are computed as described in:
 W. Klopper, J. Chem. Phys. 120, 10890-10895 (2004).
 To avoid the hybride scheme, the keyword '.NO HYB'
 must be specified in the Dalton input file.
 ------------------------------------------------------------------------------
 Ansaetze 1, 2, 3 are used and results are printed for approximations A and B.
------------------------------------------------------------------------------
 The Gaussian-damped R12 integrals are computed as described in:
 C. C. M. Samson, W. Klopper and T. Helgaker,
 Comp. Phys. Commun. 149, 1-10 (2002).
 ******************************************************************************

 Core memory required by CCSD_R12 :         128877  (double words)

 Computation of (ik|[[f12,T1],f12]|jl) integrals done
 >>>  Time used in #6 [4]     is   0.43 seconds
 Computation of (ik|f12**2|jl) integrals done
 >>>  Time used in #4 [4]     is   0.33 seconds
 Computation of (ik|f12/r12|jl) integrals done
 >>>  Time used in #2 [4]     is   0.31 seconds
 Computation of (ip'|f12|jq') integrals done
 >>>  Time used in #3 [5]     is   1.28 seconds
 Computation of (ip'|1/r12|jq') integrals done
 >>>  Time used in #1 [5]     is   1.00 seconds
 >>>  Time used in #4 [4]     is   0.34 seconds
 Computation of (i* p'|f12|jq') integrals done
 >>>  Time used in #3 [5]     is   1.27 seconds
 Computation of (i'p|f12|jq') integrals done
 >>>  Time used in #3 [5]     is   1.25 seconds
 Computation of (ip'|[T,f12]|jq') integrals done
 >>>  Time used in #5 [5]     is   2.11 seconds


                 +-----------------------------------------------+
                 ! MP2-R12 ansatz := (1 - P1 - P2 + P1*P2) * R12 !
                 +-----------------------------------------------+


 SECOND-ORDER PAIR ENERGIES:

                    1   -0.005817294    0.000000000
                    2   -0.007360334   -0.003301564
                    3   -0.009260252    0.000000000
                    4   -0.007360334   -0.003301564
                    5   -0.009017702   -0.005746386
                    6   -0.009260252    0.000000000
                    7   -0.007360334   -0.003301564
                    8   -0.009017702   -0.005746386
                    9   -0.009017702   -0.005746386
                   10   -0.009260252    0.000000000

 MP2 =   -0.109876008   -0.082732159   -0.027143850


                            +-------------------------+
                            ! Original MP2-R12 method !
                            +-------------------------+


 SECOND-ORDER NONINVARIANT R12/0 PAIR ENERGIES WITH FIXED R12-COEFFICIENTS:

   1   -0.005817294    0.003389527    0.000000000    0.000000000
   2   -0.007360334    0.020025427   -0.003301564    0.004379657
   3   -0.009260252    0.013512934    0.000000000    0.000000000
   4   -0.007360334    0.020025427   -0.003301564    0.004379657
   5   -0.009017702    0.012610026   -0.005746386    0.007106638
   6   -0.009260252    0.013512934    0.000000000    0.000000000
   7   -0.007360334    0.020025427   -0.003301564    0.004379657
   8   -0.009017702    0.012610026   -0.005746386    0.007106638
   9   -0.009017702    0.012610026   -0.005746386    0.007106638
  10   -0.009260252    0.013512934    0.000000000    0.000000000

       -0.082732159    0.141834687   -0.027143850    0.034458883

 Noninvariant MP2-R12/0   correlation energy =    0.176293571

  IJ    V(IJ)       U(IJ)       C(IJ)       V(IJ)       U(IJ)       C(IJ)   

   1  0.3526E-02 -0.2156E-02  0.1000E+01  0.0000E+00  0.0000E+00  0.0000E+00  0.5150E+01  0.0000E+00
   2  0.1104E-01 -0.5299E-02  0.1000E+01  0.6365E-02 -0.5266E-02  0.5000E+00  0.2714E+01  0.2519E+01
   3  0.9285E-02 -0.4203E-02  0.1000E+01  0.0000E+00  0.0000E+00  0.0000E+00  0.1950E+01  0.0000E+00
   4  0.1104E-01 -0.5299E-02  0.1000E+01  0.6365E-02 -0.5266E-02  0.5000E+00  0.2714E+01  0.2519E+01
   5  0.8753E-02 -0.4121E-02  0.1000E+01  0.1080E-01 -0.8221E-02  0.5000E+00  0.2369E+01  0.2153E+01
   6  0.9285E-02 -0.4203E-02  0.1000E+01  0.0000E+00  0.0000E+00  0.0000E+00  0.1950E+01  0.0000E+00
   7  0.1104E-01 -0.5299E-02  0.1000E+01  0.6365E-02 -0.5266E-02  0.5000E+00  0.2714E+01  0.2519E+01
   8  0.8753E-02 -0.4121E-02  0.1000E+01  0.1080E-01 -0.8221E-02  0.5000E+00  0.2369E+01  0.2153E+01
   9  0.8753E-02 -0.4121E-02  0.1000E+01  0.1080E-01 -0.8221E-02  0.5000E+00  0.2369E+01  0.2153E+01
  10  0.9285E-02 -0.4203E-02  0.1000E+01  0.0000E+00  0.0000E+00  0.0000E+00  0.1950E+01  0.0000E+00

 SECOND-ORDER NONINVARIANT R12/A PAIR ENERGIES:

   1   -0.005817294   -0.011583376    0.000000000    0.000000000
   2   -0.007360334   -0.030375919   -0.003301564   -0.010994208
   3   -0.009260252   -0.029774764    0.000000000    0.000000000
   4   -0.007360334   -0.030375919   -0.003301564   -0.010994208
   5   -0.009017702   -0.027607875   -0.005746386   -0.019928077
   6   -0.009260252   -0.029774764    0.000000000    0.000000000
   7   -0.007360334   -0.030375919   -0.003301564   -0.010994208
   8   -0.009017702   -0.027607875   -0.005746386   -0.019928077
   9   -0.009017702   -0.027607875   -0.005746386   -0.019928077
  10   -0.009260252   -0.029774764    0.000000000    0.000000000

       -0.082732159   -0.274859048   -0.027143850   -0.092766858

 Noninvariant MP2-R12/A   correlation energy =   -0.367625906

  IJ    V(IJ)       U(IJ)       C(IJ)       V(IJ)       U(IJ)       C(IJ)   

   1  0.3526E-02 -0.2156E-02 -0.1635E+01  0.0000E+00  0.0000E+00  0.0000E+00  0.5150E+01  0.0000E+00
   2  0.1104E-01 -0.5299E-02 -0.2084E+01  0.6365E-02 -0.5266E-02 -0.1209E+01  0.2714E+01  0.2519E+01
   3  0.9285E-02 -0.4203E-02 -0.2209E+01  0.0000E+00  0.0000E+00  0.0000E+00  0.1950E+01  0.0000E+00
   4  0.1104E-01 -0.5299E-02 -0.2084E+01  0.6365E-02 -0.5266E-02 -0.1209E+01  0.2714E+01  0.2519E+01
   5  0.8753E-02 -0.4121E-02 -0.2124E+01  0.1080E-01 -0.8221E-02 -0.1313E+01  0.2369E+01  0.2153E+01
   6  0.9285E-02 -0.4203E-02 -0.2209E+01  0.0000E+00  0.0000E+00  0.0000E+00  0.1950E+01  0.0000E+00
   7  0.1104E-01 -0.5299E-02 -0.2084E+01  0.6365E-02 -0.5266E-02 -0.1209E+01  0.2714E+01  0.2519E+01
   8  0.8753E-02 -0.4121E-02 -0.2124E+01  0.1080E-01 -0.8221E-02 -0.1313E+01  0.2369E+01  0.2153E+01
   9  0.8753E-02 -0.4121E-02 -0.2124E+01  0.1080E-01 -0.8221E-02 -0.1313E+01  0.2369E+01  0.2153E+01
  10  0.9285E-02 -0.4203E-02 -0.2209E+01  0.0000E+00  0.0000E+00  0.0000E+00  0.1950E+01  0.0000E+00

 SECOND-ORDER R12/A PAIR ENERGIES:

   1   -0.005817294   -0.013000437    0.000000000    0.000000000     1.45299         2.15338    
   2   -0.007360334   -0.030409143   -0.003301564   -0.010994208     1.45299         2.15338    
   3   -0.009260252   -0.030220820    0.000000000    0.000000000     1.45299         2.15338    
   4   -0.007360334   -0.030409143   -0.003301564   -0.010994208     1.45299         2.15338    
   5   -0.009017702   -0.027610145   -0.005746386   -0.019928077     1.45299         2.15338    
   6   -0.009260252   -0.030220820    0.000000000    0.000000000     1.45299         2.15338    
   7   -0.007360334   -0.030409143   -0.003301564   -0.010994208     1.45299         2.15338    
   8   -0.009017702   -0.027610145   -0.005746386   -0.019928077     1.45299         2.15338    
   9   -0.009017702   -0.027610145   -0.005746386   -0.019928077     1.45299         2.15338    
  10   -0.009260252   -0.030220820    0.000000000    0.000000000     1.45299         2.15338    

       -0.082732159   -0.277720763   -0.027143850   -0.092766858

              MP2-R12/A   correlation energy =   -0.370487621

 SECOND-ORDER R12/A' PAIR ENERGIES:

   1   -0.005817294   -0.012196701    0.000000000    0.000000000     2.23453         2.90953    
   2   -0.007360334   -0.030377327   -0.003301564   -0.010994208     1.84376         2.51876    
   3   -0.009260252   -0.030275282    0.000000000    0.000000000     1.45299         2.12799    
   4   -0.007360334   -0.030377327   -0.003301564   -0.010994208     1.84376         2.51876    
   5   -0.009017702   -0.027615324   -0.005746386   -0.019928077     1.45299         2.12799    
   6   -0.009260252   -0.030275282    0.000000000    0.000000000     1.45299         2.12799    
   7   -0.007360334   -0.030377327   -0.003301564   -0.010994208     1.84376         2.51876    
   8   -0.009017702   -0.027615324   -0.005746386   -0.019928077     1.45299         2.12799    
   9   -0.009017702   -0.027615324   -0.005746386   -0.019928077     1.45299         2.12799    
  10   -0.009260252   -0.030275282    0.000000000    0.000000000     1.45299         2.12799    

       -0.082732159   -0.277000501   -0.027143850   -0.092766858

              MP2-R12/A'  correlation energy =   -0.369767358

 SECOND-ORDER NONINVARIANT R12/B PAIR ENERGIES:

   1   -0.005817294   -0.010132358    0.000000000    0.000000000
   2   -0.007360334   -0.022159849   -0.003301564   -0.008062264
   3   -0.009260252   -0.021428743    0.000000000    0.000000000
   4   -0.007360334   -0.022159849   -0.003301564   -0.008062264
   5   -0.009017702   -0.020667125   -0.005746386   -0.014457967
   6   -0.009260252   -0.021428743    0.000000000    0.000000000
   7   -0.007360334   -0.022159849   -0.003301564   -0.008062264
   8   -0.009017702   -0.020667125   -0.005746386   -0.014457967
   9   -0.009017702   -0.020667125   -0.005746386   -0.014457967
  10   -0.009260252   -0.021428743    0.000000000    0.000000000

       -0.082732159   -0.202899511   -0.027143850   -0.067560693

 Noninvariant MP2-R12/B   correlation energy =   -0.270460205

  IJ    V(IJ)       U(IJ)       C(IJ)       V(IJ)       U(IJ)       C(IJ)   

   1  0.3526E-02 -0.2881E-02 -0.1224E+01  0.0000E+00  0.0000E+00  0.0000E+00
   2  0.1104E-01 -0.8241E-02 -0.1340E+01  0.6365E-02 -0.8509E-02 -0.7480E+00
   3  0.9285E-02 -0.7085E-02 -0.1311E+01  0.0000E+00  0.0000E+00  0.0000E+00
   4  0.1104E-01 -0.8241E-02 -0.1340E+01  0.6365E-02 -0.8509E-02 -0.7480E+00
   5  0.8753E-02 -0.6577E-02 -0.1331E+01  0.1080E-01 -0.1338E-01 -0.8068E+00
   6  0.9285E-02 -0.7085E-02 -0.1311E+01  0.0000E+00  0.0000E+00  0.0000E+00
   7  0.1104E-01 -0.8241E-02 -0.1340E+01  0.6365E-02 -0.8509E-02 -0.7480E+00
   8  0.8753E-02 -0.6577E-02 -0.1331E+01  0.1080E-01 -0.1338E-01 -0.8068E+00
   9  0.8753E-02 -0.6577E-02 -0.1331E+01  0.1080E-01 -0.1338E-01 -0.8068E+00
  10  0.9285E-02 -0.7085E-02 -0.1311E+01  0.0000E+00  0.0000E+00  0.0000E+00

 SECOND-ORDER R12/B PAIR ENERGIES:

   1   -0.005817294   -0.010523005    0.000000000    0.000000000     3.54977         4.28705    
   2   -0.007360334   -0.022176795   -0.003301564   -0.008062264     3.15900         3.89628    
   3   -0.009260252   -0.021482801    0.000000000    0.000000000     2.76823         3.50551    
   4   -0.007360334   -0.022176795   -0.003301564   -0.008062264     3.15900         3.89628    
   5   -0.009017702   -0.020684039   -0.005746386   -0.014457967     2.76823         3.50551    
   6   -0.009260252   -0.021482801    0.000000000    0.000000000     2.76823         3.50551    
   7   -0.007360334   -0.022176795   -0.003301564   -0.008062264     3.15900         3.89628    
   8   -0.009017702   -0.020684039   -0.005746386   -0.014457967     2.76823         3.50551    
   9   -0.009017702   -0.020684039   -0.005746386   -0.014457967     2.76823         3.50551    
  10   -0.009260252   -0.021482801    0.000000000    0.000000000     2.76823         3.50551    

       -0.082732159   -0.203553909   -0.027143850   -0.067560693

              MP2-R12/B   correlation energy =   -0.271114602


                         +--------------------------------+
                         ! Auxiliary-basis MP2-R12 method !
                         +--------------------------------+


 SECOND-ORDER NONINVARIANT R12/0 PAIR ENERGIES WITH FIXED R12-COEFFICIENTS:

   1   -0.005817294    0.001375007    0.000000000    0.000000000
   2   -0.007360334    0.001929467   -0.003301564   -0.001893294
   3   -0.009260252    0.002258952    0.000000000    0.000000000
   4   -0.007360334    0.001929467   -0.003301564   -0.001893294
   5   -0.009017702    0.000536802   -0.005746386   -0.000536625
   6   -0.009260252    0.002258952    0.000000000    0.000000000
   7   -0.007360334    0.001929467   -0.003301564   -0.001893294
   8   -0.009017702    0.000536802   -0.005746386   -0.000536625
   9   -0.009017702    0.000536802   -0.005746386   -0.000536625
  10   -0.009260252    0.002258952    0.000000000    0.000000000

       -0.082732159    0.015550672   -0.027143850   -0.007289755

 Noninvariant MP2-R12/0   correlation energy =    0.008260916

  IJ    V(IJ)       U(IJ)       C(IJ)       V(IJ)       U(IJ)       C(IJ)   

   1  0.2770E-02 -0.1652E-02  0.1000E+01  0.0000E+00  0.0000E+00  0.0000E+00  0.5885E+01  0.0000E+00
   2  0.3634E-02 -0.2022E-02  0.1000E+01  0.1052E-02 -0.1423E-02  0.5000E+00  0.5634E+01  0.7289E+01
   3  0.4495E-02 -0.2529E-02  0.1000E+01  0.0000E+00  0.0000E+00  0.0000E+00  0.3413E+01  0.0000E+00
   4  0.3634E-02 -0.2022E-02  0.1000E+01  0.1052E-02 -0.1423E-02  0.5000E+00  0.5634E+01  0.7289E+01
   5  0.3724E-02 -0.2107E-02  0.1000E+01  0.4220E-02 -0.3960E-02  0.5000E+00  0.4152E+01  0.3747E+01
   6  0.4495E-02 -0.2529E-02  0.1000E+01  0.0000E+00  0.0000E+00  0.0000E+00  0.3413E+01  0.0000E+00
   7  0.3634E-02 -0.2022E-02  0.1000E+01  0.1052E-02 -0.1423E-02  0.5000E+00  0.5634E+01  0.7289E+01
   8  0.3724E-02 -0.2107E-02  0.1000E+01  0.4220E-02 -0.3960E-02  0.5000E+00  0.4152E+01  0.3747E+01
   9  0.3724E-02 -0.2107E-02  0.1000E+01  0.4220E-02 -0.3960E-02  0.5000E+00  0.4152E+01  0.3747E+01
  10  0.4495E-02 -0.2529E-02  0.1000E+01  0.0000E+00  0.0000E+00  0.0000E+00  0.3413E+01  0.0000E+00

 SECOND-ORDER NONINVARIANT R12/A PAIR ENERGIES:

   1   -0.005817294   -0.010460752    0.000000000    0.000000000
   2   -0.007360334   -0.013889340   -0.003301564   -0.004079811
   3   -0.009260252   -0.017251655    0.000000000    0.000000000
   4   -0.007360334   -0.013889340   -0.003301564   -0.004079811
   5   -0.009017702   -0.015599676   -0.005746386   -0.010242122
   6   -0.009260252   -0.017251655    0.000000000    0.000000000
   7   -0.007360334   -0.013889340   -0.003301564   -0.004079811
   8   -0.009017702   -0.015599676   -0.005746386   -0.010242122
   9   -0.009017702   -0.015599676   -0.005746386   -0.010242122
  10   -0.009260252   -0.017251655    0.000000000    0.000000000

       -0.082732159   -0.150682768   -0.027143850   -0.042965799

 Noninvariant MP2-R12/A   correlation energy =   -0.193648567

  IJ    V(IJ)       U(IJ)       C(IJ)       V(IJ)       U(IJ)       C(IJ)   

   1  0.2770E-02 -0.1652E-02 -0.1676E+01  0.0000E+00  0.0000E+00  0.0000E+00  0.5885E+01  0.0000E+00
   2  0.3634E-02 -0.2022E-02 -0.1797E+01  0.1052E-02 -0.1423E-02 -0.7395E+00  0.5634E+01  0.7289E+01
   3  0.4495E-02 -0.2529E-02 -0.1778E+01  0.0000E+00  0.0000E+00  0.0000E+00  0.3413E+01  0.0000E+00
   4  0.3634E-02 -0.2022E-02 -0.1797E+01  0.1052E-02 -0.1423E-02 -0.7395E+00  0.5634E+01  0.7289E+01
   5  0.3724E-02 -0.2107E-02 -0.1768E+01  0.4220E-02 -0.3960E-02 -0.1065E+01  0.4152E+01  0.3747E+01
   6  0.4495E-02 -0.2529E-02 -0.1778E+01  0.0000E+00  0.0000E+00  0.0000E+00  0.3413E+01  0.0000E+00
   7  0.3634E-02 -0.2022E-02 -0.1797E+01  0.1052E-02 -0.1423E-02 -0.7395E+00  0.5634E+01  0.7289E+01
   8  0.3724E-02 -0.2107E-02 -0.1768E+01  0.4220E-02 -0.3960E-02 -0.1065E+01  0.4152E+01  0.3747E+01
   9  0.3724E-02 -0.2107E-02 -0.1768E+01  0.4220E-02 -0.3960E-02 -0.1065E+01  0.4152E+01  0.3747E+01
  10  0.4495E-02 -0.2529E-02 -0.1778E+01  0.0000E+00  0.0000E+00  0.0000E+00  0.3413E+01  0.0000E+00

 SECOND-ORDER R12/A PAIR ENERGIES:

   1   -0.005817294   -0.011667157    0.000000000    0.000000000     3.25143         3.74656    
   2   -0.007360334   -0.013936290   -0.003301564   -0.004079811     3.25143         3.74656    
   3   -0.009260252   -0.017331631    0.000000000    0.000000000     3.25143         3.74656    
   4   -0.007360334   -0.013936290   -0.003301564   -0.004079811     3.25143         3.74656    
   5   -0.009017702   -0.015602801   -0.005746386   -0.010242122     3.25143         3.74656    
   6   -0.009260252   -0.017331631    0.000000000    0.000000000     3.25143         3.74656    
   7   -0.007360334   -0.013936290   -0.003301564   -0.004079811     3.25143         3.74656    
   8   -0.009017702   -0.015602801   -0.005746386   -0.010242122     3.25143         3.74656    
   9   -0.009017702   -0.015602801   -0.005746386   -0.010242122     3.25143         3.74656    
  10   -0.009260252   -0.017331631    0.000000000    0.000000000     3.25143         3.74656    

       -0.082732159   -0.152279323   -0.027143850   -0.042965799

              MP2-R12/A   correlation energy =   -0.195245122

 SECOND-ORDER R12/A' PAIR ENERGIES:

   1   -0.005817294   -0.010956606    0.000000000    0.000000000     4.03296         4.52809    
   2   -0.007360334   -0.013909666   -0.003301564   -0.004079811     3.64219         4.13733    
   3   -0.009260252   -0.017321389    0.000000000    0.000000000     3.25143         3.74656    
   4   -0.007360334   -0.013909666   -0.003301564   -0.004079811     3.64219         4.13733    
   5   -0.009017702   -0.015615988   -0.005746386   -0.010242122     3.25143         3.74656    
   6   -0.009260252   -0.017321389    0.000000000    0.000000000     3.25143         3.74656    
   7   -0.007360334   -0.013909666   -0.003301564   -0.004079811     3.64219         4.13733    
   8   -0.009017702   -0.015615988   -0.005746386   -0.010242122     3.25143         3.74656    
   9   -0.009017702   -0.015615988   -0.005746386   -0.010242122     3.25143         3.74656    
  10   -0.009260252   -0.017321389    0.000000000    0.000000000     3.25143         3.74656    

       -0.082732159   -0.151497733   -0.027143850   -0.042965799

              MP2-R12/A'  correlation energy =   -0.194463532

 SECOND-ORDER NONINVARIANT R12/B PAIR ENERGIES:

   1   -0.005817294   -0.009438592    0.000000000    0.000000000
   2   -0.007360334   -0.012527619   -0.003301564   -0.003940781
   3   -0.009260252   -0.015030246    0.000000000    0.000000000
   4   -0.007360334   -0.012527619   -0.003301564   -0.003940781
   5   -0.009017702   -0.013973786   -0.005746386   -0.009001354
   6   -0.009260252   -0.015030246    0.000000000    0.000000000
   7   -0.007360334   -0.012527619   -0.003301564   -0.003940781
   8   -0.009017702   -0.013973786   -0.005746386   -0.009001354
   9   -0.009017702   -0.013973786   -0.005746386   -0.009001354
  10   -0.009260252   -0.015030246    0.000000000    0.000000000

       -0.082732159   -0.134033546   -0.027143850   -0.038826406

 Noninvariant MP2-R12/B   correlation energy =   -0.172859952

  IJ    V(IJ)       U(IJ)       C(IJ)       V(IJ)       U(IJ)       C(IJ)   

   1  0.2770E-02 -0.2119E-02 -0.1307E+01  0.0000E+00  0.0000E+00  0.0000E+00
   2  0.3634E-02 -0.2555E-02 -0.1422E+01  0.1052E-02 -0.1733E-02 -0.6074E+00
   3  0.4495E-02 -0.3502E-02 -0.1284E+01  0.0000E+00  0.0000E+00  0.0000E+00
   4  0.3634E-02 -0.2555E-02 -0.1422E+01  0.1052E-02 -0.1733E-02 -0.6074E+00
   5  0.3724E-02 -0.2798E-02 -0.1331E+01  0.4220E-02 -0.5470E-02 -0.7714E+00
   6  0.4495E-02 -0.3502E-02 -0.1284E+01  0.0000E+00  0.0000E+00  0.0000E+00
   7  0.3634E-02 -0.2555E-02 -0.1422E+01  0.1052E-02 -0.1733E-02 -0.6074E+00
   8  0.3724E-02 -0.2798E-02 -0.1331E+01  0.4220E-02 -0.5470E-02 -0.7714E+00
   9  0.3724E-02 -0.2798E-02 -0.1331E+01  0.4220E-02 -0.5470E-02 -0.7714E+00
  10  0.4495E-02 -0.3502E-02 -0.1284E+01  0.0000E+00  0.0000E+00  0.0000E+00

 SECOND-ORDER R12/B PAIR ENERGIES:

   1   -0.005817294   -0.009740034    0.000000000    0.000000000     5.33705         5.95625    
   2   -0.007360334   -0.012535252   -0.003301564   -0.003940781     4.94628         5.56548    
   3   -0.009260252   -0.015080054    0.000000000    0.000000000     4.55551         5.17471    
   4   -0.007360334   -0.012535252   -0.003301564   -0.003940781     4.94628         5.56548    
   5   -0.009017702   -0.013987064   -0.005746386   -0.009001354     4.55551         5.17471    
   6   -0.009260252   -0.015080054    0.000000000    0.000000000     4.55551         5.17471    
   7   -0.007360334   -0.012535252   -0.003301564   -0.003940781     4.94628         5.56548    
   8   -0.009017702   -0.013987064   -0.005746386   -0.009001354     4.55551         5.17471    
   9   -0.009017702   -0.013987064   -0.005746386   -0.009001354     4.55551         5.17471    
  10   -0.009260252   -0.015080054    0.000000000    0.000000000     4.55551         5.17471    

       -0.082732159   -0.134547145   -0.027143850   -0.038826406

              MP2-R12/B   correlation energy =   -0.173373550


                 +-----------------------------------------------+
                 ! MP2-R12 ansatz := (1 - O1 - O2 + O1*O2) * R12 !
                 +-----------------------------------------------+



                         +--------------------------------+
                         ! Auxiliary-basis MP2-R12 method !
                         +--------------------------------+


 SECOND-ORDER R12/0 PAIR ENERGIES:

   1   -0.005817294    0.003013762    0.000000000    0.000000000
   2   -0.007360334    0.008693806   -0.003301564   -0.000045544
   3   -0.009260252    0.005444387    0.000000000    0.000000000
   4   -0.007360334    0.008693806   -0.003301564   -0.000045544
   5   -0.009017702    0.005216667   -0.005746386    0.005092403
   6   -0.009260252    0.005444387    0.000000000    0.000000000
   7   -0.007360334    0.008693806   -0.003301564   -0.000045544
   8   -0.009017702    0.005216667   -0.005746386    0.005092403
   9   -0.009017702    0.005216667   -0.005746386    0.005092403
  10   -0.009260252    0.005444387    0.000000000    0.000000000

       -0.082732159    0.061078341   -0.027143850    0.015140576

 Noninvariant MP2-R12/0   correlation energy =    0.076218917

  IJ    V(IJ)       U(IJ)       C(IJ)       V(IJ)       U(IJ)       C(IJ)   

   1  0.3412E-02 -0.2007E-02  0.1000E+01  0.0000E+00  0.0000E+00  0.0000E+00  0.2100E+01  0.0000E+00
   2  0.6315E-02 -0.3424E-02  0.1000E+01  0.2566E-02 -0.2759E-02  0.5000E+00  0.2271E+01  0.2034E+01
   3  0.5738E-02 -0.3229E-02  0.1000E+01  0.0000E+00  0.0000E+00  0.0000E+00  0.1524E+01  0.0000E+00
   4  0.6315E-02 -0.3424E-02  0.1000E+01  0.2566E-02 -0.2759E-02  0.5000E+00  0.2271E+01  0.2034E+01
   5  0.5607E-02 -0.3020E-02  0.1000E+01  0.9015E-02 -0.7295E-02  0.5000E+00  0.1412E+01  0.1761E+01
   6  0.5738E-02 -0.3229E-02  0.1000E+01  0.0000E+00  0.0000E+00  0.0000E+00  0.1524E+01  0.0000E+00
   7  0.6315E-02 -0.3424E-02  0.1000E+01  0.2566E-02 -0.2759E-02  0.5000E+00  0.2271E+01  0.2034E+01
   8  0.5607E-02 -0.3020E-02  0.1000E+01  0.9015E-02 -0.7295E-02  0.5000E+00  0.1412E+01  0.1761E+01
   9  0.5607E-02 -0.3020E-02  0.1000E+01  0.9015E-02 -0.7295E-02  0.5000E+00  0.1412E+01  0.1761E+01
  10  0.5738E-02 -0.3229E-02  0.1000E+01  0.0000E+00  0.0000E+00  0.0000E+00  0.1524E+01  0.0000E+00

 SECOND-ORDER NONINVARIANT R12/A   PAIR ENERGIES:

   1   -0.005817294   -0.011618420    0.000000000    0.000000000
   2   -0.007360334   -0.019009865   -0.003301564   -0.005688311
   3   -0.009260252   -0.019454961    0.000000000    0.000000000
   4   -0.007360334   -0.019009865   -0.003301564   -0.005688311
   5   -0.009017702   -0.019428628   -0.005746386   -0.016886579
   6   -0.009260252   -0.019454961    0.000000000    0.000000000
   7   -0.007360334   -0.019009865   -0.003301564   -0.005688311
   8   -0.009017702   -0.019428628   -0.005746386   -0.016886579
   9   -0.009017702   -0.019428628   -0.005746386   -0.016886579
  10   -0.009260252   -0.019454961    0.000000000    0.000000000

       -0.082732159   -0.185298780   -0.027143850   -0.067724670

 Noninvariant MP2-R12/A   correlation energy =   -0.253023450

  IJ    V(IJ)       U(IJ)       C(IJ)       V(IJ)       U(IJ)       C(IJ)   

   1  0.3412E-02 -0.2007E-02 -0.1700E+01  0.0000E+00  0.0000E+00  0.0000E+00  0.2100E+01  0.0000E+00
   2  0.6315E-02 -0.3424E-02 -0.1845E+01  0.2566E-02 -0.2759E-02 -0.9301E+00  0.2271E+01  0.2034E+01
   3  0.5738E-02 -0.3229E-02 -0.1777E+01  0.0000E+00  0.0000E+00  0.0000E+00  0.1524E+01  0.0000E+00
   4  0.6315E-02 -0.3424E-02 -0.1845E+01  0.2566E-02 -0.2759E-02 -0.9301E+00  0.2271E+01  0.2034E+01
   5  0.5607E-02 -0.3020E-02 -0.1857E+01  0.9015E-02 -0.7295E-02 -0.1236E+01  0.1412E+01  0.1761E+01
   6  0.5738E-02 -0.3229E-02 -0.1777E+01  0.0000E+00  0.0000E+00  0.0000E+00  0.1524E+01  0.0000E+00
   7  0.6315E-02 -0.3424E-02 -0.1845E+01  0.2566E-02 -0.2759E-02 -0.9301E+00  0.2271E+01  0.2034E+01
   8  0.5607E-02 -0.3020E-02 -0.1857E+01  0.9015E-02 -0.7295E-02 -0.1236E+01  0.1412E+01  0.1761E+01
   9  0.5607E-02 -0.3020E-02 -0.1857E+01  0.9015E-02 -0.7295E-02 -0.1236E+01  0.1412E+01  0.1761E+01
  10  0.5738E-02 -0.3229E-02 -0.1777E+01  0.0000E+00  0.0000E+00  0.0000E+00  0.1524E+01  0.0000E+00

 SECOND-ORDER R12/A   PAIR ENERGIES:

   1   -0.005817294   -0.013016756    0.000000000    0.000000000     1.25810         1.75904    
   2   -0.007360334   -0.019149155   -0.003301564   -0.005688311     1.26096         1.75997    
   3   -0.009260252   -0.019605658    0.000000000    0.000000000     1.26486         1.76114    
   4   -0.007360334   -0.019149155   -0.003301564   -0.005688311     1.26096         1.75997    
   5   -0.009017702   -0.019436392   -0.005746386   -0.016886579     1.26486         1.76114    
   6   -0.009260252   -0.019605658    0.000000000    0.000000000     1.26486         1.76114    
   7   -0.007360334   -0.019149155   -0.003301564   -0.005688311     1.26096         1.75997    
   8   -0.009017702   -0.019436392   -0.005746386   -0.016886579     1.26486         1.76114    
   9   -0.009017702   -0.019436392   -0.005746386   -0.016886579     1.26486         1.76114    
  10   -0.009260252   -0.019605658    0.000000000    0.000000000     1.26486         1.76114    

       -0.082732159   -0.187590372   -0.027143850   -0.067724670

              MP2-R12/A   correlation energy =   -0.255315041

 SECOND-ORDER R12/A'  PAIR ENERGIES:

   1   -0.005817294   -0.012155475    0.000000000    0.000000000     1.69988         2.20195    
   2   -0.007360334   -0.019070972   -0.003301564   -0.005688311     1.53656         2.03357    
   3   -0.009260252   -0.019593712    0.000000000    0.000000000     1.37163         1.76114    
   4   -0.007360334   -0.019070972   -0.003301564   -0.005688311     1.53656         2.03357    
   5   -0.009017702   -0.019469924   -0.005746386   -0.016886579     1.37163         1.76114    
   6   -0.009260252   -0.019593712    0.000000000    0.000000000     1.37163         1.76114    
   7   -0.007360334   -0.019070972   -0.003301564   -0.005688311     1.53656         2.03357    
   8   -0.009017702   -0.019469924   -0.005746386   -0.016886579     1.37163         1.76114    
   9   -0.009017702   -0.019469924   -0.005746386   -0.016886579     1.37163         1.76114    
  10   -0.009260252   -0.019593712    0.000000000    0.000000000     1.37163         1.76114    

       -0.082732159   -0.186559297   -0.027143850   -0.067724670

              MP2-R12/A'  correlation energy =   -0.254283967

 SECOND-ORDER NONINVARIANT R12/A*  PAIR ENERGIES:

   1   -0.005817294   -0.011413468    0.000000000    0.000000000
   2   -0.007360334   -0.018720775   -0.003301564   -0.005656332
   3   -0.009260252   -0.018855227    0.000000000    0.000000000
   4   -0.007360334   -0.018720775   -0.003301564   -0.005656332
   5   -0.009017702   -0.018835198   -0.005746386   -0.016801421
   6   -0.009260252   -0.018855227    0.000000000    0.000000000
   7   -0.007360334   -0.018720775   -0.003301564   -0.005656332
   8   -0.009017702   -0.018835198   -0.005746386   -0.016801421
   9   -0.009017702   -0.018835198   -0.005746386   -0.016801421
  10   -0.009260252   -0.018855227    0.000000000    0.000000000

       -0.082732159   -0.180647066   -0.027143850   -0.067373260

 Noninvariant MP2-R12/A*  correlation energy =   -0.248020326

  IJ    V(IJ)       U(IJ)       C(IJ)       V(IJ)       U(IJ)       C(IJ)   

   1  0.3326E-02 -0.1977E-02 -0.1682E+01  0.0000E+00  0.0000E+00  0.0000E+00  0.2069E+01  0.0000E+00
   2  0.6188E-02 -0.3370E-02 -0.1836E+01  0.2530E-02 -0.2719E-02 -0.9306E+00  0.2236E+01  0.2004E+01
   3  0.5498E-02 -0.3150E-02 -0.1745E+01  0.0000E+00  0.0000E+00  0.0000E+00  0.1487E+01  0.0000E+00
   4  0.6188E-02 -0.3370E-02 -0.1836E+01  0.2530E-02 -0.2719E-02 -0.9306E+00  0.2236E+01  0.2004E+01
   5  0.5375E-02 -0.2942E-02 -0.1827E+01  0.8949E-02 -0.7244E-02 -0.1235E+01  0.1375E+01  0.1749E+01
   6  0.5498E-02 -0.3150E-02 -0.1745E+01  0.0000E+00  0.0000E+00  0.0000E+00  0.1487E+01  0.0000E+00
   7  0.6188E-02 -0.3370E-02 -0.1836E+01  0.2530E-02 -0.2719E-02 -0.9306E+00  0.2236E+01  0.2004E+01
   8  0.5375E-02 -0.2942E-02 -0.1827E+01  0.8949E-02 -0.7244E-02 -0.1235E+01  0.1375E+01  0.1749E+01
   9  0.5375E-02 -0.2942E-02 -0.1827E+01  0.8949E-02 -0.7244E-02 -0.1235E+01  0.1375E+01  0.1749E+01
  10  0.5498E-02 -0.3150E-02 -0.1745E+01  0.0000E+00  0.0000E+00  0.0000E+00  0.1487E+01  0.0000E+00

 SECOND-ORDER R12/A*  PAIR ENERGIES:

   1   -0.005817294   -0.012663093    0.000000000    0.000000000     1.23034         1.74875    
   2   -0.007360334   -0.018845474   -0.003301564   -0.005656332     1.23034         1.74875    
   3   -0.009260252   -0.018946607    0.000000000    0.000000000     1.23034         1.74875    
   4   -0.007360334   -0.018845474   -0.003301564   -0.005656332     1.23034         1.74875    
   5   -0.009017702   -0.018849952   -0.005746386   -0.016801421     1.23034         1.74875    
   6   -0.009260252   -0.018946607    0.000000000    0.000000000     1.23034         1.74875    
   7   -0.007360334   -0.018845474   -0.003301564   -0.005656332     1.23034         1.74875    
   8   -0.009017702   -0.018849952   -0.005746386   -0.016801421     1.23034         1.74875    
   9   -0.009017702   -0.018849952   -0.005746386   -0.016801421     1.23034         1.74875    
  10   -0.009260252   -0.018946607    0.000000000    0.000000000     1.23034         1.74875    

       -0.082732159   -0.182589194   -0.027143850   -0.067373260

              MP2-R12/A*  correlation energy =   -0.249962454

 SECOND-ORDER R12/A*' PAIR ENERGIES:

   1   -0.005817294   -0.011897118    0.000000000    0.000000000     1.64462         2.17097    
   2   -0.007360334   -0.018773256   -0.003301564   -0.005656332     1.48640         2.00413    
   3   -0.009260252   -0.018981716    0.000000000    0.000000000     1.32761         1.74875    
   4   -0.007360334   -0.018773256   -0.003301564   -0.005656332     1.48640         2.00413    
   5   -0.009017702   -0.018889952   -0.005746386   -0.016801421     1.32761         1.74875    
   6   -0.009260252   -0.018981716    0.000000000    0.000000000     1.32761         1.74875    
   7   -0.007360334   -0.018773256   -0.003301564   -0.005656332     1.48640         2.00413    
   8   -0.009017702   -0.018889952   -0.005746386   -0.016801421     1.32761         1.74875    
   9   -0.009017702   -0.018889952   -0.005746386   -0.016801421     1.32761         1.74875    
  10   -0.009260252   -0.018981716    0.000000000    0.000000000     1.32761         1.74875    

       -0.082732159   -0.181831893   -0.027143850   -0.067373260

              MP2-R12/A*' correlation energy =   -0.249205153

 SECOND-ORDER NONINVARIANT R12/B   PAIR ENERGIES:

   1   -0.005817294   -0.010181098    0.000000000    0.000000000
   2   -0.007360334   -0.015934934   -0.003301564   -0.005063480
   3   -0.009260252   -0.016268902    0.000000000    0.000000000
   4   -0.007360334   -0.015934934   -0.003301564   -0.005063480
   5   -0.009017702   -0.016188522   -0.005746386   -0.012897422
   6   -0.009260252   -0.016268902    0.000000000    0.000000000
   7   -0.007360334   -0.015934934   -0.003301564   -0.005063480
   8   -0.009017702   -0.016188522   -0.005746386   -0.012897422
   9   -0.009017702   -0.016188522   -0.005746386   -0.012897422
  10   -0.009260252   -0.016268902    0.000000000    0.000000000

       -0.082732159   -0.155358175   -0.027143850   -0.053882705

 Noninvariant MP2-R12/B   correlation energy =   -0.209240880

  IJ    V(IJ)       U(IJ)       C(IJ)       V(IJ)       U(IJ)       C(IJ)   

   1  0.3412E-02 -0.2668E-02 -0.1279E+01  0.0000E+00  0.0000E+00  0.0000E+00  0.2792E+01  0.0000E+00
   2  0.6315E-02 -0.4651E-02 -0.1358E+01  0.2566E-02 -0.3738E-02 -0.6866E+00  0.3085E+01  0.2755E+01
   3  0.5738E-02 -0.4697E-02 -0.1222E+01  0.0000E+00  0.0000E+00  0.0000E+00  0.2217E+01  0.0000E+00
   4  0.6315E-02 -0.4651E-02 -0.1358E+01  0.2566E-02 -0.3738E-02 -0.6866E+00  0.3085E+01  0.2755E+01
   5  0.5607E-02 -0.4385E-02 -0.1279E+01  0.9015E-02 -0.1136E-01 -0.7932E+00  0.2049E+01  0.2744E+01
   6  0.5738E-02 -0.4697E-02 -0.1222E+01  0.0000E+00  0.0000E+00  0.0000E+00  0.2217E+01  0.0000E+00
   7  0.6315E-02 -0.4651E-02 -0.1358E+01  0.2566E-02 -0.3738E-02 -0.6866E+00  0.3085E+01  0.2755E+01
   8  0.5607E-02 -0.4385E-02 -0.1279E+01  0.9015E-02 -0.1136E-01 -0.7932E+00  0.2049E+01  0.2744E+01
   9  0.5607E-02 -0.4385E-02 -0.1279E+01  0.9015E-02 -0.1136E-01 -0.7932E+00  0.2049E+01  0.2744E+01
  10  0.5738E-02 -0.4697E-02 -0.1222E+01  0.0000E+00  0.0000E+00  0.0000E+00  0.2217E+01  0.0000E+00

 SECOND-ORDER R12/B   PAIR ENERGIES:

   1   -0.005817294   -0.010487364    0.000000000    0.000000000     2.28177         2.92248    
   2   -0.007360334   -0.015960992   -0.003301564   -0.005063480     2.12855         2.75473    
   3   -0.009260252   -0.016357186    0.000000000    0.000000000     1.97458         2.58698    
   4   -0.007360334   -0.015960992   -0.003301564   -0.005063480     2.12855         2.75473    
   5   -0.009017702   -0.016219043   -0.005746386   -0.012897422     1.97458         2.58698    
   6   -0.009260252   -0.016357186    0.000000000    0.000000000     1.97458         2.58698    
   7   -0.007360334   -0.015960992   -0.003301564   -0.005063480     2.12855         2.75473    
   8   -0.009017702   -0.016219043   -0.005746386   -0.012897422     1.97458         2.58698    
   9   -0.009017702   -0.016219043   -0.005746386   -0.012897422     1.97458         2.58698    
  10   -0.009260252   -0.016357186    0.000000000    0.000000000     1.97458         2.58698    

       -0.082732159   -0.156099028   -0.027143850   -0.053882705

              MP2-R12/B   correlation energy =   -0.209981733

 SECOND-ORDER NONINVARIANT R12/B*  PAIR ENERGIES:

   1   -0.005817294   -0.010060834    0.000000000    0.000000000
   2   -0.007360334   -0.015758409   -0.003301564   -0.005053085
   3   -0.009260252   -0.015912838    0.000000000    0.000000000
   4   -0.007360334   -0.015758409   -0.003301564   -0.005053085
   5   -0.009017702   -0.015838774   -0.005746386   -0.012853578
   6   -0.009260252   -0.015912838    0.000000000    0.000000000
   7   -0.007360334   -0.015758409   -0.003301564   -0.005053085
   8   -0.009017702   -0.015838774   -0.005746386   -0.012853578
   9   -0.009017702   -0.015838774   -0.005746386   -0.012853578
  10   -0.009260252   -0.015912838    0.000000000    0.000000000

       -0.082732159   -0.152590897   -0.027143850   -0.053719988

 Noninvariant MP2-R12/B*  correlation energy =   -0.206310886

  IJ    V(IJ)       U(IJ)       C(IJ)       V(IJ)       U(IJ)       C(IJ)   

   1  0.3326E-02 -0.2607E-02 -0.1276E+01  0.0000E+00  0.0000E+00  0.0000E+00  0.2728E+01  0.0000E+00
   2  0.6188E-02 -0.4559E-02 -0.1357E+01  0.2530E-02 -0.3656E-02 -0.6922E+00  0.3024E+01  0.2694E+01
   3  0.5498E-02 -0.4543E-02 -0.1210E+01  0.0000E+00  0.0000E+00  0.0000E+00  0.2144E+01  0.0000E+00
   4  0.6188E-02 -0.4559E-02 -0.1357E+01  0.2530E-02 -0.3656E-02 -0.6922E+00  0.3024E+01  0.2694E+01
   5  0.5375E-02 -0.4235E-02 -0.1269E+01  0.8949E-02 -0.1127E-01 -0.7942E+00  0.1979E+01  0.2720E+01
   6  0.5498E-02 -0.4543E-02 -0.1210E+01  0.0000E+00  0.0000E+00  0.0000E+00  0.2144E+01  0.0000E+00
   7  0.6188E-02 -0.4559E-02 -0.1357E+01  0.2530E-02 -0.3656E-02 -0.6922E+00  0.3024E+01  0.2694E+01
   8  0.5375E-02 -0.4235E-02 -0.1269E+01  0.8949E-02 -0.1127E-01 -0.7942E+00  0.1979E+01  0.2720E+01
   9  0.5375E-02 -0.4235E-02 -0.1269E+01  0.8949E-02 -0.1127E-01 -0.7942E+00  0.1979E+01  0.2720E+01
  10  0.5498E-02 -0.4543E-02 -0.1210E+01  0.0000E+00  0.0000E+00  0.0000E+00  0.2144E+01  0.0000E+00

 SECOND-ORDER R12/B*  PAIR ENERGIES:

   1   -0.005817294   -0.010330652    0.000000000    0.000000000     2.18414         2.86122    
   2   -0.007360334   -0.015779181   -0.003301564   -0.005053085     2.03049         2.69438    
   3   -0.009260252   -0.015998863    0.000000000    0.000000000     1.87579         2.52753    
   4   -0.007360334   -0.015779181   -0.003301564   -0.005053085     2.03049         2.69438    
   5   -0.009017702   -0.015876405   -0.005746386   -0.012853578     1.87579         2.52753    
   6   -0.009260252   -0.015998863    0.000000000    0.000000000     1.87579         2.52753    
   7   -0.007360334   -0.015779181   -0.003301564   -0.005053085     2.03049         2.69438    
   8   -0.009017702   -0.015876405   -0.005746386   -0.012853578     1.87579         2.52753    
   9   -0.009017702   -0.015876405   -0.005746386   -0.012853578     1.87579         2.52753    
  10   -0.009260252   -0.015998863    0.000000000    0.000000000     1.87579         2.52753    

       -0.082732159   -0.153293998   -0.027143850   -0.053719988

              MP2-R12/B*  correlation energy =   -0.207013987


          +-------------------------------------------------------------+
          ! MP2-R12 ansatz := (1 - V1*V2) * (1 - O1 - O2 + O1*O2) * R12 !
          +-------------------------------------------------------------+



                         +--------------------------------+
                         ! Auxiliary-basis MP2-R12 method !
                         +--------------------------------+


 SECOND-ORDER NONINVARIANT R12/B   PAIR ENERGIES:

   1   -0.005817294   -0.010181098    0.000000000    0.000000000
   2   -0.007360334   -0.015934934   -0.003301564   -0.005063480
   3   -0.009260252   -0.016268902    0.000000000    0.000000000
   4   -0.007360334   -0.015934934   -0.003301564   -0.005063480
   5   -0.009017702   -0.016188522   -0.005746386   -0.012897422
   6   -0.009260252   -0.016268902    0.000000000    0.000000000
   7   -0.007360334   -0.015934934   -0.003301564   -0.005063480
   8   -0.009017702   -0.016188522   -0.005746386   -0.012897422
   9   -0.009017702   -0.016188522   -0.005746386   -0.012897422
  10   -0.009260252   -0.016268902    0.000000000    0.000000000

       -0.082732159   -0.155358175   -0.027143850   -0.053882705

 Noninvariant MP2-R12/B   correlation energy =   -0.209240880

  IJ    V(IJ)       U(IJ)       C(IJ)       V(IJ)       U(IJ)       C(IJ)   

   1  0.3412E-02 -0.2668E-02 -0.1279E+01  0.0000E+00  0.0000E+00  0.0000E+00  0.7317E+01  0.0000E+00
   2  0.6315E-02 -0.4651E-02 -0.1358E+01  0.2566E-02 -0.3738E-02 -0.6866E+00  0.5908E+01  0.6452E+01
   3  0.5738E-02 -0.4697E-02 -0.1222E+01  0.0000E+00  0.0000E+00  0.0000E+00  0.4576E+01  0.0000E+00
   4  0.6315E-02 -0.4651E-02 -0.1358E+01  0.2566E-02 -0.3738E-02 -0.6866E+00  0.5908E+01  0.6452E+01
   5  0.5607E-02 -0.4385E-02 -0.1279E+01  0.9015E-02 -0.1136E-01 -0.7932E+00  0.4716E+01  0.3829E+01
   6  0.5738E-02 -0.4697E-02 -0.1222E+01  0.0000E+00  0.0000E+00  0.0000E+00  0.4576E+01  0.0000E+00
   7  0.6315E-02 -0.4651E-02 -0.1358E+01  0.2566E-02 -0.3738E-02 -0.6866E+00  0.5908E+01  0.6452E+01
   8  0.5607E-02 -0.4385E-02 -0.1279E+01  0.9015E-02 -0.1136E-01 -0.7932E+00  0.4716E+01  0.3829E+01
   9  0.5607E-02 -0.4385E-02 -0.1279E+01  0.9015E-02 -0.1136E-01 -0.7932E+00  0.4716E+01  0.3829E+01
  10  0.5738E-02 -0.4697E-02 -0.1222E+01  0.0000E+00  0.0000E+00  0.0000E+00  0.4576E+01  0.0000E+00

 SECOND-ORDER R12/B   PAIR ENERGIES:

   1   -0.005817294   -0.010487364    0.000000000    0.000000000     4.93016         4.61086    
   2   -0.007360334   -0.015960992   -0.003301564   -0.005063480     4.53938         4.21999    
   3   -0.009260252   -0.016357186    0.000000000    0.000000000     4.14859         3.82908    
   4   -0.007360334   -0.015960992   -0.003301564   -0.005063480     4.53938         4.21999    
   5   -0.009017702   -0.016219043   -0.005746386   -0.012897422     4.14859         3.82908    
   6   -0.009260252   -0.016357186    0.000000000    0.000000000     4.14859         3.82908    
   7   -0.007360334   -0.015960992   -0.003301564   -0.005063480     4.53938         4.21999    
   8   -0.009017702   -0.016219043   -0.005746386   -0.012897422     4.14859         3.82908    
   9   -0.009017702   -0.016219043   -0.005746386   -0.012897422     4.14859         3.82908    
  10   -0.009260252   -0.016357186    0.000000000    0.000000000     4.14859         3.82908    

       -0.082732159   -0.156099028   -0.027143850   -0.053882705

              MP2-R12/B   correlation energy =   -0.209981733
 >>>  Time used in E(R12)     is   0.19 seconds
 Time for MP2-R12 part cpu :   8.5099999999999998     
 Time for MP2-R12 part wall:   8.6240000128746033     

 *******************************************************************

 Ground state energy is target 

 Ecorr =                      0.00000000000000000000

 *******************************************************************

 requested model not yet implemented
  

 *******************************************************************************
 *******************************************************************************
 *                                                                             *
 *                                                                             *
 *                   SUMMARY OF COUPLED CLUSTER CALCULATION                    *
 *                                                                             *
 *                                                                             *
 *******************************************************************************
 *******************************************************************************

  

 *******************************************************************************
 *******************************************************************************
 *                                                                             *
 *                                                                             *
 *                      END OF COUPLED CLUSTER CALCULATION                     *
 *                                                                             *
 *                                                                             *
 *******************************************************************************
 *******************************************************************************


 >>>> CPU and wall time for CC :       8.510       8.624

 
     Date and time (Linux)  : Sun Sep  8 21:00:01 2013
     Host name              : lpqlx131.ups-tlse.fr                    


                      .-------------------------------------.
                      | End of Coupled Cluster Section (CC) |
                      `-------------------------------------'

 >>>> Total CPU  time used in DALTON:   8.89 seconds
 >>>> Total wall time used in DALTON:   9.01 seconds

 
     Date and time (Linux)  : Sun Sep  8 21:00:01 2013
     Host name              : lpqlx131.ups-tlse.fr                    
