

     ************************************************************************
     *************** Dalton - An Electronic Structure Program ***************
     ************************************************************************

    This is output from DALTON (Release Dalton2013 patch 0)
   ----------------------------------------------------------------------------
    NOTE:
     
    Dalton is an experimental code for the evaluation of molecular
    properties using (MC)SCF, DFT, CI, and CC wave functions.
    The authors accept no responsibility for the performance of
    the code or for the correctness of the results.
     
    The code (in whole or part) is provided under a licence and
    is not to be reproduced for further distribution without
    the written permission of the authors or their representatives.
     
    See the home page "http://daltonprogram.org" for further information.
     
    If results obtained with this code are published,
    the appropriate citations would be both of:
     
       K. Aidas, C. Angeli, K. L. Bak, V. Bakken, R. Bast,
       L. Boman, O. Christiansen, R. Cimiraglia, S. Coriani,
       P. Dahle, E. K. Dalskov, U. Ekstroem, T. Enevoldsen,
       J. J. Eriksen, P. Ettenhuber, B. Fernandez, L. Ferrighi,
       H. Fliegl, L. Frediani, K. Hald, A. Halkier, C. Haettig,
       H. Heiberg, T. Helgaker, A. C. Hennum, H. Hettema,
       E. Hjertenaes, S. Hoest, I.-M. Hoeyvik, M. F. Iozzi,
       B. Jansik, H. J. Aa. Jensen, D. Jonsson, P. Joergensen,
       J. Kauczor, S. Kirpekar, T. Kjaergaard, W. Klopper,
       S. Knecht, R. Kobayashi, H. Koch, J. Kongsted, A. Krapp,
       K. Kristensen, A. Ligabue, O. B. Lutnaes, J. I. Melo,
       K. V. Mikkelsen, R. H. Myhre, C. Neiss, C. B. Nielsen,
       P. Norman, J. Olsen, J. M. H. Olsen, A. Osted,
       M. J. Packer, F. Pawlowski, T. B. Pedersen, P. F. Provasi,
       S. Reine, Z. Rinkevicius, T. A. Ruden, K. Ruud, V. Rybkin,
       P. Salek, C. C. M. Samson, A. Sanchez de Meras, T. Saue,
       S. P. A. Sauer, B. Schimmelpfennig, K. Sneskov,
       A. H. Steindal, K. O. Sylvester-Hvid, P. R. Taylor,
       A. M. Teale, E. I. Tellgren, D. P. Tew, A. J. Thorvaldsen,
       L. Thoegersen, O. Vahtras, M. A. Watson, D. J. D. Wilson,
       M. Ziolkowski and H. Agren.
       The Dalton quantum chemistry program system.
       WIREs Comput. Mol. Sci. 2013. doi: 10.1002/wcms.1172
    
    and
    
       Dalton, a Molecular Electronic Structure Program,
       Release DALTON2013.0 (2013), see http://daltonprogram.org
   ----------------------------------------------------------------------------

    Authors in alphabetical order (major contribution(s) in parenthesis):

  Kestutis Aidas,           Vilnius University,           Lithuania   (QM/MM)
  Celestino Angeli,         University of Ferrara,        Italy       (NEVPT2)
  Keld L. Bak,              UNI-C,                        Denmark     (AOSOPPA, non-adiabatic coupling, magnetic properties)
  Vebjoern Bakken,          University of Oslo,           Norway      (DALTON; geometry optimizer, symmetry detection)
  Radovan Bast,             KTH Stockholm                 Sweden      (DALTON installation and execution frameworks)
  Linus Boman,              NTNU,                         Norway      (Cholesky decomposition and subsystems)
  Ove Christiansen,         Aarhus University,            Denmark     (CC module)
  Renzo Cimiraglia,         University of Ferrara,        Italy       (NEVPT2)
  Sonia Coriani,            University of Trieste,        Italy       (CC module, MCD in RESPONS)
  Paal Dahle,               University of Oslo,           Norway      (Parallelization)
  Erik K. Dalskov,          UNI-C,                        Denmark     (SOPPA)
  Thomas Enevoldsen,        Univ. of Southern Denmark,    Denmark     (SOPPA)
  Janus J. Eriksen,         Aarhus University,            Denmark     (PE-MP2/SOPPA, TDA)
  Berta Fernandez,          U. of Santiago de Compostela, Spain       (doublet spin, ESR in RESPONS)
  Lara Ferrighi,            Aarhus University,            Denmark     (PCM Cubic response)
  Heike Fliegl,             University of Oslo,           Norway      (CCSD(R12))
  Luca Frediani,            UiT The Arctic U. of Norway,  Norway      (PCM)
  Bin Gao,                  UiT The Arctic U. of Norway,  Norway      (Gen1Int library)
  Christof Haettig,         Ruhr-University Bochum,       Germany     (CC module)
  Kasper Hald,              Aarhus University,            Denmark     (CC module)
  Asger Halkier,            Aarhus University,            Denmark     (CC module)
  Hanne Heiberg,            University of Oslo,           Norway      (geometry analysis, selected one-electron integrals)
  Trygve Helgaker,          University of Oslo,           Norway      (DALTON; ABACUS, ERI, DFT modules, London, and much more)
  Alf Christian Hennum,     University of Oslo,           Norway      (Parity violation)
  Hinne Hettema,            University of Auckland,       New Zealand (quadratic response in RESPONS; SIRIUS supersymmetry)
  Eirik Hjertenaes,         NTNU,                         Norway      (Cholesky decomposition)
  Maria Francesca Iozzi,    University of Oslo,           Norway      (RPA)
  Brano Jansik              Technical Univ. of Ostrava    Czech Rep.  (DFT cubic response)
  Hans Joergen Aa. Jensen,  Univ. of Southern Denmark,    Denmark     (DALTON; SIRIUS, RESPONS, ABACUS modules, London, and much more)
  Dan Jonsson,              UiT The Arctic U. of Norway,  Norway      (cubic response in RESPONS module)
  Poul Joergensen,          Aarhus University,            Denmark     (RESPONS, ABACUS, and CC modules)
  Joanna Kauczor,           Linkoeping University,        Sweden      (Complex polarization propagator (CPP) module)
  Sheela Kirpekar,          Univ. of Southern Denmark,    Denmark     (Mass-velocity & Darwin integrals)
  Wim Klopper,              KIT Karlsruhe,                Germany     (R12 code in CC, SIRIUS, and ABACUS modules)
  Stefan Knecht,            ETH Zurich,                   Switzerland (Parallel CI and MCSCF)
  Rika Kobayashi,           Australian National Univ.,    Australia   (DIIS in CC, London in MCSCF)
  Henrik Koch,              NTNU,                         Norway      (CC module, Cholesky decomposition)
  Jacob Kongsted,           Univ. of Southern Denmark,    Denmark     (Polarizable embedding, QM/MM)
  Andrea Ligabue,           University of Modena,         Italy       (CTOCD, AOSOPPA)
  Ola B. Lutnaes,           University of Oslo,           Norway      (DFT Hessian)
  Juan I. Melo,             University of Buenos Aires,   Argentina   (LRESC, Relativistic Effects on NMR Shieldings)
  Kurt V. Mikkelsen,        University of Copenhagen,     Denmark     (MC-SCRF and QM/MM)
  Rolf H. Myhre,            NTNU,                         Norway      (Cholesky, subsystems and ECC2)
  Christian Neiss,          Univ. Erlangen-Nuernberg,     Germany     (CCSD(R12))
  Christian B. Nielsen,     University of Copenhagen,     Denmark     (QM/MM)
  Patrick Norman,           Linkoeping University,        Sweden      (Cubic response and complex response in RESPONS)
  Jeppe Olsen,              Aarhus University,            Denmark     (SIRIUS CI/density modules)
  Jogvan Magnus H. Olsen,   Univ. of Southern Denmark,    Denmark     (Polarizable embedding, PE library, QM/MM)
  Anders Osted,             Copenhagen University,        Denmark     (QM/MM)
  Martin J. Packer,         University of Sheffield,      UK          (SOPPA)
  Filip Pawlowski,          Kazimierz Wielki University   Poland      (CC3)
  Thomas B. Pedersen,       University of Oslo,           Norway      (Cholesky decomposition)
  Patricio F. Provasi,      University of Northeastern,   Argentina   (Analysis of coupling constants in localized orbitals)
  Zilvinas Rinkevicius,     KTH Stockholm,                Sweden      (open-shell DFT, ESR)
  Elias Rudberg,            KTH Stockholm,                Sweden      (DFT grid and basis info)
  Torgeir A. Ruden,         University of Oslo,           Norway      (Numerical derivatives in ABACUS)
  Kenneth Ruud,             UiT The Arctic U. of Norway,  Norway      (DALTON; ABACUS magnetic properties and  much more)
  Pawel Salek,              KTH Stockholm,                Sweden      (DALTON; DFT code)
  Claire C. M. Samson       University of Karlsruhe       Germany     (Boys localization, r12 integrals in ERI)
  Alfredo Sanchez de Meras, University of Valencia,       Spain       (CC module, Cholesky decomposition)
  Trond Saue,               Paul Sabatier University,     France      (direct Fock matrix construction)
  Stephan P. A. Sauer,      University of Copenhagen,     Denmark     (SOPPA(CCSD), SOPPA prop., AOSOPPA, vibrational g-factors)
  Bernd Schimmelpfennig,    Forschungszentrum Karlsruhe,  Germany     (AMFI module)
  Kristian Sneskov,         Aarhus University,            Denmark     (QM/MM, PE-CC)
  Arnfinn H. Steindal,      UiT The Arctic U. of Norway,  Norway      (parallel QM/MM)
  K. O. Sylvester-Hvid,     University of Copenhagen,     Denmark     (MC-SCRF)
  Peter R. Taylor,          VLSCI/Univ. of Melbourne,     Australia   (Symmetry handling ABACUS, integral transformation)
  Andrew M. Teale,          University of Nottingham,     England     (DFT-AC, DFT-D)
  David P. Tew,             University of Bristol,        England     (CCSD(R12))
  Olav Vahtras,             KTH Stockholm,                Sweden      (triplet response, spin-orbit, ESR, TDDFT, open-shell DFT)
  David J. Wilson,          La Trobe University,          Australia   (DFT Hessian and DFT magnetizabilities)
  Hans Agren,               KTH Stockholm,                Sweden      (SIRIUS module, RESPONS, MC-SCRF solvation model)
 --------------------------------------------------------------------------------

     Date and time (Linux)  : Sun Sep  8 21:04:32 2013
     Host name              : lpqlx131.ups-tlse.fr                    

 * Work memory size             :    64000000 =  488.28 megabytes.

 * Directories for basis set searches:
   1) /home/bast/DALTON-2013.0-Source/build/test_ccsdr12pt_ne
   2) /home/bast/DALTON-2013.0-Source/build/basis


Compilation information
-----------------------

 Who compiled             | bast
 Host                     | lpqlx131.ups-tlse.fr
 System                   | Linux-3.8.5-201.fc18.x86_64
 CMake generator          | Unix Makefiles
 Processor                | x86_64
 64-bit integers          | OFF
 MPI                      | OFF
 Fortran compiler         | /usr/bin/gfortran
 Fortran compiler version | GNU Fortran (GCC) 4.7.2 20121109 (Red Hat 4.7.2-8)
 C compiler               | /usr/bin/gcc
 C compiler version       | gcc (GCC) 4.7.2 20121109 (Red Hat 4.7.2-8)
 C++ compiler             | /usr/bin/g++
 C++ compiler version     | g++ (GCC) 4.7.2 20121109 (Red Hat 4.7.2-8)
 Static linking           | OFF
 Last Git revision        | f34203295a86316e27f9e7b44f9b6769c4a046c0
 Configuration time       | 2013-09-08 20:31:27.952056


   Content of the .dal input file
 ----------------------------------

                                                  
**DALTON INPUT                                    
.RUN WAVE FUNCTION                                
*MOLBAS                                           
.R12AUX                                           
**INTEGRALS                                       
.R12                                              
**WAVE FUNCTION                                   
.CC                                               
*ORBITAL INPUT                                    
.NOSUPSYM                                         
.MOSTART                                          
 H1DIAG                                           
*SCF IN                                           
.THRESH                                           
 1.0D-12                                          
*CC INPUT                                         
.CC(T)                                            
.PRINT                                            
 5                                                
.FROIMP                                           
  1                                               
  0                                               
.THRENR                                           
 1.0D-12                                          
.MAX IT                                           
 300                                              
*R12 INPUT                                        
.CC2                                              
 1B                                               
**END OF DALTON INPUT                             


   Content of the .mol file
 ----------------------------

INTGRL                                                                         
Ne                                                                             
aug-cc-pVDZ + aug-cc-pVDZ as auxbasis                                          
    2    0                                                                     
 1     10.    1    3    3    2    1                                            
Ne      0.0000000000000     0.0000000000000     0.0000000000000                
H   9    1                                                                     
    17880.0000000000        0.0007380000                                       
     2683.0000000000        0.0056770000                                       
      611.5000000000        0.0288830000                                       
      173.5000000000        0.1085400000                                       
       56.6400000000        0.2909070000                                       
       20.4200000000        0.4483240000                                       
        7.8100000000        0.2580260000                                       
        1.6530000000        0.0150630000                                       
        0.4869000000       -0.0021000000                                       
H   9    1                                                                     
    17880.0000000000       -0.0001720000                                       
     2683.0000000000       -0.0013570000                                       
      611.5000000000       -0.0067370000                                       
      173.5000000000       -0.0276630000                                       
       56.6400000000       -0.0762080000                                       
       20.4200000000       -0.1752270000                                       
        7.8100000000       -0.1070380000                                       
        1.6530000000        0.5670500000                                       
        0.4869000000        0.5652160000                                       
F   2    0                                                                     
        0.4869000000                                                           
        0.1230000000                                                           
H   4    1                                                                     
       28.3900000000        0.0460870000                                       
        6.2700000000        0.2401810000                                       
        1.6950000000        0.5087440000                                       
        0.4317000000        0.4556600000                                       
F   2    0                                                                     
        0.4317000000                                                           
        0.1064000000                                                           
F   2    0                                                                     
        2.2020000000                                                           
        0.6310000000                                                           
 2     10.    1    3    3    2    1                                            
Ne      0.0000000000000     0.0000000000000     0.0000000000000                
H   9    1                                                                     
    17880.0000000000        0.0007380000                                       
     2683.0000000000        0.0056770000                                       
      611.5000000000        0.0288830000                                       
      173.5000000000        0.1085400000                                       
       56.6400000000        0.2909070000                                       
       20.4200000000        0.4483240000                                       
        7.8100000000        0.2580260000                                       
        1.6530000000        0.0150630000                                       
        0.4869000000       -0.0021000000                                       
H   9    1                                                                     
    17880.0000000000       -0.0001720000                                       
     2683.0000000000       -0.0013570000                                       
      611.5000000000       -0.0067370000                                       
      173.5000000000       -0.0276630000                                       
       56.6400000000       -0.0762080000                                       
       20.4200000000       -0.1752270000                                       
        7.8100000000       -0.1070380000                                       
        1.6530000000        0.5670500000                                       
        0.4869000000        0.5652160000                                       
F   2    0                                                                     
        0.4869000000                                                           
        0.1230000000                                                           
H   4    1                                                                     
       28.3900000000        0.0460870000                                       
        6.2700000000        0.2401810000                                       
        1.6950000000        0.5087440000                                       
        0.4317000000        0.4556600000                                       
F   2    0                                                                     
        0.4317000000                                                           
        0.1064000000                                                           
F   2    0                                                                     
        2.2020000000                                                           
        0.6310000000                                                           


       *******************************************************************
       *********** Output from DALTON general input processing ***********
       *******************************************************************

 --------------------------------------------------------------------------------
   Overall default print level:    0
   Print level for DALTON.STAT:    1

    HERMIT 1- and 2-electron integral sections will be executed
    "Old" integral transformation used (limited to max 255 basis functions)
    Wave function sections will be executed (SIRIUS module)
 --------------------------------------------------------------------------------


 Changes of defaults for *MOLBAS:
 --------------------------------

 Print level in molecule setup (READIN):    1

 .R12AUX: Reading auxiliary basis sets from .mol file for R12



   ****************************************************************************
   *************** Output of molecule and basis set information ***************
   ****************************************************************************


    The two title cards from your ".mol" input:
    ------------------------------------------------------------------------
 1: Ne                                                                      
 2: aug-cc-pVDZ + aug-cc-pVDZ as auxbasis                                   
    ------------------------------------------------------------------------

  Atomic type no.    1
  --------------------
  Nuclear charge:  10.00000
  Number of symmetry independent centers:    1
  Number of basis sets to read;    1

  Atomic type no.    2
  --------------------
  Nuclear charge:  10.00000
  Number of symmetry independent centers:    1
  This is an auxiliary basis for R12, MBSI:    2


                         SYMGRP: Point group information
                         -------------------------------

Point group: C1 


                                 Isotopic Masses
                                 ---------------

                           Ne         19.992439
                           Ne          0.000000

                       Total mass:    19.992439 amu
                       Natural abundance:   0.000 %

 Center-of-mass coordinates (a.u.):    0.000000    0.000000    0.000000


  Atoms and basis sets
  --------------------

  Number of atom types :    2
  Total number of atoms:    2

  label  basis   atoms  charge   prim  cont     basis
  ------------------------------------------------------------------------------
  Ne       1       1   10.0000    48    23      [20s6p2d|4s3p2d]                                   
  Ne       2       1    0.0000    48    23      [20s6p2d|4s3p2d]                                   
  ------------------------------------------------------------------------------
  total:           2   10.0000    96    46
  ------------------------------------------------------------------------------
  Spherical harmonic basis used.

  Threshold for neglecting AO integrals:  1.00D-12


  Cartesian Coordinates (a.u.)
  ----------------------------

  Total number of coordinates:    6
  Ne      :     1  x   0.0000000000    2  y   0.0000000000    3  z   0.0000000000
  Ne      :     4  x   0.0000000000    5  y   0.0000000000    6  z   0.0000000000


  Bond distances (Angstrom):
  --------------------------

                  atom 1     atom 2       distance
                  ------     ------       --------




 Principal moments of inertia (u*A**2) and principal axes
 --------------------------------------------------------

   IA       0.000000          1.000000    0.000000    0.000000
   IB       0.000000          0.000000    1.000000    0.000000
   IC       0.000000          0.000000    0.000000    1.000000


 Rotational constants
 --------------------

 All are zero as the "molecule" is an atom!



@  Nuclear repulsion energy :    0.000000000000 Hartree

  Number of main orbitals in each symmetry:          23
  Number of auxiliary functions in each symmetry:    23

  Number of floating/multiple basis set orbitals :    1


                     .---------------------------------------.
                     | Starting in Integral Section (HERMIT) |
                     `---------------------------------------'



    *************************************************************************
    ****************** Output from HERMIT input processing ******************
    *************************************************************************


 Default print level:        1

 * Nuclear model: Point charge

 Calculation of one- and two-electron Hamiltonian integrals.

 The following one-electron property integrals are calculated as requested:
          - overlap integrals
          - Cartesian multipole moment integrals of orders 2 and lower

 Center of mass  (bohr):      0.000000000000      0.000000000000      0.000000000000
 Operator center (bohr):      0.000000000000      0.000000000000      0.000000000000
 Gauge origin    (bohr):      0.000000000000      0.000000000000      0.000000000000
 Dipole origin   (bohr):      0.000000000000      0.000000000000      0.000000000000


     ************************************************************************
     ************************** Output from HERINT **************************
     ************************************************************************


 Threshold for neglecting two-electron integrals:  1.00D-12
 Number of two-electron integrals written:        5162 (  0.9% )
 Megabytes written:                              0.062

 >>>> Total CPU  time used in HERMIT:   0.03 seconds
 >>>> Total wall time used in HERMIT:   0.03 seconds


                        .----------------------------------.
                        | End of Integral Section (HERMIT) |
                        `----------------------------------'



                   .--------------------------------------------.
                   | Starting in Wave Function Section (SIRIUS) |
                   `--------------------------------------------'


 >>>> Detected R12 input:
 Direct Fock matrix formation switched on!
 Scale factors for CC excitations manifolds:
 for bra states (projection manifold):   1.0000000000000000     
 for ket states (operator manifold)  :   1.0000000000000000     

 **********************************************************************
 *SIRIUS* a direct, restricted step, second order MCSCF program       *
 **********************************************************************

 
     Date and time (Linux)  : Sun Sep  8 21:04:32 2013
     Host name              : lpqlx131.ups-tlse.fr                    

 Title lines from ".mol" input file:
     Ne                                                                      
     aug-cc-pVDZ + aug-cc-pVDZ as auxbasis                                   

 Print level on unit LUPRI =   2 is   0
 Print level on unit LUW4  =   2 is   5

@    (Integral direct) CC calculation.

@    This is a combination run starting with
@              a restricted, closed shell Hartree-Fock calculation

 Fock matrices are calculated directly without use of integrals on disk.

 Initial molecular orbitals are obtained according to
 ".MOSTART H1DIAG" input option

     Wave function specification
     ============================

     For the specification of the Coupled Cluster: see later.

@    For the wave function of type :      >>> CC <<<
@    Number of closed shell electrons          10
@    Number of electrons in active shells       0
@    Total charge of the molecule               0

@    Spin multiplicity and 2 M_S                1         0
     Total number of symmetries                 1
@    Reference state symmetry                   1

     Orbital specifications
     ======================
     Abelian symmetry species          All |    1
                                       --- |  ---
@    Occupied SCF orbitals               5 |    5
     Secondary orbitals                 18 |   18
     Total number of orbitals           23 |   23
     Number of basis functions          46 |   46

     Optimization information
     ========================
@    Number of configurations                 1
@    Number of orbital rotations             90
     ------------------------------------------
@    Total number of variables               91

     Maximum number of Fock   iterations      0
     Maximum number of DIIS   iterations     60
     Maximum number of QC-SCF iterations     60
     Threshold for SCF convergence     1.00D-12


 Changes of defaults for CC:
 ---------------------------


 -Implicit frozen core calculation
  


 >>>>> DIIS optimization of Hartree-Fock <<<<<

 C1-DIIS algorithm; max error vectors =   10

 Iter      Total energy        Error norm    Delta(E)  DIIS dim.
 -----------------------------------------------------------------------------
   1  Screening settings (-IFTHRS, DIFDEN)   -7    T

***  INFO  GETGAB: GABAOXXX not found on AOPROPER. Regenerating.
@  1    -122.519403121        9.94378D+00   -1.23D+02    1
      Virial theorem: -V/T =      1.775689
@      MULPOP Ne     -0.00; 
 -----------------------------------------------------------------------------
   2  Screening settings (-IFTHRS, DIFDEN)   -7    T
@  2    -119.861871955        1.10188D+01    2.66D+00    2
      Virial theorem: -V/T =      2.137361
@      MULPOP Ne     -0.00; 
 -----------------------------------------------------------------------------
   3  Screening settings (-IFTHRS, DIFDEN)   -7    T
@  3    -128.278494032        2.63078D+00   -8.42D+00    3
      Virial theorem: -V/T =      1.959419
@      MULPOP Ne     -0.00; 
 -----------------------------------------------------------------------------
   4  Screening settings (-IFTHRS, DIFDEN)   -7    T
@  4    -128.489942372        4.43564D-01   -2.11D-01    4
      Virial theorem: -V/T =      1.993760
@      MULPOP Ne     -0.00; 
 -----------------------------------------------------------------------------
   5  Screening settings (-IFTHRS, DIFDEN)   -7    T
@  5    -128.496290668        3.46286D-02   -6.35D-03    5
      Virial theorem: -V/T =      2.000143
@      MULPOP Ne      0.00; 
 -----------------------------------------------------------------------------
   6  Screening settings (-IFTHRS, DIFDEN)   -9    F
@  6    -128.496349106        4.70768D-03   -5.84D-05    6
      Virial theorem: -V/T =      2.000712
@      MULPOP Ne      0.00; 
 -----------------------------------------------------------------------------
   7  Screening settings (-IFTHRS, DIFDEN)   -9    T
@  7    -128.496349730        5.89948D-05   -6.24D-07    7
      Virial theorem: -V/T =      2.000647
@      MULPOP Ne     -0.00; 
 -----------------------------------------------------------------------------
   8  Screening settings (-IFTHRS, DIFDEN)  -12    F
@  8    -128.496349731        4.49686D-06   -1.26D-10    8
      Virial theorem: -V/T =      2.000647
@      MULPOP Ne     -0.00; 
 -----------------------------------------------------------------------------
   9  Screening settings (-IFTHRS, DIFDEN)  -12    T
@  9    -128.496349731        7.14103D-09   -5.68D-13    9
      Virial theorem: -V/T =      2.000647
@      MULPOP Ne      0.00; 
 -----------------------------------------------------------------------------
  10  Screening settings (-IFTHRS, DIFDEN)  -18    F
@ 10    -128.496349731        1.52276D-09    0.00D+00   10
      Virial theorem: -V/T =      2.000647
@      MULPOP Ne     -0.00; 
 -----------------------------------------------------------------------------
  11  Screening settings (-IFTHRS, DIFDEN)  -18    T
@ 11    -128.496349731        1.64245D-10    0.00D+00   10
      Virial theorem: -V/T =      2.000647
@      MULPOP Ne      0.00; 
 -----------------------------------------------------------------------------
  12  Screening settings (-IFTHRS, DIFDEN)  -18    T
@ 12    -128.496349731        2.39343D-12   -2.84D-14   10
      Virial theorem: -V/T =      2.000647
@      MULPOP Ne     -0.00; 
 -----------------------------------------------------------------------------
  13  Screening settings (-IFTHRS, DIFDEN)  -18    T
@ 13    -128.496349731        3.19639D-14    5.68D-14   10

@ *** DIIS converged in  13 iterations !
@     Converged SCF energy, gradient:   -128.496349730541    3.20D-14
    - total time used in SIRFCK :              0.00 seconds


 *** SCF orbital energy analysis ***

 Only the five lowest virtual orbital energies printed in each symmetry.

 Number of electrons :   10
 Orbital occupations :    5

 Sym       Hartree-Fock orbital energies

  1    -32.79495088    -1.94042088    -0.85304014    -0.85304014    -0.85304014
         0.28735519     0.29301137     0.29301137     0.29301137     1.75769193

    E(LUMO) :     0.28735519 au (symmetry 1)
  - E(HOMO) :    -0.85304014 au (symmetry 1)
  ------------------------------------------
    gap     :     1.14039533 au

 >>> Writing SIRIFC interface file <<<

  Canonical primary and secondary basis sets
  ISYM       NORB1 MBAS1       NORB2 MBAS2
     1          23    23          23    23

 Computation of exchange matrix done [5]

 AUXILIARY BASIS LOW EIGENVALUES
 ISYM         EIGENVALUE
   1      0.000000000000

 >>>> CPU and wall time for SCF :       0.168       0.169


                       .-----------------------------------.
                       | >>> Final results from SIRIUS <<< |
                       `-----------------------------------'


@    Spin multiplicity:           1
@    Spatial symmetry:            1
@    Total charge of molecule:    0

@    Final HF energy:            -128.496349730541                 
@    Nuclear repulsion:             0.000000000000
@    Electronic energy:          -128.496349730541

@    Final gradient norm:           0.000000000000

 
     Date and time (Linux)  : Sun Sep  8 21:04:33 2013
     Host name              : lpqlx131.ups-tlse.fr                    

 (Only coefficients >0.0100 are printed.)

 Molecular orbitals for symmetry species  1
 ------------------------------------------

    Orbital         1        2        3        4        5        6        7
   1 Ne  :1s     1.0002   0.0035   0.0000   0.0000   0.0000   0.0366   0.0000
   2 Ne  :1s     0.0009   1.0125   0.0000   0.0000   0.0000  -0.1636   0.0000
   3 Ne  :1s    -0.0016  -0.0249   0.0000   0.0000   0.0000  -0.7135   0.0000
   4 Ne  :1s     0.0010   0.0180   0.0000   0.0000   0.0000   1.3954   0.0000
   5 Ne  :2px    0.0000   0.0000  -1.0025   0.0000   0.0000   0.0000   0.0000
   6 Ne  :2py    0.0000   0.0000   0.0000   0.0000  -1.0025   0.0000  -0.2502
   7 Ne  :2pz    0.0000   0.0000   0.0000  -1.0025   0.0000   0.0000   0.0000
   8 Ne  :2px    0.0000   0.0000   0.0222   0.0000   0.0000   0.0000   0.0000
   9 Ne  :2py    0.0000   0.0000   0.0000   0.0000   0.0222   0.0000  -0.2170
  10 Ne  :2pz    0.0000   0.0000   0.0000   0.0222   0.0000   0.0000   0.0000
  11 Ne  :2px    0.0000   0.0000  -0.0421   0.0000   0.0000   0.0000   0.0000
  12 Ne  :2py    0.0000   0.0000   0.0000   0.0000  -0.0421   0.0000   1.1297
  13 Ne  :2pz    0.0000   0.0000   0.0000  -0.0421   0.0000   0.0000   0.0000



 >>>> Total CPU  time used in SIRIUS :      0.17 seconds
 >>>> Total wall time used in SIRIUS :      0.17 seconds

 
     Date and time (Linux)  : Sun Sep  8 21:04:33 2013
     Host name              : lpqlx131.ups-tlse.fr                    


                     .---------------------------------------.
                     | End of Wave Function Section (SIRIUS) |
                     `---------------------------------------'



                    .------------------------------------------.
                    | Starting in Coupled Cluster Section (CC) |
                    `------------------------------------------'

  

 *******************************************************************************
 *******************************************************************************
 *                                                                             *
 *                                                                             *
 *                    START OF COUPLED CLUSTER CALCULATION                     *
 *                                                                             *
 *                                                                             *
 *******************************************************************************
 *******************************************************************************


 LWORK =        64000000



 CCR12 ANSATZ =   1

 CCR12 APPROX =   5

   NRHF   :       4
   NRHFS  :       5
   NORB1  :      23
   NORB2  :      23

 Number of primary orbitals             :           23
 Number of secondary orbitals           :           23
 Total number of orbitals               :           46
 Total number of basis functions        :           46
 Number of (i|p) integrals              :           92
 Number of (i|p') integrals             :          184
 Number of (i|u') integrals             :          184
 Number of (Ip'|jL) integrals           :          184
 Number of (ip'|jq) integrals           :        12742
 Threshold for R12 contributions            =  0.00000    
 Threshold for singular value decomposition = 0.100000E-11

 The B matrix is transformed into an orthogonal basis
 and inverted by diagonalization

 ******************************************************************************
 The MP2-R12/A and MP2-R12/B energies are computed as described in:
 W. Klopper, J. Chem. Phys. 120, 10890-10895 (2004).
 To avoid the hybride scheme, the keyword '.NO HYB'
 must be specified in the Dalton input file.
 ------------------------------------------------------------------------------
 Ansatz 1 is used and results are printed for approximations A and B.
 ******************************************************************************

 Core memory required by CCSD_R12 :          72902  (double words)

 Computation of (ip'|r12|jq) integrals done
 >>>  Time used in R  [5]     is   0.24 seconds
 Backtransformation of (ip'|r12|jq') integrals done
 Computation of (ip'|1/r12|jq) integrals done
 >>>  Time used in 1/R[5]     is   0.22 seconds
 Computation of (i* p'|r12|jq) integrals done
 >>>  Time used in R  [5]     is   0.25 seconds
 Computation of (i'p|r12|jq) integrals done
 >>>  Time used in R  [5]     is   0.37 seconds
 >>>  Time used in TWOINT     is   0.11 seconds
 >>>  Time used in TWOINT     is   0.11 seconds
 >>>  Time used in TWOINT     is   0.10 seconds
 Computation of (ip'|[T,r12]|jq) integrals done
 >>>  Time used in T,R[5]     is   0.71 seconds


                 +-----------------------------------------------+
                 ! MP2-R12 ansatz := (1 - P1 - P2 + P1*P2) * R12 !
                 +-----------------------------------------------+


 SECOND-ORDER PAIR ENERGIES:

                    1   -0.007607618    0.000000000
                    2   -0.008531603   -0.005219294
                    3   -0.018168074    0.000000000
                    4   -0.008531603   -0.005219294
                    5   -0.011353110   -0.023149882
                    6   -0.018168074    0.000000000
                    7   -0.008531603   -0.005219294
                    8   -0.011353110   -0.023149882
                    9   -0.011353110   -0.023149882
                   10   -0.018168074    0.000000000

 MP2 =   -0.206873509   -0.121765980   -0.085107528


                         +--------------------------------+
                         ! Auxiliary-basis MP2-R12 method !
                         +--------------------------------+


 SECOND-ORDER R12/A PAIR ENERGIES:

   1   -0.007607618   -0.013081914    0.000000000    0.000000000     7.22634         8.24280    
   2   -0.008531603   -0.017626664   -0.005219294   -0.010040981     7.22634         8.24280    
   3   -0.018168074   -0.027596012    0.000000000    0.000000000     7.22634         8.24280    
   4   -0.008531603   -0.017626664   -0.005219294   -0.010040981     7.22634         8.24280    
   5   -0.011353110   -0.019977800   -0.023149882   -0.029134680     7.22634         8.24280    
   6   -0.018168074   -0.027596012    0.000000000    0.000000000     7.22634         8.24280    
   7   -0.008531603   -0.017626664   -0.005219294   -0.010040981     7.22634         8.24280    
   8   -0.011353110   -0.019977800   -0.023149882   -0.029134680     7.22634         8.24280    
   9   -0.011353110   -0.019977800   -0.023149882   -0.029134680     7.22634         8.24280    
  10   -0.018168074   -0.027596012    0.000000000    0.000000000     7.22634         8.24280    

       -0.121765980   -0.208683342   -0.085107528   -0.117526984

              MP2-R12/A   correlation energy =   -0.326210326

 SECOND-ORDER R12/B PAIR ENERGIES:

   1   -0.007607618   -0.011771719    0.000000000    0.000000000     11.4132         12.4544    
   2   -0.008531603   -0.015792584   -0.005219294   -0.009012655     10.3259         11.3670    
   3   -0.018168074   -0.025751915    0.000000000    0.000000000     9.23848         10.2796    
   4   -0.008531603   -0.015792584   -0.005219294   -0.009012655     10.3259         11.3670    
   5   -0.011353110   -0.018099345   -0.023149882   -0.027948854     9.23848         10.2796    
   6   -0.018168074   -0.025751915    0.000000000    0.000000000     9.23848         10.2796    
   7   -0.008531603   -0.015792584   -0.005219294   -0.009012655     10.3259         11.3670    
   8   -0.011353110   -0.018099345   -0.023149882   -0.027948854     9.23848         10.2796    
   9   -0.011353110   -0.018099345   -0.023149882   -0.027948854     9.23848         10.2796    
  10   -0.018168074   -0.025751915    0.000000000    0.000000000     9.23848         10.2796    

       -0.121765980   -0.190703250   -0.085107528   -0.110884526

              MP2-R12/B   correlation energy =   -0.301587776
 Time for MP2-R12 part cpu :   1.7900000000000000     
 Time for MP2-R12 part wall:   1.8020000159740448     
 Preparing R12 V-interm. ... ONEAUX= F
 Time used for V^albe_kl cpu:  0.12100000000000000     
 Time used for V^albe_kl wall:  0.12299999594688416     

   

 *******************************************************************
 *                                                                 *
 *<<<<<<<<<<                                             >>>>>>>>>>*
 *<<<<<<<<<< OUTPUT FROM COUPLED CLUSTER ENERGY PROGRAM  >>>>>>>>>>*
 *<<<<<<<<<<                                             >>>>>>>>>>*
 *                                                                 *
 *******************************************************************


             The Direct Coupled Cluster Energy Program
             -----------------------------------------


          Number of t1 amplitudes                 :        72
          Number of t2 amplitudes                 :      2628
          Number of t2' amplitudes for R12 part   :       136
          Total number of amplitudes in ccsd      :      2836



                        +---------------------------------+
                        ! Largest amplitudes in MP2 guess !
                        +---------------------------------+



          CC_PRAM:Overall Contribution of the Different Components
          --------------------------------------------------------



          Single Excitation Contribution :               0.0000 %

          Double Excitation Contribution :             100.0000 %

          ||T1||/||T2||                  :               0.0000

          Norm of Total Amplitude Vector :               0.1229


 +=============================================================================+
 | symmetry|  orbital index  |   Excitation Numbers             |   Amplitude  |
 |  Index  |   a   b   i   j |      NAI      NBJ |     NAIBJ    |              |
 +=============================================================================+
 +-----------------------------------------------------------------------------+
 | 1 1 1 1 |  11  11   2   2 |       29       29 |          435 |   -0.032175  |
 | 1 1 1 1 |  12  11   3   2 |       48       29 |         1157 |   -0.025020  |
 | 1 1 1 1 |  10  11   4   2 |       64       29 |         2045 |   -0.025020  |
 | 1 1 1 1 |  12  12   3   3 |       48       48 |         1176 |   -0.032175  |
 | 1 1 1 1 |  10  12   4   3 |       64       48 |         2064 |   -0.025020  |
 | 1 1 1 1 |  10  10   4   4 |       64       64 |         2080 |   -0.032175  |
 +=============================================================================+


          Norm of Printed Amplitude Vector :             0.0706

          Printed all single excitations greater than 0.010000

          Printed all double excitations greater than 0.020000
 Iter.  1: Coupled cluster MP2-R12/B energy :    -128.7979375062868428
     Conventional correlation energy:    -0.2068735085427420
     R12 correlation energy         :    -0.0947142672033571
     Total correlation energy       :    -0.3015877757460991


       Iteration no.:  1
       -----------------

       Time used in   RHS - TOTAL  :       0.01 seconds
       Norm^2 of t1am   after ccvec:        0.0000000000D+00
       Norm^2 of t2am   after ccvec:        0.1511154409D-01
       Norm^2 of omega1 after ccvec:        0.3838077142D-03
       Norm^2 of omega2 after ccvec:        0.3206855191D-02
       Norm^2 of r12am     in NXTAM:        0.2871270339D+00
       Norm^2 of Omegar12  in NXTAM:        0.3342318089D-04
 Iter.  1: Coupled cluster CCSD(R12)/B energy :    -128.7891388960405834
     Conventional correlation energy:    -0.2020324494926911
     R12 correlation energy         :    -0.0907567160071594
     Total correlation energy       :    -0.2927891654998505


       Iteration no.:  2
       -----------------

       Time used in   RHS - TOTAL  :       0.01 seconds
       Norm^2 of t1am   after ccvec:        0.2606277153D-03
       Norm^2 of t2am   after ccvec:        0.1465499665D-01
       Norm^2 of omega1 after ccvec:        0.1435566635D-04
       Norm^2 of omega2 after ccvec:        0.3264063839D-03
       Norm^2 of r12am     in NXTAM:        0.2579692046D+00
       Norm^2 of Omegar12  in NXTAM:        0.1247851637D-06
 Iter.  2: Coupled cluster CCSD(R12)/B energy :    -128.7913516593694396
     Conventional correlation energy:    -0.2045036038573755
     R12 correlation energy         :    -0.0904983249713147
     Total correlation energy       :    -0.2950019288286903


       Iteration no.:  3
       -----------------

       Time used in   RHS - TOTAL  :       0.01 seconds
       Norm^2 of t1am   after ccvec:        0.2124151845D-03
       Norm^2 of t2am   after ccvec:        0.1534952319D-01
       Norm^2 of omega1 after ccvec:        0.6048407989D-05
       Norm^2 of omega2 after ccvec:        0.1371626523D-04
       Norm^2 of r12am     in NXTAM:        0.2562978220D+00
       Norm^2 of Omegar12  in NXTAM:        0.3547707982D-08
 Iter.  3: Coupled cluster CCSD(R12)/B energy :    -128.7914043577858649
     Conventional correlation energy:    -0.2045759258976432
     R12 correlation energy         :    -0.0904787013474818
     Total correlation energy       :    -0.2950546272451250


       Iteration no.:  4
       -----------------

       Time used in   RHS - TOTAL  :       0.01 seconds
       Norm^2 of t1am   after ccvec:        0.2645179704D-03
       Norm^2 of t2am   after ccvec:        0.1541223198D-01
       Norm^2 of omega1 after ccvec:        0.3201374482D-06
       Norm^2 of omega2 after ccvec:        0.1971878647D-05
       Norm^2 of r12am     in NXTAM:        0.2560768665D+00
       Norm^2 of Omegar12  in NXTAM:        0.1568916832D-08
 Iter.  4: Coupled cluster CCSD(R12)/B energy :    -128.7914850657168984
     Conventional correlation energy:    -0.2047023303549906
     R12 correlation energy         :    -0.0904330048211675
     Total correlation energy       :    -0.2951353351761581


       Iteration no.:  5
       -----------------

       Time used in   RHS - TOTAL  :       0.01 seconds
       Norm^2 of t1am   after ccvec:        0.2853155767D-03
       Norm^2 of t2am   after ccvec:        0.1548103422D-01
       Norm^2 of omega1 after ccvec:        0.2985223295D-08
       Norm^2 of omega2 after ccvec:        0.3070168234D-07
       Norm^2 of r12am     in NXTAM:        0.2557453953D+00
       Norm^2 of Omegar12  in NXTAM:        0.2038531886D-10
 Iter.  5: Coupled cluster CCSD(R12)/B energy :    -128.7914792043739283
     Conventional correlation energy:    -0.2046947314709371
     R12 correlation energy         :    -0.0904347423622530
     Total correlation energy       :    -0.2951294738331901


       Iteration no.:  6
       -----------------

       Time used in   RHS - TOTAL  :       0.01 seconds
       Norm^2 of t1am   after ccvec:        0.2868153021D-03
       Norm^2 of t2am   after ccvec:        0.1547899146D-01
       Norm^2 of omega1 after ccvec:        0.1411478403D-09
       Norm^2 of omega2 after ccvec:        0.7117579801D-09
       Norm^2 of r12am     in NXTAM:        0.2557621388D+00
       Norm^2 of Omegar12  in NXTAM:        0.2856720742D-12
 Iter.  6: Coupled cluster CCSD(R12)/B energy :    -128.7914780570200151
     Conventional correlation energy:    -0.2046932353287332
     R12 correlation energy         :    -0.0904350911505517
     Total correlation energy       :    -0.2951283264792849


       Iteration no.:  7
       -----------------

       Time used in   RHS - TOTAL  :       0.02 seconds
       Norm^2 of t1am   after ccvec:        0.2871859787D-03
       Norm^2 of t2am   after ccvec:        0.1547854509D-01
       Norm^2 of omega1 after ccvec:        0.7676952701D-11
       Norm^2 of omega2 after ccvec:        0.5891700127D-10
       Norm^2 of r12am     in NXTAM:        0.2557643964D+00
       Norm^2 of Omegar12  in NXTAM:        0.1504240276D-13
 Iter.  7: Coupled cluster CCSD(R12)/B energy :    -128.7914778713727912
     Conventional correlation energy:    -0.2046930847841111
     R12 correlation energy         :    -0.0904350560479269
     Total correlation energy       :    -0.2951281408320380


       Iteration no.:  8
       -----------------

       Time used in   RHS - TOTAL  :       0.02 seconds
       Norm^2 of t1am   after ccvec:        0.2872407697D-03
       Norm^2 of t2am   after ccvec:        0.1547836804D-01
       Norm^2 of omega1 after ccvec:        0.2482205932D-12
       Norm^2 of omega2 after ccvec:        0.9410096213D-12
       Norm^2 of r12am     in NXTAM:        0.2557641990D+00
       Norm^2 of Omegar12  in NXTAM:        0.2165679046D-15
 Iter.  8: Coupled cluster CCSD(R12)/B energy :    -128.7914778376506888
     Conventional correlation energy:    -0.2046930578484023
     R12 correlation energy         :    -0.0904350492615452
     Total correlation energy       :    -0.2951281071099475


       Iteration no.:  9
       -----------------

       Time used in   RHS - TOTAL  :       0.01 seconds
       Norm^2 of t1am   after ccvec:        0.2872527852D-03
       Norm^2 of t2am   after ccvec:        0.1547835243D-01
       Norm^2 of omega1 after ccvec:        0.1351190117D-14
       Norm^2 of omega2 after ccvec:        0.2025769028D-13
       Norm^2 of r12am     in NXTAM:        0.2557641550D+00
       Norm^2 of Omegar12  in NXTAM:        0.1140740730D-16
 Iter.  9: Coupled cluster CCSD(R12)/B energy :    -128.7914778367947406
     Conventional correlation energy:    -0.2046930556563780
     R12 correlation energy         :    -0.0904350505976330
     Total correlation energy       :    -0.2951281062540110


       Iteration no.: 10
       -----------------

       Time used in   RHS - TOTAL  :       0.01 seconds
       Norm^2 of t1am   after ccvec:        0.2872527872D-03
       Norm^2 of t2am   after ccvec:        0.1547835153D-01
       Norm^2 of omega1 after ccvec:        0.3519042099D-15
       Norm^2 of omega2 after ccvec:        0.1151235923D-14
       Norm^2 of r12am     in NXTAM:        0.2557641590D+00
       Norm^2 of Omegar12  in NXTAM:        0.2493827658D-18
 Iter. 10: Coupled cluster CCSD(R12)/B energy :    -128.7914778365555719
     Conventional correlation energy:    -0.2046930555921165
     R12 correlation energy         :    -0.0904350504227081
     Total correlation energy       :    -0.2951281060148246


       Iteration no.: 11
       -----------------

       Time used in   RHS - TOTAL  :       0.02 seconds
       Norm^2 of t1am   after ccvec:        0.2872527936D-03
       Norm^2 of t2am   after ccvec:        0.1547835150D-01
       Norm^2 of omega1 after ccvec:        0.1425873568D-16
       Norm^2 of omega2 after ccvec:        0.8070190041D-16
       Norm^2 of r12am     in NXTAM:        0.2557641574D+00
       Norm^2 of Omegar12  in NXTAM:        0.3901031509D-19
 Iter. 11: Coupled cluster CCSD(R12)/B energy :    -128.7914778364894346
     Conventional correlation energy:    -0.2046930554847108
     R12 correlation energy         :    -0.0904350504639755
     Total correlation energy       :    -0.2951281059486863


       Iteration no.: 12
       -----------------

       Time used in   RHS - TOTAL  :       0.01 seconds
       Norm^2 of t1am   after ccvec:        0.2872527918D-03
       Norm^2 of t2am   after ccvec:        0.1547835142D-01
       Norm^2 of omega1 after ccvec:        0.1523253297D-18
       Norm^2 of omega2 after ccvec:        0.1232822938D-17
       Norm^2 of r12am     in NXTAM:        0.2557641573D+00
       Norm^2 of Omegar12  in NXTAM:        0.1847303116D-21
 Iter. 12: Coupled cluster CCSD(R12)/B energy :    -128.7914778364698520
     Conventional correlation energy:    -0.2046930554569144
     R12 correlation energy         :    -0.0904350504721871
     Total correlation energy       :    -0.2951281059291015


       Iteration no.: 13
       -----------------

       Time used in   RHS - TOTAL  :       0.02 seconds
       Norm^2 of t1am   after ccvec:        0.2872527943D-03
       Norm^2 of t2am   after ccvec:        0.1547835140D-01
       Norm^2 of omega1 after ccvec:        0.7549824590D-20
       Norm^2 of omega2 after ccvec:        0.3766778605D-19
       Norm^2 of r12am     in NXTAM:        0.2557641573D+00
       Norm^2 of Omegar12  in NXTAM:        0.8559351325D-23
 Iter. 13: Coupled cluster CCSD(R12)/B energy :    -128.7914778364645372
     Conventional correlation energy:    -0.2046930554531059
     R12 correlation energy         :    -0.0904350504706939
     Total correlation energy       :    -0.2951281059237998


       Iteration no.: 14
       -----------------

       Time used in   RHS - TOTAL  :       0.01 seconds
       Norm^2 of t1am   after ccvec:        0.2872527945D-03
       Norm^2 of t2am   after ccvec:        0.1547835140D-01
       Norm^2 of omega1 after ccvec:        0.6313049794D-22
       Norm^2 of omega2 after ccvec:        0.6114962849D-21
       Norm^2 of r12am     in NXTAM:        0.2557641573D+00
       Norm^2 of Omegar12  in NXTAM:        0.3782019436D-24
 Iter. 14: Coupled cluster CCSD(R12)/B energy :    -128.7914778364641677
     Conventional correlation energy:    -0.2046930554524238
     R12 correlation energy         :    -0.0904350504709916
     Total correlation energy       :    -0.2951281059234153


 CCSD(R12)/B energy converged to within   0.10D-11 is         -128.791477836464
 Final 2-norm of the CC vector function:  2.59735786D-11
 R12       energy converged to within   0.10D-11 is     -0.090435050


                    +------------------------------------------+
                    ! Largest amplitudes in converged solution !
                    +------------------------------------------+



          CC_PRAM:Overall Contribution of the Different Components
          --------------------------------------------------------



          Single Excitation Contribution :               1.8220 %

          Double Excitation Contribution :              98.1780 %

          ||T1||/||T2||                  :               0.1362

          Tau1 diagnostic                :               0.0060

          Norm of Total Amplitude Vector :               0.1256


 +=============================================================================+
 | symmetry|  orbital index  |   Excitation Numbers             |   Amplitude  |
 |  Index  |   a   b   i   j |      NAI      NBJ |     NAIBJ    |              |
 +=============================================================================+
 | 1   1   |   1       1     |        1          |              |    0.003797  |
 | 1   1   |   4       2     |       22          |              |   -0.009536  |
 | 1   1   |   3       3     |       39          |              |   -0.009536  |
 | 1   1   |   2       4     |       56          |              |   -0.009536  |
 +-----------------------------------------------------------------------------+
 | 1 1 1 1 |  11  11   2   2 |       29       29 |          435 |   -0.032548  |
 | 1 1 1 1 |  12  11   3   2 |       48       29 |         1157 |   -0.023432  |
 | 1 1 1 1 |  10  11   4   2 |       64       29 |         2045 |   -0.023432  |
 | 1 1 1 1 |  12  12   3   3 |       48       48 |         1176 |   -0.032548  |
 | 1 1 1 1 |  10  12   4   3 |       64       48 |         2064 |   -0.023432  |
 | 1 1 1 1 |  10  10   4   4 |       64       64 |         2080 |   -0.032548  |
 +=============================================================================+


          Norm of Printed Amplitude Vector :             0.0715

          Printed all single excitations greater than 0.002700

          Printed all double excitations greater than 0.019817
       Time used in   RHS - TOTAL  :       0.06 seconds





             +-------------------------------------------------------+
             ! Final results from the Coupled Cluster energy program !
             +-------------------------------------------------------+



            Total SCF   energy:                  -128.4963497305

            Total MP2-R12/B energy:              -128.7979375063

            Total CCSD(R12)/B energy:            -128.7914778365


                     Perturbative triples corrections
                     --------------------------------

            The E4 doubles and triples:            -0.0030003831
            The E5 singles and triples:             0.0002408764

            Total CCSD(R12)(T)/B  energy:        -128.7942373432

 *******************************************************************

 Ground state energy is target 

 Ecorr =                   -128.79423734316688410217

 *******************************************************************
  

 *******************************************************************************
 *******************************************************************************
 *                                                                             *
 *                                                                             *
 *                   SUMMARY OF COUPLED CLUSTER CALCULATION                    *
 *                                                                             *
 *                                                                             *
 *******************************************************************************
 *******************************************************************************

                                                                                
                                                                                
            Total SCF   energy:                  -128.4963497305                
            Total MP2-R12/B energy:              -128.7979375063                
            Total CCSD(R12)/B energy:            -128.7914778365                
                                                                                
                                                                                
                     Perturbative triples corrections                           
                     --------------------------------                           
                                                                                
            The E4 doubles and triples:            -0.0030003831                
            The E5 singles and triples:             0.0002408764                
                                                                                
            Total CCSD(R12)(T)/B  energy:        -128.7942373432                
  

 *******************************************************************************
 *******************************************************************************
 *                                                                             *
 *                                                                             *
 *                      END OF COUPLED CLUSTER CALCULATION                     *
 *                                                                             *
 *                                                                             *
 *******************************************************************************
 *******************************************************************************


 >>>> CPU and wall time for CC :       2.205       2.221

 
     Date and time (Linux)  : Sun Sep  8 21:04:35 2013
     Host name              : lpqlx131.ups-tlse.fr                    


                      .-------------------------------------.
                      | End of Coupled Cluster Section (CC) |
                      `-------------------------------------'

 >>>> Total CPU  time used in DALTON:   2.41 seconds
 >>>> Total wall time used in DALTON:   2.43 seconds

 
     Date and time (Linux)  : Sun Sep  8 21:04:35 2013
     Host name              : lpqlx131.ups-tlse.fr                    
