

     ************************************************************************
     *************** Dalton - An Electronic Structure Program ***************
     ************************************************************************

    This is output from DALTON 2013.2
   ----------------------------------------------------------------------------
    NOTE:
     
    Dalton is an experimental code for the evaluation of molecular
    properties using (MC)SCF, DFT, CI, and CC wave functions.
    The authors accept no responsibility for the performance of
    the code or for the correctness of the results.
     
    The code (in whole or part) is provided under a licence and
    is not to be reproduced for further distribution without
    the written permission of the authors or their representatives.
     
    See the home page "http://daltonprogram.org" for further information.
     
    If results obtained with this code are published,
    the appropriate citations would be both of:
     
       K. Aidas, C. Angeli, K. L. Bak, V. Bakken, R. Bast,
       L. Boman, O. Christiansen, R. Cimiraglia, S. Coriani,
       P. Dahle, E. K. Dalskov, U. Ekstroem, T. Enevoldsen,
       J. J. Eriksen, P. Ettenhuber, B. Fernandez, L. Ferrighi,
       H. Fliegl, L. Frediani, K. Hald, A. Halkier, C. Haettig,
       H. Heiberg, T. Helgaker, A. C. Hennum, H. Hettema,
       E. Hjertenaes, S. Hoest, I.-M. Hoeyvik, M. F. Iozzi,
       B. Jansik, H. J. Aa. Jensen, D. Jonsson, P. Joergensen,
       J. Kauczor, S. Kirpekar, T. Kjaergaard, W. Klopper,
       S. Knecht, R. Kobayashi, H. Koch, J. Kongsted, A. Krapp,
       K. Kristensen, A. Ligabue, O. B. Lutnaes, J. I. Melo,
       K. V. Mikkelsen, R. H. Myhre, C. Neiss, C. B. Nielsen,
       P. Norman, J. Olsen, J. M. H. Olsen, A. Osted,
       M. J. Packer, F. Pawlowski, T. B. Pedersen, P. F. Provasi,
       S. Reine, Z. Rinkevicius, T. A. Ruden, K. Ruud, V. Rybkin,
       P. Salek, C. C. M. Samson, A. Sanchez de Meras, T. Saue,
       S. P. A. Sauer, B. Schimmelpfennig, K. Sneskov,
       A. H. Steindal, K. O. Sylvester-Hvid, P. R. Taylor,
       A. M. Teale, E. I. Tellgren, D. P. Tew, A. J. Thorvaldsen,
       L. Thoegersen, O. Vahtras, M. A. Watson, D. J. D. Wilson,
       M. Ziolkowski and H. Aagren,
       "The Dalton quantum chemistry program system",
       WIREs Comput. Mol. Sci. 2013. (doi: 10.1002/wcms.1172)
    
    and
    
       Dalton, a Molecular Electronic Structure Program,
       Release DALTON2013.2 (2013), see http://daltonprogram.org
   ----------------------------------------------------------------------------

    Authors in alphabetical order (major contribution(s) in parenthesis):

  Kestutis Aidas,           Vilnius University,           Lithuania   (QM/MM)
  Celestino Angeli,         University of Ferrara,        Italy       (NEVPT2)
  Keld L. Bak,              UNI-C,                        Denmark     (AOSOPPA, non-adiabatic coupling, magnetic properties)
  Vebjoern Bakken,          University of Oslo,           Norway      (DALTON; geometry optimizer, symmetry detection)
  Radovan Bast,             KTH Stockholm,                Sweden      (DALTON installation and execution frameworks)
  Pablo Baudin,             University of Valencia,       Spain       (Cholesky excitation energies)
  Linus Boman,              NTNU,                         Norway      (Cholesky decomposition and subsystems)
  Ove Christiansen,         Aarhus University,            Denmark     (CC module)
  Renzo Cimiraglia,         University of Ferrara,        Italy       (NEVPT2)
  Sonia Coriani,            University of Trieste,        Italy       (CC module, MCD in RESPONS)
  Paal Dahle,               University of Oslo,           Norway      (Parallelization)
  Erik K. Dalskov,          UNI-C,                        Denmark     (SOPPA)
  Thomas Enevoldsen,        Univ. of Southern Denmark,    Denmark     (SOPPA)
  Janus J. Eriksen,         Aarhus University,            Denmark     (PE-MP2/SOPPA, TDA)
  Berta Fernandez,          U. of Santiago de Compostela, Spain       (doublet spin, ESR in RESPONS)
  Lara Ferrighi,            Aarhus University,            Denmark     (PCM Cubic response)
  Heike Fliegl,             University of Oslo,           Norway      (CCSD(R12))
  Luca Frediani,            UiT The Arctic U. of Norway,  Norway      (PCM)
  Bin Gao,                  UiT The Arctic U. of Norway,  Norway      (Gen1Int library)
  Christof Haettig,         Ruhr-University Bochum,       Germany     (CC module)
  Kasper Hald,              Aarhus University,            Denmark     (CC module)
  Asger Halkier,            Aarhus University,            Denmark     (CC module)
  Hanne Heiberg,            University of Oslo,           Norway      (geometry analysis, selected one-electron integrals)
  Trygve Helgaker,          University of Oslo,           Norway      (DALTON; ABACUS, ERI, DFT modules, London, and much more)
  Alf Christian Hennum,     University of Oslo,           Norway      (Parity violation)
  Hinne Hettema,            University of Auckland,       New Zealand (quadratic response in RESPONS; SIRIUS supersymmetry)
  Eirik Hjertenaes,         NTNU,                         Norway      (Cholesky decomposition)
  Maria Francesca Iozzi,    University of Oslo,           Norway      (RPA)
  Brano Jansik              Technical Univ. of Ostrava    Czech Rep.  (DFT cubic response)
  Hans Joergen Aa. Jensen,  Univ. of Southern Denmark,    Denmark     (DALTON; SIRIUS, RESPONS, ABACUS modules, London, and much more)
  Dan Jonsson,              UiT The Arctic U. of Norway,  Norway      (cubic response in RESPONS module)
  Poul Joergensen,          Aarhus University,            Denmark     (RESPONS, ABACUS, and CC modules)
  Joanna Kauczor,           Linkoeping University,        Sweden      (Complex polarization propagator (CPP) module)
  Sheela Kirpekar,          Univ. of Southern Denmark,    Denmark     (Mass-velocity & Darwin integrals)
  Wim Klopper,              KIT Karlsruhe,                Germany     (R12 code in CC, SIRIUS, and ABACUS modules)
  Stefan Knecht,            ETH Zurich,                   Switzerland (Parallel CI and MCSCF)
  Rika Kobayashi,           Australian National Univ.,    Australia   (DIIS in CC, London in MCSCF)
  Henrik Koch,              NTNU,                         Norway      (CC module, Cholesky decomposition)
  Jacob Kongsted,           Univ. of Southern Denmark,    Denmark     (Polarizable embedding, QM/MM)
  Andrea Ligabue,           University of Modena,         Italy       (CTOCD, AOSOPPA)
  Ola B. Lutnaes,           University of Oslo,           Norway      (DFT Hessian)
  Juan I. Melo,             University of Buenos Aires,   Argentina   (LRESC, Relativistic Effects on NMR Shieldings)
  Kurt V. Mikkelsen,        University of Copenhagen,     Denmark     (MC-SCRF and QM/MM)
  Rolf H. Myhre,            NTNU,                         Norway      (Cholesky, subsystems and ECC2)
  Christian Neiss,          Univ. Erlangen-Nuernberg,     Germany     (CCSD(R12))
  Christian B. Nielsen,     University of Copenhagen,     Denmark     (QM/MM)
  Patrick Norman,           Linkoeping University,        Sweden      (Cubic response and complex response in RESPONS)
  Jeppe Olsen,              Aarhus University,            Denmark     (SIRIUS CI/density modules)
  Jogvan Magnus H. Olsen,   Univ. of Southern Denmark,    Denmark     (Polarizable embedding, PE library, QM/MM)
  Anders Osted,             Copenhagen University,        Denmark     (QM/MM)
  Martin J. Packer,         University of Sheffield,      UK          (SOPPA)
  Filip Pawlowski,          Kazimierz Wielki University,  Poland      (CC3)
  Thomas B. Pedersen,       University of Oslo,           Norway      (Cholesky decomposition)
  Patricio F. Provasi,      University of Northeastern,   Argentina   (Analysis of coupling constants in localized orbitals)
  Zilvinas Rinkevicius,     KTH Stockholm,                Sweden      (open-shell DFT, ESR)
  Elias Rudberg,            KTH Stockholm,                Sweden      (DFT grid and basis info)
  Torgeir A. Ruden,         University of Oslo,           Norway      (Numerical derivatives in ABACUS)
  Kenneth Ruud,             UiT The Arctic U. of Norway,  Norway      (DALTON; ABACUS magnetic properties and  much more)
  Pawel Salek,              KTH Stockholm,                Sweden      (DALTON; DFT code)
  Claire C. M. Samson       University of Karlsruhe       Germany     (Boys localization, r12 integrals in ERI)
  Alfredo Sanchez de Meras, University of Valencia,       Spain       (CC module, Cholesky decomposition)
  Trond Saue,               Paul Sabatier University,     France      (direct Fock matrix construction)
  Stephan P. A. Sauer,      University of Copenhagen,     Denmark     (SOPPA(CCSD), SOPPA prop., AOSOPPA, vibrational g-factors)
  Bernd Schimmelpfennig,    Forschungszentrum Karlsruhe,  Germany     (AMFI module)
  Kristian Sneskov,         Aarhus University,            Denmark     (QM/MM, PE-CC)
  Arnfinn H. Steindal,      UiT The Arctic U. of Norway,  Norway      (parallel QM/MM)
  Casper Steinmann,         Univ. of Southern Denmark,    Denmark     (QFIT)
  K. O. Sylvester-Hvid,     University of Copenhagen,     Denmark     (MC-SCRF)
  Peter R. Taylor,          VLSCI/Univ. of Melbourne,     Australia   (Symmetry handling ABACUS, integral transformation)
  Andrew M. Teale,          University of Nottingham,     England     (DFT-AC, DFT-D)
  David P. Tew,             University of Bristol,        England     (CCSD(R12))
  Olav Vahtras,             KTH Stockholm,                Sweden      (triplet response, spin-orbit, ESR, TDDFT, open-shell DFT)
  David J. Wilson,          La Trobe University,          Australia   (DFT Hessian and DFT magnetizabilities)
  Hans Agren,               KTH Stockholm,                Sweden      (SIRIUS module, RESPONS, MC-SCRF solvation model)
 --------------------------------------------------------------------------------

     Date and time (Linux)  : Sun Nov 23 14:51:11 2014
     Host name              : c87n03                                  

 * Work memory size             :   384000000 =  2.861 gigabytes.

 * Directories for basis set searches:
   1) /people/disk2/nanna/Projects/dalton_tests
   2) /people/disk2/nanna/programs/dalton-geoder/build_intel_pe_develop/basis


Compilation information
-----------------------

 Who compiled             | nanna
 Host                     | fe8
 System                   | Linux-2.6.32-279.el6.x86_64
 CMake generator          | Unix Makefiles
 Processor                | x86_64
 64-bit integers          | OFF
 MPI                      | ON
 Fortran compiler         | /people/disk2/magnus/Programs/openmpi-intel/bin/mp
                          | if90
 Fortran compiler version | ifort (IFORT) 13.1.3 20130607
 C compiler               | /people/disk2/magnus/Programs/openmpi-intel/bin/mp
                          | icc
 C compiler version       | icc (ICC) 13.1.3 20130607
 C++ compiler             | /people/disk2/magnus/Programs/openmpi-intel/bin/mp
                          | icxx
 C++ compiler version     | unknown
 BLAS                     | /people/disk2/magnus/intel/mkl/lib/intel64/libmkl_
                          | intel_lp64.so;/people/disk2/magnus/intel/mkl/lib/i
                          | ntel64/libmkl_sequential.so;/people/disk2/magnus/i
                          | ntel/mkl/lib/intel64/libmkl_core.so;/usr/lib64/lib
                          | pthread.so;/usr/lib64/libm.so
 LAPACK                   | /people/disk2/magnus/intel/mkl/lib/intel64/libmkl_
                          | lapack95_lp64.a;/people/disk2/magnus/intel/mkl/lib
                          | /intel64/libmkl_intel_lp64.so
 Static linking           | OFF
 Last Git revision        | 779edea14afdf2f223b29a7f3734bffd64b05a73
 Configuration time       | 2014-11-23 14:30:23.652019

 * MPI run using 16 processes.


   Content of the .dal input file
 ----------------------------------

**DALTON INPUT                                    
.OPTIMIZE                                         
*OPTIMIZE                                         
.MAX IT                                           
100                                               
.INITEV                                           
1.0d0                                             
.CARTES                                           
.FREEZE                                           
3                                                 
1                                                 
2                                                 
3                                                 
**WAVE FUNCTION                                   
.HF                                               
*SCF INPUT                                        
.THRESH                                           
1.0d-10                                           
**END OF DALTON INPUT                             


   Content of the .mol file
 ----------------------------

ATOMBASIS                                                                      
                                                                               
                                                                               
Atomtype=3 Charge=0 Nosymmetry                                                 
Charge=6.0 Atoms=3 Bas=STO-3G                                                  
C    -1.2039490098         .6299819763       -1.8443710751                     
C     1.2056120532         .0000000000        1.9839551839                     
C      .0666798969        -.9449729645        -.3221285864                     
Charge=8.0 Atoms=1 Bas=STO-3G                                                  
O      .0000000000         .0000000000        3.9490688445                     
Charge=1.0 Atoms=4 Bas=STO-3G                                                  
H    -2.0522570986        -.0738599558       -3.5620058833                     
H     3.1211832712         .7038419322        1.9619811778                     
H      .2424607776       -2.9181815653        -.8128813887                     
H    -1.3797298905        2.6031905771       -1.3536182728                     


       *******************************************************************
       *********** Output from DALTON general input processing ***********
       *******************************************************************

 --------------------------------------------------------------------------------
   Overall default print level:    0
   Print level for DALTON.STAT:    1

    Parallel calculation using MPI
    AO-direct calculation (in sections where implemented)
    "Old" integral transformation used (limited to max 255 basis functions)
 --------------------------------------------------------------------------------


 Chosen parameters for *OPTIMI :
 -------------------------------

 Default 1st order method will be used:   BFGS update.
 Optimization will be performed in Cartesian coordinates.
 Initial diagonal Hessian will have elements equal to:   1.000000
 
 Maximum # of iterations:       100
 
 Trust region method will be used to control step (default).
 
 Convergence threshold for gradient set to :      1.00D-04
 Convergence threshold for energy set to   :      1.00D-06
 Convergence threshold for step set to     :      1.00D-04
 Number of convergence criteria set to     :   2
 Freezing of atoms has been requested.
 WARNING: .FREEZE is an experimental feature, use it at your own risk...
 WARNING: Freezing of atoms is really intended to be used for constrained optimizations!
 The following   3 atoms will be held frozen: 
     Atom #                 1
     Atom #                 2
     Atom #                 3


              >>>>>>>>>>>>>>>>>>>>>>>>>>>>>>>>>>>>>>>>>>>>>>>>>>>>>
              >>>>>>>>>> 1st Order Geometry Optimization >>>>>>>>>>
              >>>>>>>>>>>>>>>>>>>>>>>>>>>>>>>>>>>>>>>>>>>>>>>>>>>>>


 Reading .mol file to determine number of atoms for parallel runs.


   ****************************************************************************
   *************** Output of molecule and basis set information ***************
   ****************************************************************************


    The two title cards from your ".mol" input:
    ------------------------------------------------------------------------
 1:                                                                         
 2:                                                                         
    ------------------------------------------------------------------------

  Atomic type no.    1
  --------------------
  Nuclear charge:   6.00000
  Number of symmetry independent centers:    3
  Number of basis sets to read;    2
  The basis set is "STO-3G" from the basis set library.
  Basis set file used for this atomic type with Z =   6 :
     "/people/disk2/nanna/programs/dalton-geoder/build_intel_pe_develop/basis/STO-3G"

  Atomic type no.    2
  --------------------
  Nuclear charge:   8.00000
  Number of symmetry independent centers:    1
  Number of basis sets to read;    2
  The basis set is "STO-3G" from the basis set library.
  Basis set file used for this atomic type with Z =   8 :
     "/people/disk2/nanna/programs/dalton-geoder/build_intel_pe_develop/basis/STO-3G"

  Atomic type no.    3
  --------------------
  Nuclear charge:   1.00000
  Number of symmetry independent centers:    4
  Number of basis sets to read;    2
  The basis set is "STO-3G" from the basis set library.
  Basis set file used for this atomic type with Z =   1 :
     "/people/disk2/nanna/programs/dalton-geoder/build_intel_pe_develop/basis/STO-3G"


                         SYMGRP: Point group information
                         -------------------------------

@    Point group: C1 


                                 Isotopic Masses
                                 ---------------

                           C          12.000000
                           C          12.000000
                           C          12.000000
                           O          15.994915
                           H           1.007825
                           H           1.007825
                           H           1.007825
                           H           1.007825

                       Total mass:    56.026215 amu
                       Natural abundance:  96.446 %

 Center-of-mass coordinates (a.u.):    0.013409   -0.061800    1.020567


  Atoms and basis sets
  --------------------

  Number of atom types :    3
  Total number of atoms:    8

  label    atoms   charge   prim   cont     basis
  ----------------------------------------------------------------------
  C           3    6.0000    15     5      [6s3p|2s1p]                                        
  O           1    8.0000    15     5      [6s3p|2s1p]                                        
  H           4    1.0000     3     1      [3s|1s]                                            
  ----------------------------------------------------------------------
  total:      8   30.0000    72    24
  ----------------------------------------------------------------------

  Threshold for neglecting AO integrals:  1.00D-12


  Cartesian Coordinates (a.u.)
  ----------------------------

  Total number of coordinates:   24
  C       :     1  x  -1.2039490098    2  y   0.6299819763    3  z  -1.8443710751
  C       :     4  x   1.2056120532    5  y   0.0000000000    6  z   1.9839551839
  C       :     7  x   0.0666798969    8  y  -0.9449729645    9  z  -0.3221285864
  O       :    10  x   0.0000000000   11  y   0.0000000000   12  z   3.9490688445
  H       :    13  x  -2.0522570986   14  y  -0.0738599558   15  z  -3.5620058833
  H       :    16  x   3.1211832712   17  y   0.7038419322   18  z   1.9619811778
  H       :    19  x   0.2424607776   20  y  -2.9181815653   21  z  -0.8128813887
  H       :    22  x  -1.3797298905   23  y   2.6031905771   24  z  -1.3536182728


   Interatomic separations (in Angstrom):
   --------------------------------------

            C           C           C           O           H           H     
            ------      ------      ------      ------      ------      ------
 C     :    0.000000
 C     :    2.416837    0.000000
 C     :    1.340000    1.450000    0.000000
 O     :    3.148952    1.220000    2.315146    0.000000
 H     :    1.080000    3.403924    2.099809    4.120570    0.000000
 H     :    3.049114    1.080000    2.198840    1.993088    4.026052    0.000000
 H     :    2.099809    2.198840    1.080000    2.958226    2.420000    2.854908
 H     :    1.080000    2.624633    2.099809    3.210093    1.870615    3.124340

            H           H     
            ------      ------
 H     :    0.000000
 H     :    3.058692    0.000000


  Max    interatomic separation is    4.1206 Angstrom (    7.7867 Bohr)
  between atoms    5 and    4, "H     " and "O     ".

  Min HX interatomic separation is    1.0800 Angstrom (    2.0409 Bohr)

  Min YX interatomic separation is    1.2200 Angstrom (    2.3055 Bohr)


  Bond distances (Angstrom):
  --------------------------

                  atom 1     atom 2       distance
                  ------     ------       --------
  bond distance:  C          C            1.340000
  bond distance:  C          C            1.450000
  bond distance:  O          C            1.220000
  bond distance:  H          C            1.080000
  bond distance:  H          C            1.080000
  bond distance:  H          C            1.080000
  bond distance:  H          C            1.080000


  Bond angles (degrees):
  ----------------------

                  atom 1     atom 2     atom 3         angle
                  ------     ------     ------         -----
  bond angle:     C          C          H            120.000
  bond angle:     C          C          H            120.000
  bond angle:     H          C          H            120.000
  bond angle:     C          C          O            120.000
  bond angle:     C          C          H            120.000
  bond angle:     O          C          H            120.000
  bond angle:     C          C          C            120.000
  bond angle:     C          C          H            120.000
  bond angle:     C          C          H            120.000




 Principal moments of inertia (u*A**2) and principal axes
 --------------------------------------------------------

   IA      17.833826          0.253186   -0.031503    0.966904
   IB      95.200280          0.710773   -0.671962   -0.208011
   IC     100.721273          0.656276    0.739916   -0.147740


 Rotational constants
 --------------------

               A                   B                   C

          28338.2265           5308.5874           5017.5995 MHz
            0.945261            0.177075            0.167369 cm-1


@  Nuclear repulsion energy :  104.524595762212 Hartree


                     .---------------------------------------.
                     | Starting in Integral Section (HERMIT) |
                     `---------------------------------------'



 ***************************************************************************************
 ****************** Output from **INTEGRALS input processing (HERMIT) ******************
 ***************************************************************************************


 - Using defaults, no **INTEGRALS input found

 Default print level:        1

 * Nuclear model: Point charge

 Calculation of one-electron Hamiltonian integrals.

 Center of mass  (bohr):      0.013408679487     -0.061800285201      1.020566699813
 Operator center (bohr):      0.000000000000      0.000000000000      0.000000000000
 Gauge origin    (bohr):      0.000000000000      0.000000000000      0.000000000000
 Dipole origin   (bohr):      0.000000000000      0.000000000000      0.000000000000


     ************************************************************************
     ************************** Output from HERINT **************************
     ************************************************************************

 >>>> Total CPU  time used in HERMIT:   0.04 seconds
 >>>> Total wall time used in HERMIT:   0.10 seconds


                        .----------------------------------.
                        | End of Integral Section (HERMIT) |
                        `----------------------------------'



                   .--------------------------------------------.
                   | Starting in Wave Function Section (SIRIUS) |
                   `--------------------------------------------'


 *** Output from Huckel module :

     Using EWMO model:          T
     Using EHT  model:          F
     Number of Huckel orbitals each symmetry:   24

 EWMO - Energy Weighted Maximum Overlap - is a Huckel type method,
        which normally is better than Extended Huckel Theory.
 Reference: Linderberg and Ohrn, Propagators in Quantum Chemistry (Wiley, 1973)

 Huckel EWMO eigenvalues for symmetry :  1
          -20.684692     -11.358316     -11.351928     -11.346168      -1.749011
           -1.461977      -1.086867      -0.981516      -0.827331      -0.694173
           -0.656686      -0.571329      -0.530640      -0.503543      -0.429849
           -0.294860      -0.256310      -0.150251      -0.126998      -0.125118
           -0.121051      -0.105702      -0.091624      -0.087561

 **********************************************************************
 *SIRIUS* a direct, restricted step, second order MCSCF program       *
 **********************************************************************

 
     Date and time (Linux)  : Sun Nov 23 14:51:12 2014
     Host name              : c87n03                                  

 Title lines from ".mol" input file:
                                                                             
                                                                             

 Print level on unit LUPRI =   2 is   0
 Print level on unit LUW4  =   2 is   5

@    Restricted, closed shell Hartree-Fock calculation.
 Fock matrices are calculated directly and in parallel without use of integrals on disk.

 Initial molecular orbitals are obtained according to
 ".MOSTART EWMO  " input option

     Wave function specification
     ============================
@    Wave function type        >>> HF <<<
@    Number of closed shell electrons          30
@    Number of electrons in active shells       0
@    Total charge of the molecule               0

@    Spin multiplicity and 2 M_S                1         0
@    Total number of symmetries                 1 (point group: C1 )
@    Reference state symmetry                   1 (irrep name : A  )

     Orbital specifications
     ======================
     Abelian symmetry species          All |    1
                                           |  A  
                                       --- |  ---
@    Occupied SCF orbitals              15 |   15
     Secondary orbitals                  9 |    9
     Total number of orbitals           24 |   24
     Number of basis functions          24 |   24

     Optimization information
     ========================
@    Number of configurations                 1
@    Number of orbital rotations            135
     ------------------------------------------
@    Total number of variables              136

     Maximum number of Fock   iterations      0
     Maximum number of DIIS   iterations     60
     Maximum number of QC-SCF iterations     60
     Threshold for SCF convergence     1.00D-10


 *********************************************
 ***** DIIS optimization of Hartree-Fock *****
 *********************************************

 C1-DIIS algorithm; max error vectors =    8

 Iter      Total energy        Error norm    Delta(E)  DIIS dim.
 -----------------------------------------------------------------------------
   1  Screening settings (-IFTHRS, JTDIIS, DIFDEN, times)   -6    1    T  3.90D-02  3.90D-02
@  1    -187.868862962        2.08739D+00   -1.88D+02    1
      Virial theorem: -V/T =      2.002209
@      MULPOP C       0.23; C       1.00; C       0.27; O      -1.02; H      -0.11; H      -0.15; H      -0.10; H      -0.12; 
 -----------------------------------------------------------------------------
   2  Screening settings (-IFTHRS, JTDIIS, DIFDEN, times)   -6    2    T  1.50D-02  1.50D-02
@  2    -188.128718455        1.52417D+00   -2.60D-01    2
      Virial theorem: -V/T =      2.009375
@      MULPOP C      -0.11; C      -0.49; C      -0.24; O       0.47; H       0.09; H       0.08; H       0.12; H       0.09; 
 -----------------------------------------------------------------------------
   3  Screening settings (-IFTHRS, JTDIIS, DIFDEN, times)   -6    3    T  2.10D-02  2.00D-02
@  3    -188.283256309        1.35779D-01   -1.55D-01    3
      Virial theorem: -V/T =      2.007646
@      MULPOP C      -0.15; C       0.17; C      -0.07; O      -0.22; H       0.07; H       0.05; H       0.08; H       0.07; 
 -----------------------------------------------------------------------------
   4  Screening settings (-IFTHRS, JTDIIS, DIFDEN, times)   -8    4    F  2.10D-02  2.10D-02
@  4    -188.285801317        4.34410D-02   -2.55D-03    4
      Virial theorem: -V/T =      2.007736
@      MULPOP C      -0.10; C       0.12; C      -0.09; O      -0.20; H       0.07; H       0.06; H       0.08; H       0.06; 
 -----------------------------------------------------------------------------
   5  Screening settings (-IFTHRS, JTDIIS, DIFDEN, times)   -8    5    T  2.10D-02  2.10D-02
@  5    -188.286024921        1.53773D-02   -2.24D-04    5
      Virial theorem: -V/T =      2.007700
@      MULPOP C      -0.12; C       0.12; C      -0.08; O      -0.20; H       0.07; H       0.06; H       0.07; H       0.07; 
 -----------------------------------------------------------------------------
   6  Screening settings (-IFTHRS, JTDIIS, DIFDEN, times)   -8    6    T  2.10D-02  2.10D-02
@  6    -188.286067793        8.29379D-03   -4.29D-05    6
      Virial theorem: -V/T =      2.007699
@      MULPOP C      -0.12; C       0.12; C      -0.08; O      -0.20; H       0.07; H       0.06; H       0.08; H       0.07; 
 -----------------------------------------------------------------------------
   7  Screening settings (-IFTHRS, JTDIIS, DIFDEN, times)   -8    7    T  2.10D-02  2.10D-02
@  7    -188.286082690        3.23453D-03   -1.49D-05    7
      Virial theorem: -V/T =      2.007703
@      MULPOP C      -0.12; C       0.12; C      -0.08; O      -0.20; H       0.07; H       0.06; H       0.07; H       0.07; 
 -----------------------------------------------------------------------------
   8  Screening settings (-IFTHRS, JTDIIS, DIFDEN, times)  -10    8    F  2.10D-02  2.10D-02
@  8    -188.286086846        1.22580D-03   -4.16D-06    8
      Virial theorem: -V/T =      2.007704
@      MULPOP C      -0.12; C       0.12; C      -0.08; O      -0.20; H       0.07; H       0.06; H       0.07; H       0.07; 
 -----------------------------------------------------------------------------
   9  Screening settings (-IFTHRS, JTDIIS, DIFDEN, times)  -10    9    T  2.10D-02  2.10D-02
@  9    -188.286087654        5.39518D-04   -8.08D-07    8
      Virial theorem: -V/T =      2.007704
@      MULPOP C      -0.12; C       0.12; C      -0.08; O      -0.20; H       0.07; H       0.06; H       0.07; H       0.07; 
 -----------------------------------------------------------------------------
  10  Screening settings (-IFTHRS, JTDIIS, DIFDEN, times)  -10   10    T  2.10D-02  2.10D-02
@ 10    -188.286087823        1.00608D-04   -1.69D-07    8
      Virial theorem: -V/T =      2.007704
@      MULPOP C      -0.12; C       0.12; C      -0.08; O      -0.20; H       0.07; H       0.06; H       0.07; H       0.07; 
 -----------------------------------------------------------------------------
  11  Screening settings (-IFTHRS, JTDIIS, DIFDEN, times)  -10   11    T  2.10D-02  2.10D-02
@ 11    -188.286087827        2.79790D-05   -4.28D-09    8
      Virial theorem: -V/T =      2.007704
@      MULPOP C      -0.12; C       0.12; C      -0.08; O      -0.20; H       0.07; H       0.06; H       0.07; H       0.07; 
 -----------------------------------------------------------------------------
  12  Screening settings (-IFTHRS, JTDIIS, DIFDEN, times)  -12   12    F  2.20D-02  2.10D-02
@ 12    -188.286087828        9.92630D-06   -5.39D-10    8
      Virial theorem: -V/T =      2.007704
@      MULPOP C      -0.12; C       0.12; C      -0.08; O      -0.20; H       0.07; H       0.06; H       0.07; H       0.07; 
 -----------------------------------------------------------------------------
  13  Screening settings (-IFTHRS, JTDIIS, DIFDEN, times)  -12   13    T  2.00D-02  2.20D-02
@ 13    -188.286087828        3.66255D-06   -2.32D-11    8
      Virial theorem: -V/T =      2.007704
@      MULPOP C      -0.12; C       0.12; C      -0.08; O      -0.20; H       0.07; H       0.06; H       0.07; H       0.07; 
 -----------------------------------------------------------------------------
  14  Screening settings (-IFTHRS, JTDIIS, DIFDEN, times)  -15   14    F  2.20D-02  2.10D-02
@ 14    -188.286087828        9.34401D-07   -1.59D-12    8
      Virial theorem: -V/T =      2.007704
@      MULPOP C      -0.12; C       0.12; C      -0.08; O      -0.20; H       0.07; H       0.06; H       0.07; H       0.07; 
 -----------------------------------------------------------------------------
  15  Screening settings (-IFTHRS, JTDIIS, DIFDEN, times)  -15   15    T  2.10D-02  2.10D-02
@ 15    -188.286087828        3.87111D-07   -3.41D-13    8
      Virial theorem: -V/T =      2.007704
@      MULPOP C      -0.12; C       0.12; C      -0.08; O      -0.20; H       0.07; H       0.06; H       0.07; H       0.07; 
 -----------------------------------------------------------------------------
  16  Screening settings (-IFTHRS, JTDIIS, DIFDEN, times)  -15   16    T  2.00D-02  2.10D-02
@ 16    -188.286087828        1.54763D-07    0.00D+00    8
      Virial theorem: -V/T =      2.007704
@      MULPOP C      -0.12; C       0.12; C      -0.08; O      -0.20; H       0.07; H       0.06; H       0.07; H       0.07; 
 -----------------------------------------------------------------------------
  17  Screening settings (-IFTHRS, JTDIIS, DIFDEN, times)  -15   17    T  2.20D-02  2.10D-02
@ 17    -188.286087828        2.75708D-08    0.00D+00    8
      Virial theorem: -V/T =      2.007704
@      MULPOP C      -0.12; C       0.12; C      -0.08; O      -0.20; H       0.07; H       0.06; H       0.07; H       0.07; 
 -----------------------------------------------------------------------------
  18  Screening settings (-IFTHRS, JTDIIS, DIFDEN, times)  -15   18    T  2.20D-02  2.10D-02
@ 18    -188.286087828        6.84313D-09   -5.68D-14    8
      Virial theorem: -V/T =      2.007704
@      MULPOP C      -0.12; C       0.12; C      -0.08; O      -0.20; H       0.07; H       0.06; H       0.07; H       0.07; 
 -----------------------------------------------------------------------------
  19  Screening settings (-IFTHRS, JTDIIS, DIFDEN, times)  -15   19    T  2.10D-02  2.10D-02
@ 19    -188.286087828        2.63844D-09    1.14D-13    8
      Virial theorem: -V/T =      2.007704
@      MULPOP C      -0.12; C       0.12; C      -0.08; O      -0.20; H       0.07; H       0.06; H       0.07; H       0.07; 
 -----------------------------------------------------------------------------
  20  Screening settings (-IFTHRS, JTDIIS, DIFDEN, times)  -15   20    T  2.20D-02  2.10D-02
@ 20    -188.286087828        1.51991D-09   -5.68D-14    8
      Virial theorem: -V/T =      2.007704
@      MULPOP C      -0.12; C       0.12; C      -0.08; O      -0.20; H       0.07; H       0.06; H       0.07; H       0.07; 
 -----------------------------------------------------------------------------
  21  Screening settings (-IFTHRS, JTDIIS, DIFDEN, times)  -15   21    T  2.20D-02  2.10D-02
@ 21    -188.286087828        4.35335D-10    0.00D+00    8
      Virial theorem: -V/T =      2.007704
@      MULPOP C      -0.12; C       0.12; C      -0.08; O      -0.20; H       0.07; H       0.06; H       0.07; H       0.07; 
 -----------------------------------------------------------------------------
  22  Screening settings (-IFTHRS, JTDIIS, DIFDEN, times)  -15   22    T  2.10D-02  2.00D-02
@ 22    -188.286087828        1.37881D-10    0.00D+00    8
      Virial theorem: -V/T =      2.007704
@      MULPOP C      -0.12; C       0.12; C      -0.08; O      -0.20; H       0.07; H       0.06; H       0.07; H       0.07; 
 -----------------------------------------------------------------------------
  23  Screening settings (-IFTHRS, JTDIIS, DIFDEN, times)  -15   23    T  2.10D-02  2.10D-02
@ 23    -188.286087828        3.90683D-11    1.14D-13    8

@ *** DIIS converged in  23 iterations !
@     Converged SCF energy, gradient:   -188.286087827991    3.91D-11
    - total time used in SIRFCK :              0.00 seconds


 *** SCF orbital energy analysis ***

 Only the five lowest virtual orbital energies printed in each symmetry.

 Number of electrons :   30
 Orbital occupations :   15

 Sym       Hartree-Fock orbital energies

1 A     -20.29340370   -11.12320774   -11.03957953   -11.03513730    -1.33168657
         -1.01505417    -0.82801582    -0.71993569    -0.63985099    -0.57509249
         -0.54202566    -0.50224105    -0.41736540    -0.34411382    -0.33023702
          0.28263106     0.29291384     0.63866117     0.66748764     0.67938257

    E(LUMO) :     0.28263106 au (symmetry 1)
  - E(HOMO) :    -0.33023702 au (symmetry 1)
  ------------------------------------------
    gap     :     0.61286807 au

 >>> Writing SIRIFC interface file

 >>>> CPU and wall time for SCF :       0.509       0.518


                       .-----------------------------------.
                       | >>> Final results from SIRIUS <<< |
                       `-----------------------------------'


@    Spin multiplicity:           1
@    Spatial symmetry:            1 ( irrep  A   in C1  )
@    Total charge of molecule:    0

@    Final HF energy:            -188.286087827991                 
@    Nuclear repulsion:           104.524595762212
@    Electronic energy:          -292.810683590203

@    Final gradient norm:           0.000000000039

 
     Date and time (Linux)  : Sun Nov 23 14:51:12 2014
     Host name              : c87n03                                  

 (Only coefficients >0.0100 are printed.)

 Molecular orbitals for symmetry species 1  (A  )
 ------------------------------------------------

    Orbital         1        2        3        4        5        6        7
   1 C   :1s    -0.0000   0.0004  -0.0859  -0.9885   0.0066   0.1564   0.1422
   2 C   :1s     0.0000  -0.0002   0.0047  -0.0366  -0.0155  -0.4105  -0.4097
   3 C   :2px    0.0001   0.0001   0.0023  -0.0010  -0.0031  -0.0592   0.0375
   4 C   :2py    0.0000  -0.0000  -0.0027   0.0012   0.0044   0.0636  -0.0117
   5 C   :2pz    0.0000   0.0002   0.0027  -0.0012  -0.0062  -0.0702   0.0476
   6 C   :1s     0.0005  -0.9925  -0.0013  -0.0004   0.1269   0.0591  -0.1402
   7 C   :1s    -0.0073  -0.0339   0.0065  -0.0007  -0.2885  -0.1646   0.4248
   8 C   :2px    0.0034   0.0006  -0.0020   0.0001   0.0857   0.0124   0.0799
   9 C   :2py    0.0000   0.0002  -0.0015   0.0003   0.0025   0.0290  -0.0331
  10 C   :2pz   -0.0053  -0.0001  -0.0037   0.0004  -0.1275   0.1446  -0.1637
  11 C   :1s    -0.0000   0.0003  -0.9885   0.0853   0.0247   0.1821  -0.0530
  12 C   :1s     0.0003   0.0063  -0.0359   0.0109  -0.0578  -0.4757   0.1563
  13 C   :2px   -0.0002   0.0016   0.0003  -0.0023  -0.0106   0.0303   0.1490
  14 C   :2py   -0.0000   0.0015  -0.0010   0.0030  -0.0126  -0.0758  -0.0461
  15 C   :2pz    0.0004   0.0038   0.0001  -0.0028  -0.0272   0.0316   0.1954
  16 O   :1s     0.9943  -0.0002   0.0000   0.0000   0.2158  -0.0507   0.0763
  17 O   :1s     0.0260   0.0059  -0.0002  -0.0000  -0.7544   0.1976  -0.3259
  18 O   :2px    0.0029   0.0009  -0.0001   0.0000  -0.0869   0.0152   0.0505
  19 O   :2py    0.0000  -0.0000  -0.0000  -0.0000   0.0007   0.0056  -0.0150
  20 O   :2pz   -0.0048  -0.0015   0.0001   0.0000   0.1444   0.0201  -0.0931
  21 H   :1s     0.0000   0.0001   0.0005   0.0068  -0.0015  -0.0926  -0.1750
  22 H   :1s     0.0002   0.0068   0.0001   0.0000  -0.0350  -0.0394   0.1832
  23 H   :1s     0.0000   0.0001   0.0069  -0.0007  -0.0071  -0.1115   0.0624
  24 H   :1s     0.0000   0.0004   0.0005   0.0068  -0.0030  -0.0980  -0.1477

    Orbital         8        9       10       11       12       13       14
   1 C   :1s     0.0718  -0.0016  -0.0093  -0.0051  -0.0028   0.0243   0.0091
   2 C   :1s    -0.2255   0.0056   0.0520   0.0013   0.0067  -0.0852  -0.0269
   3 C   :2px    0.0582   0.0252  -0.2587   0.0619  -0.0389  -0.0918   0.0642
   4 C   :2py   -0.1670   0.2241   0.1010  -0.2985  -0.3233   0.0952   0.0190
   5 C   :2pz    0.0662   0.1831  -0.3253   0.0861  -0.2376  -0.1034  -0.1502
   6 C   :1s     0.0916  -0.0067  -0.0435  -0.0309  -0.0182  -0.0005  -0.0050
   7 C   :1s    -0.2953   0.0188   0.1477   0.1054   0.0691   0.0018   0.0206
   8 C   :2px   -0.2394  -0.3209  -0.1763  -0.2116  -0.0129  -0.1956  -0.1474
   9 C   :2py   -0.1487  -0.0703  -0.2174   0.1115   0.0148   0.5194  -0.0768
  10 C   :2pz   -0.0565  -0.1742   0.0573   0.2759  -0.2981  -0.1228  -0.0928
  11 C   :1s    -0.1057   0.0138   0.0389  -0.0002   0.0125   0.0010  -0.0350
  12 C   :1s     0.3247  -0.0513  -0.1171  -0.0100  -0.0523   0.0051   0.1489
  13 C   :2px   -0.0194   0.0109   0.1015  -0.2200   0.0396   0.0564   0.2522
  14 C   :2py   -0.1764   0.2616  -0.2511   0.1616   0.2504  -0.1659   0.1396
  15 C   :2pz   -0.0242   0.2312   0.2081  -0.1312   0.0959   0.0371   0.1798
  16 O   :1s    -0.0479   0.0085   0.0507   0.0768  -0.0319   0.0000  -0.0004
  17 O   :1s     0.2187  -0.0407  -0.2587  -0.4063   0.1776   0.0001   0.0024
  18 O   :2px   -0.1780  -0.2212   0.0190   0.2492  -0.3573  -0.2251   0.6568
  19 O   :2py   -0.0851  -0.0647  -0.1890   0.0851  -0.0354   0.6022   0.3409
  20 O   :2pz    0.0355  -0.1745  -0.3232  -0.4625   0.1036  -0.1342   0.3739
  21 H   :1s    -0.1076  -0.1723   0.3109   0.0048   0.3164   0.0581   0.1106
  22 H   :1s    -0.2810  -0.2052  -0.1078  -0.0949   0.0629  -0.0009  -0.3576
  23 H   :1s     0.2431  -0.2459   0.1039  -0.1319  -0.2806   0.1960  -0.1042
  24 H   :1s    -0.1920   0.1915   0.0606  -0.2392  -0.3473   0.0554  -0.0694

    Orbital        15       16       17
   1 C   :1s     0.0021  -0.0321   0.0012
   2 C   :1s    -0.0063   0.1700  -0.0085
   3 C   :2px   -0.5287   0.0100  -0.6815
   4 C   :2py   -0.1247  -0.0794  -0.1581
   5 C   :2pz    0.2870   0.0740   0.3983
   7 C   :1s     0.0119  -0.0085   0.0144
   8 C   :2px    0.0399   0.2769   0.0665
   9 C   :2py   -0.0046  -0.7258   0.0565
  10 C   :2pz   -0.0486   0.1710  -0.0711
  12 C   :1s     0.0400   0.0242  -0.0151
  13 C   :2px   -0.4792   0.0596   0.6453
  14 C   :2py   -0.0908  -0.0663   0.1539
  15 C   :2pz    0.3677  -0.0182  -0.4045
  16 O   :1s    -0.0008  -0.0010  -0.0138
  17 O   :1s     0.0113   0.0054   0.0858
  18 O   :2px    0.1129  -0.2610   0.0418
  19 O   :2py    0.0983   0.6879  -0.0653
  20 O   :2pz    0.2582  -0.1727  -0.1373
  21 H   :1s     0.0277  -0.0961  -0.0003
  22 H   :1s     0.0547  -0.0029  -0.1829
  23 H   :1s    -0.0269  -0.2217   0.0158
  24 H   :1s    -0.0177   0.0019   0.0058



 >>>> Total CPU  time used in SIRIUS :      0.52 seconds
 >>>> Total wall time used in SIRIUS :      0.58 seconds

 
     Date and time (Linux)  : Sun Nov 23 14:51:12 2014
     Host name              : c87n03                                  


                     .---------------------------------------.
                     | End of Wave Function Section (SIRIUS) |
                     `---------------------------------------'


     Order of analytical energy-derivatives available:   2
     This will be the default.

 Center of mass dipole origin  :    0.013409   -0.061800    1.020567

 Center of mass gauge origin   :    0.013409   -0.061800    1.020567


                 .------------------------------------------------.
                 | Starting in Static Property Section (ABACUS) - |
                 `------------------------------------------------'


 
     Date and time (Linux)  : Sun Nov 23 14:51:12 2014
     Host name              : c87n03                                  

 Largest deviation from tra-rot symmetry is in gradient element  4:  1.54E-11


   ***************************************************************************
   ************************ FINAL RESULTS from ABACUS ************************
   ***************************************************************************


 
     Date and time (Linux)  : Sun Nov 23 14:51:13 2014
     Host name              : c87n03                                  


                             Molecular geometry (au)
                             -----------------------

 C         -1.2039490098            0.6299819763           -1.8443710751
 C          1.2056120532            0.0000000000            1.9839551839
 C          0.0666798969           -0.9449729645           -0.3221285864
 O          0.0000000000            0.0000000000            3.9490688445
 H         -2.0522570986           -0.0738599558           -3.5620058833
 H          3.1211832712            0.7038419322            1.9619811778
 H          0.2424607776           -2.9181815653           -0.8128813887
 H         -1.3797298905            2.6031905771           -1.3536182728





                        Molecular wave function and energy
                        ----------------------------------

     Spin multiplicity  1     State number       1     Total charge       0

     Total energy       -188.2860878280 au (Hartrees)
                         -5123.52507728 eV
                           -494345.0474 kJ/mol


                             Relativistic corrections
                             ------------------------

     Darwin correction:                          0.2461719415 au
     Mass-velocity correction:                  -0.3142717813 au

     Total relativistic correction:             -0.0680998398 au (0.0362%)
     Non-relativistic + relativistic energy:  -188.3541876678 au




                             Molecular gradient (au)
                             -----------------------

 C          0.0000000000            0.0000000000            0.0000000000
 C          0.0000000000            0.0000000000            0.0000000000
 C          0.0000000000            0.0000000000            0.0000000000
 O         -0.0007731155           -0.0044181382           -0.0148955124
 H          0.0039996243           -0.0058418800            0.0021954554
 H         -0.0203235604           -0.0065861247            0.0060776670
 H         -0.0023140911            0.0039357993           -0.0017642785
 H          0.0031609234           -0.0027974347            0.0056424245





                                  Dipole moment
                                  -------------

                 au               Debye          C m (/(10**-30)
              0.667725           1.697188           5.661210


                             Dipole moment components
                             ------------------------

                 au               Debye          C m (/(10**-30)

      x      0.27500338         0.69898882         2.33157573
      y     -0.00933274        -0.02372145        -0.07912624
      z     -0.60839379        -1.54638266        -5.15817732


   Units:   1 a.u. =   2.54175 Debye 
            1 a.u. =   8.47835 (10**-30) C m (SI)




   Interatomic separations (in Angstrom):
   --------------------------------------

            C           C           C           O           H           H     
            ------      ------      ------      ------      ------      ------
 C     :    0.000000
 C     :    2.416837    0.000000
 C     :    1.340000    1.450000    0.000000
 O     :    3.148952    1.220000    2.315146    0.000000
 H     :    1.080000    3.403924    2.099809    4.120570    0.000000
 H     :    3.049114    1.080000    2.198840    1.993088    4.026052    0.000000
 H     :    2.099809    2.198840    1.080000    2.958226    2.420000    2.854908
 H     :    1.080000    2.624633    2.099809    3.210093    1.870615    3.124340

            H           H     
            ------      ------
 H     :    0.000000
 H     :    3.058692    0.000000


  Max    interatomic separation is    4.1206 Angstrom (    7.7867 Bohr)
  between atoms    5 and    4, "H     " and "O     ".

  Min HX interatomic separation is    1.0800 Angstrom (    2.0409 Bohr)

  Min YX interatomic separation is    1.2200 Angstrom (    2.3055 Bohr)


  Bond distances (Angstrom):
  --------------------------

                  atom 1     atom 2       distance
                  ------     ------       --------
  bond distance:  C          C            1.340000
  bond distance:  C          C            1.450000
  bond distance:  O          C            1.220000
  bond distance:  H          C            1.080000
  bond distance:  H          C            1.080000
  bond distance:  H          C            1.080000
  bond distance:  H          C            1.080000


  Bond angles (degrees):
  ----------------------

                  atom 1     atom 2     atom 3         angle
                  ------     ------     ------         -----
  bond angle:     C          C          H            120.000
  bond angle:     C          C          H            120.000
  bond angle:     H          C          H            120.000
  bond angle:     C          C          O            120.000
  bond angle:     C          C          H            120.000
  bond angle:     O          C          H            120.000
  bond angle:     C          C          C            120.000
  bond angle:     C          C          H            120.000
  bond angle:     C          C          H            120.000




 CPU time statistics for ABACUS
 ------------------------------




 >>>> Total CPU  time used in ABACUS:   0.18 seconds
 >>>> Total wall time used in ABACUS:   0.19 seconds


                   .-------------------------------------------.
                   | End of Static Property Section (ABACUS) - |
                   `-------------------------------------------'

 
 Initial Hessian is a diagonal matrix.
 

 Predicted energy change       -0.000431956474750


  Step in diagonal representation
  -------------------------------


               Column   1     Column   2     Column   3     Column   4     Column   5

               Column   6     Column   7     Column   8     Column   9     Column  10
       1       0.00000000     0.00000000     0.00000000     0.00000000     0.00077312

               Column  11     Column  12     Column  13     Column  14     Column  15
       1       0.00441814     0.01489551    -0.00399962     0.00584188    -0.00219546

               Column  16     Column  17     Column  18     Column  19     Column  20
       1       0.02032356     0.00658612    -0.00607767     0.00231409    -0.00393580

               Column  21     Column  22     Column  23     Column  24
       1       0.00176428    -0.00316092     0.00279743    -0.00564242
    ==== End of matrix output ====


           :::::::::::::::::::::::::::::::::::::::::::::::::::::::::::
           ::::::::::::::: Optimization Control Center :::::::::::::::
           :::::::::::::::::::::::::::::::::::::::::::::::::::::::::::



                                Next geometry (au)
                                ------------------

 C         -1.2039490098            0.6299819763           -1.8443710751
 C          1.2056120532            0.0000000000            1.9839551839
 C          0.0666798969           -0.9449729645           -0.3221285864
 O          0.0007731155            0.0044181382            3.9639643569
 H         -2.0562567229           -0.0680180758           -3.5642013387
 H          3.1415068316            0.7104280569            1.9559035108
 H          0.2447748687           -2.9221173646           -0.8111171102
 H         -1.3828908139            2.6059880118           -1.3592606973





                             Optimization information
                             ------------------------

 Iteration number               :       0
 End of optimization            :       F 
 Energy at this geometry is     :    -188.286088
 Norm of gradient               :       0.029392
 Norm of step                   :       0.029392
 Updated trust radius           :       0.500000
 Total effective Hessian index  :       0




 **************************************************************************************
 ****************** Output of molecule and basis set info suppressed ******************
 **************************************************************************************



                     .---------------------------------------.
                     | Starting in Integral Section (HERMIT) |
                     `---------------------------------------'



 ***************************************************************************************
 ****************** Output from **INTEGRALS input processing (HERMIT) ******************
 ***************************************************************************************


 - Using defaults, no **INTEGRALS input found

 Default print level:       -1

 * Nuclear model: Point charge

 Calculation of one-electron Hamiltonian integrals.

 Center of mass  (bohr):      0.013907805271     -0.060335868484      1.024600634701
 Operator center (bohr):      0.000000000000      0.000000000000      0.000000000000
 Gauge origin    (bohr):      0.000000000000      0.000000000000      0.000000000000
 Dipole origin   (bohr):      0.000000000000      0.000000000000      0.000000000000
 >>>> Total CPU  time used in HERMIT:   0.03 seconds
 >>>> Total wall time used in HERMIT:   0.06 seconds


                        .----------------------------------.
                        | End of Integral Section (HERMIT) |
                        `----------------------------------'



                   .--------------------------------------------.
                   | Starting in Wave Function Section (SIRIUS) |
                   `--------------------------------------------'


 **********************************************************************
 *SIRIUS* a direct, restricted step, second order MCSCF program       *
 **********************************************************************

 (Wave function specification suppressed here, see output above for initial geometry.)


 *********************************************
 ***** DIIS optimization of Hartree-Fock *****
 *********************************************

 C1-DIIS algorithm; max error vectors =    8

 Iter      Total energy        Error norm    Delta(E)  DIIS dim.
 -----------------------------------------------------------------------------
   1  Screening settings (-IFTHRS, JTDIIS, DIFDEN, times)  -15    1    T  1.70D-02  1.60D-02
@  1    -188.286707824        1.65289D-02   -6.20D-04    1
      Virial theorem: -V/T =      2.007871
@      MULPOP C      -0.12; C       0.12; C      -0.08; O      -0.20; H       0.07; H       0.06; H       0.07; H       0.07; 
 -----------------------------------------------------------------------------
   2  Screening settings (-IFTHRS, JTDIIS, DIFDEN, times)   -9    2    F  2.30D-02  2.20D-02
@  2    -188.286729688        4.44022D-03   -2.19D-05    2
      Virial theorem: -V/T =      2.007842
@      MULPOP C      -0.12; C       0.12; C      -0.08; O      -0.20; H       0.07; H       0.06; H       0.07; H       0.07; 
 -----------------------------------------------------------------------------
   3  Screening settings (-IFTHRS, JTDIIS, DIFDEN, times)   -9    3    T  2.20D-02  2.20D-02
@  3    -188.286732163        1.13742D-03   -2.48D-06    3
      Virial theorem: -V/T =      2.007837
@      MULPOP C      -0.12; C       0.12; C      -0.08; O      -0.20; H       0.07; H       0.06; H       0.07; H       0.07; 
 -----------------------------------------------------------------------------
   4  Screening settings (-IFTHRS, JTDIIS, DIFDEN, times)   -9    4    T  2.10D-02  2.10D-02
@  4    -188.286732369        7.29367D-04   -2.06D-07    4
      Virial theorem: -V/T =      2.007834
@      MULPOP C      -0.12; C       0.12; C      -0.08; O      -0.20; H       0.07; H       0.06; H       0.07; H       0.07; 
 -----------------------------------------------------------------------------
   5  Screening settings (-IFTHRS, JTDIIS, DIFDEN, times)   -9    5    T  2.10D-02  2.00D-02
@  5    -188.286732420        2.02608D-04   -5.04D-08    5
      Virial theorem: -V/T =      2.007834
@      MULPOP C      -0.12; C       0.12; C      -0.08; O      -0.20; H       0.07; H       0.06; H       0.07; H       0.07; 
 -----------------------------------------------------------------------------
   6  Screening settings (-IFTHRS, JTDIIS, DIFDEN, times)  -11    6    F  2.10D-02  2.10D-02
@  6    -188.286732420        6.65821D-05   -8.41D-12    6
      Virial theorem: -V/T =      2.007834
@      MULPOP C      -0.12; C       0.12; C      -0.08; O      -0.20; H       0.07; H       0.06; H       0.07; H       0.07; 
 -----------------------------------------------------------------------------
   7  Screening settings (-IFTHRS, JTDIIS, DIFDEN, times)  -11    7    T  2.10D-02  2.10D-02
@  7    -188.286732420        1.94663D-05   -5.07D-10    7
      Virial theorem: -V/T =      2.007834
@      MULPOP C      -0.12; C       0.12; C      -0.08; O      -0.20; H       0.07; H       0.06; H       0.07; H       0.07; 
 -----------------------------------------------------------------------------
   8  Screening settings (-IFTHRS, JTDIIS, DIFDEN, times)  -11    8    T  2.20D-02  2.10D-02
@  8    -188.286732420        3.31913D-06   -7.20D-11    8
      Virial theorem: -V/T =      2.007834
@      MULPOP C      -0.12; C       0.12; C      -0.08; O      -0.20; H       0.07; H       0.06; H       0.07; H       0.07; 
 -----------------------------------------------------------------------------
   9  Screening settings (-IFTHRS, JTDIIS, DIFDEN, times)  -15    9    F  2.10D-02  2.10D-02
@  9    -188.286732420        1.56630D-06    2.27D-12    8
      Virial theorem: -V/T =      2.007834
@      MULPOP C      -0.12; C       0.12; C      -0.08; O      -0.20; H       0.07; H       0.06; H       0.07; H       0.07; 
 -----------------------------------------------------------------------------
  10  Screening settings (-IFTHRS, JTDIIS, DIFDEN, times)  -15   10    T  2.20D-02  2.10D-02
@ 10    -188.286732420        7.63045D-07   -1.25D-12    8
      Virial theorem: -V/T =      2.007834
@      MULPOP C      -0.12; C       0.12; C      -0.08; O      -0.20; H       0.07; H       0.06; H       0.07; H       0.07; 
 -----------------------------------------------------------------------------
  11  Screening settings (-IFTHRS, JTDIIS, DIFDEN, times)  -15   11    T  2.20D-02  2.10D-02
@ 11    -188.286732420        2.03249D-07   -2.27D-13    8
      Virial theorem: -V/T =      2.007834
@      MULPOP C      -0.12; C       0.12; C      -0.08; O      -0.20; H       0.07; H       0.06; H       0.07; H       0.07; 
 -----------------------------------------------------------------------------
  12  Screening settings (-IFTHRS, JTDIIS, DIFDEN, times)  -15   12    T  2.10D-02  2.20D-02
@ 12    -188.286732420        5.96664D-08   -1.71D-13    8
      Virial theorem: -V/T =      2.007834
@      MULPOP C      -0.12; C       0.12; C      -0.08; O      -0.20; H       0.07; H       0.06; H       0.07; H       0.07; 
 -----------------------------------------------------------------------------
  13  Screening settings (-IFTHRS, JTDIIS, DIFDEN, times)  -15   13    T  2.20D-02  2.10D-02
@ 13    -188.286732420        1.71596D-08    1.71D-13    8
      Virial theorem: -V/T =      2.007834
@      MULPOP C      -0.12; C       0.12; C      -0.08; O      -0.20; H       0.07; H       0.06; H       0.07; H       0.07; 
 -----------------------------------------------------------------------------
  14  Screening settings (-IFTHRS, JTDIIS, DIFDEN, times)  -15   14    T  2.20D-02  2.10D-02
@ 14    -188.286732420        4.94423D-09   -1.14D-13    8
      Virial theorem: -V/T =      2.007834
@      MULPOP C      -0.12; C       0.12; C      -0.08; O      -0.20; H       0.07; H       0.06; H       0.07; H       0.07; 
 -----------------------------------------------------------------------------
  15  Screening settings (-IFTHRS, JTDIIS, DIFDEN, times)  -15   15    T  2.10D-02  2.10D-02
@ 15    -188.286732420        2.36003D-09    5.68D-14    8
      Virial theorem: -V/T =      2.007834
@      MULPOP C      -0.12; C       0.12; C      -0.08; O      -0.20; H       0.07; H       0.06; H       0.07; H       0.07; 
 -----------------------------------------------------------------------------
  16  Screening settings (-IFTHRS, JTDIIS, DIFDEN, times)  -15   16    T  2.20D-02  2.10D-02
@ 16    -188.286732420        8.53508D-10   -2.27D-13    8
      Virial theorem: -V/T =      2.007834
@      MULPOP C      -0.12; C       0.12; C      -0.08; O      -0.20; H       0.07; H       0.06; H       0.07; H       0.07; 
 -----------------------------------------------------------------------------
  17  Screening settings (-IFTHRS, JTDIIS, DIFDEN, times)  -15   17    T  2.10D-02  2.10D-02
@ 17    -188.286732420        3.07723D-10    5.68D-14    8
      Virial theorem: -V/T =      2.007834
@      MULPOP C      -0.12; C       0.12; C      -0.08; O      -0.20; H       0.07; H       0.06; H       0.07; H       0.07; 
 -----------------------------------------------------------------------------
  18  Screening settings (-IFTHRS, JTDIIS, DIFDEN, times)  -15   18    T  2.10D-02  2.00D-02
@ 18    -188.286732420        9.32301D-11    1.14D-13    8

@ *** DIIS converged in  18 iterations !
@     Converged SCF energy, gradient:   -188.286732420133    9.32D-11
    - total time used in SIRFCK :              0.00 seconds


 *** SCF orbital energy analysis ***

 Only the five lowest virtual orbital energies printed in each symmetry.

 Number of electrons :   30
 Orbital occupations :   15

 Sym       Hartree-Fock orbital energies

1 A     -20.29186508   -11.12206879   -11.04023813   -11.03563533    -1.32689394
         -1.01506734    -0.82736514    -0.71750111    -0.63754716    -0.57446670
         -0.54085342    -0.50109661    -0.41399962    -0.34365265    -0.33049074
          0.28065960     0.29235319     0.63480315     0.66215528     0.67940582

    E(LUMO) :     0.28065960 au (symmetry 1)
  - E(HOMO) :    -0.33049074 au (symmetry 1)
  ------------------------------------------
    gap     :     0.61115034 au

 >>> Writing SIRIFC interface file

 >>>> CPU and wall time for SCF :       0.386       0.387


                       .-----------------------------------.
                       | >>> Final results from SIRIUS <<< |
                       `-----------------------------------'


@    Spin multiplicity:           1
@    Spatial symmetry:            1 ( irrep  A   in C1  )
@    Total charge of molecule:    0

@    Final HF energy:            -188.286732420133                 
@    Nuclear repulsion:           104.273181760340
@    Electronic energy:          -292.559914180473

@    Final gradient norm:           0.000000000093

 
     Date and time (Linux)  : Sun Nov 23 14:51:13 2014
     Host name              : c87n03                                  



 >>>> Total CPU  time used in SIRIUS :      0.39 seconds
 >>>> Total wall time used in SIRIUS :      0.39 seconds

 
     Date and time (Linux)  : Sun Nov 23 14:51:13 2014
     Host name              : c87n03                                  


                     .---------------------------------------.
                     | End of Wave Function Section (SIRIUS) |
                     `---------------------------------------'

 Trust radius increased due to good ratio.
 Updated trust radius   0.50000

     Order of analytical energy-derivatives available:   2
     This will be the default.

 Center of mass dipole origin  :    0.013908   -0.060336    1.024601

 Center of mass gauge origin   :    0.013908   -0.060336    1.024601


                 .------------------------------------------------.
                 | Starting in Static Property Section (ABACUS) - |
                 `------------------------------------------------'


 
     Date and time (Linux)  : Sun Nov 23 14:51:13 2014
     Host name              : c87n03                                  

 Largest deviation from tra-rot symmetry is in gradient element  4:  1.46E-09


   ***************************************************************************
   ************************ FINAL RESULTS from ABACUS ************************
   ***************************************************************************


 
     Date and time (Linux)  : Sun Nov 23 14:51:13 2014
     Host name              : c87n03                                  


 CPU time statistics for ABACUS
 ------------------------------




 >>>> Total CPU  time used in ABACUS:   0.17 seconds
 >>>> Total wall time used in ABACUS:   0.17 seconds


                   .-------------------------------------------.
                   | End of Static Property Section (ABACUS) - |
                   `-------------------------------------------'


 Predicted energy change       -0.000434025309581


  Step in diagonal representation
  -------------------------------


               Column   1     Column   2     Column   3     Column   4     Column   5
       1       0.04880711     0.00000000     0.00000000     0.00000000     0.00000000

               Column   6     Column   7     Column   8     Column   9     Column  10

               Column  11     Column  12     Column  13     Column  14     Column  15

               Column  16     Column  17     Column  18     Column  19     Column  20

               Column  21     Column  22     Column  23     Column  24
       1       0.00000000    -0.00000000     0.00000000     0.00317030
    ==== End of matrix output ====


           :::::::::::::::::::::::::::::::::::::::::::::::::::::::::::
           ::::::::::::::: Optimization Control Center :::::::::::::::
           :::::::::::::::::::::::::::::::::::::::::::::::::::::::::::



                                Next geometry (au)
                                ------------------

 C         -1.2039490098            0.6299819763           -1.8443710751
 C          1.2056120532            0.0000000000            1.9839551839
 C          0.0666798969           -0.9449729645           -0.3221285864
 O          0.0171287614            0.0149588192            3.9759852332
 H         -2.0650313212           -0.0542089770           -3.5683622548
 H          3.1724974855            0.7197333275            1.9420419585
 H          0.2499744949           -2.9285783372           -0.8062728035
 H         -1.3900077580            2.6112822870           -1.3724513271





                             Optimization information
                             ------------------------

 Iteration number               :       1
 End of optimization            :       F 
 Energy at this geometry is     :    -188.286732
 Energy change from last geom.  :      -0.000645
 Predicted change               :      -0.000432
 Ratio, actual/predicted change :       1.492262
 Norm of gradient               :       0.018055
 Norm of step                   :       0.048910
 Updated trust radius           :       0.500000
 Total effective Hessian index  :       0




 **************************************************************************************
 ****************** Output of molecule and basis set info suppressed ******************
 **************************************************************************************



                     .---------------------------------------.
                     | Starting in Integral Section (HERMIT) |
                     `---------------------------------------'



 ***************************************************************************************
 ****************** Output from **INTEGRALS input processing (HERMIT) ******************
 ***************************************************************************************


 - Using defaults, no **INTEGRALS input found

 Default print level:       -1

 * Nuclear model: Point charge

 Calculation of one-electron Hamiltonian integrals.

 Center of mass  (bohr):      0.018942318886     -0.056931806488      1.027558138897
 Operator center (bohr):      0.000000000000      0.000000000000      0.000000000000
 Gauge origin    (bohr):      0.000000000000      0.000000000000      0.000000000000
 Dipole origin   (bohr):      0.000000000000      0.000000000000      0.000000000000
 >>>> Total CPU  time used in HERMIT:   0.03 seconds
 >>>> Total wall time used in HERMIT:   0.07 seconds


                        .----------------------------------.
                        | End of Integral Section (HERMIT) |
                        `----------------------------------'



                   .--------------------------------------------.
                   | Starting in Wave Function Section (SIRIUS) |
                   `--------------------------------------------'


 **********************************************************************
 *SIRIUS* a direct, restricted step, second order MCSCF program       *
 **********************************************************************

 (Wave function specification suppressed here, see output above for initial geometry.)


 *********************************************
 ***** DIIS optimization of Hartree-Fock *****
 *********************************************

 C1-DIIS algorithm; max error vectors =    8

 Iter      Total energy        Error norm    Delta(E)  DIIS dim.
 -----------------------------------------------------------------------------
   1  Screening settings (-IFTHRS, JTDIIS, DIFDEN, times)  -15    1    T  1.60D-02  1.50D-02
@  1    -188.287240262        2.31021D-02   -5.08D-04    1
      Virial theorem: -V/T =      2.007976
@      MULPOP C      -0.12; C       0.12; C      -0.08; O      -0.20; H       0.07; H       0.06; H       0.07; H       0.07; 
 -----------------------------------------------------------------------------
   2  Screening settings (-IFTHRS, JTDIIS, DIFDEN, times)   -9    2    F  2.10D-02  2.00D-02
@  2    -188.287295908        7.33495D-03   -5.56D-05    2
      Virial theorem: -V/T =      2.007953
@      MULPOP C      -0.12; C       0.13; C      -0.08; O      -0.20; H       0.07; H       0.05; H       0.07; H       0.07; 
 -----------------------------------------------------------------------------
   3  Screening settings (-IFTHRS, JTDIIS, DIFDEN, times)   -9    3    T  2.10D-02  2.00D-02
@  3    -188.287301657        3.02672D-03   -5.75D-06    3
      Virial theorem: -V/T =      2.007958
@      MULPOP C      -0.12; C       0.13; C      -0.08; O      -0.20; H       0.07; H       0.05; H       0.08; H       0.07; 
 -----------------------------------------------------------------------------
   4  Screening settings (-IFTHRS, JTDIIS, DIFDEN, times)   -9    4    T  2.00D-02  2.00D-02
@  4    -188.287302489        7.58704D-04   -8.32D-07    4
      Virial theorem: -V/T =      2.007951
@      MULPOP C      -0.12; C       0.13; C      -0.08; O      -0.20; H       0.07; H       0.05; H       0.08; H       0.07; 
 -----------------------------------------------------------------------------
   5  Screening settings (-IFTHRS, JTDIIS, DIFDEN, times)   -9    5    T  2.00D-02  1.90D-02
@  5    -188.287302557        2.27960D-04   -6.83D-08    5
      Virial theorem: -V/T =      2.007951
@      MULPOP C      -0.12; C       0.13; C      -0.08; O      -0.20; H       0.07; H       0.05; H       0.08; H       0.07; 
 -----------------------------------------------------------------------------
   6  Screening settings (-IFTHRS, JTDIIS, DIFDEN, times)  -11    6    F  2.10D-02  2.00D-02
@  6    -188.287302569        9.06260D-05   -1.20D-08    6
      Virial theorem: -V/T =      2.007951
@      MULPOP C      -0.12; C       0.13; C      -0.08; O      -0.20; H       0.07; H       0.05; H       0.08; H       0.07; 
 -----------------------------------------------------------------------------
   7  Screening settings (-IFTHRS, JTDIIS, DIFDEN, times)  -11    7    T  2.00D-02  2.00D-02
@  7    -188.287302570        2.97016D-05   -1.33D-09    7
      Virial theorem: -V/T =      2.007951
@      MULPOP C      -0.12; C       0.13; C      -0.08; O      -0.20; H       0.07; H       0.05; H       0.08; H       0.07; 
 -----------------------------------------------------------------------------
   8  Screening settings (-IFTHRS, JTDIIS, DIFDEN, times)  -11    8    T  2.00D-02  2.00D-02
@  8    -188.287302571        7.07528D-06   -2.19D-10    8
      Virial theorem: -V/T =      2.007951
@      MULPOP C      -0.12; C       0.13; C      -0.08; O      -0.20; H       0.07; H       0.05; H       0.08; H       0.07; 
 -----------------------------------------------------------------------------
   9  Screening settings (-IFTHRS, JTDIIS, DIFDEN, times)  -11    9    T  2.00D-02  2.00D-02
@  9    -188.287302571        3.60955D-06   -1.73D-11    8
      Virial theorem: -V/T =      2.007951
@      MULPOP C      -0.12; C       0.13; C      -0.08; O      -0.20; H       0.07; H       0.05; H       0.08; H       0.07; 
 -----------------------------------------------------------------------------
  10  Screening settings (-IFTHRS, JTDIIS, DIFDEN, times)  -15   10    F  2.00D-02  2.00D-02
@ 10    -188.287302571        1.37132D-06   -1.94D-11    8
      Virial theorem: -V/T =      2.007951
@      MULPOP C      -0.12; C       0.13; C      -0.08; O      -0.20; H       0.07; H       0.05; H       0.08; H       0.07; 
 -----------------------------------------------------------------------------
  11  Screening settings (-IFTHRS, JTDIIS, DIFDEN, times)  -15   11    T  2.00D-02  2.10D-02
@ 11    -188.287302571        2.41687D-07   -1.25D-12    8
      Virial theorem: -V/T =      2.007951
@      MULPOP C      -0.12; C       0.13; C      -0.08; O      -0.20; H       0.07; H       0.05; H       0.08; H       0.07; 
 -----------------------------------------------------------------------------
  12  Screening settings (-IFTHRS, JTDIIS, DIFDEN, times)  -15   12    T  2.00D-02  2.00D-02
@ 12    -188.287302571        7.71288D-08    0.00D+00    8
      Virial theorem: -V/T =      2.007951
@      MULPOP C      -0.12; C       0.13; C      -0.08; O      -0.20; H       0.07; H       0.05; H       0.08; H       0.07; 
 -----------------------------------------------------------------------------
  13  Screening settings (-IFTHRS, JTDIIS, DIFDEN, times)  -15   13    T  2.00D-02  1.90D-02
@ 13    -188.287302571        2.31153D-08    1.14D-13    8
      Virial theorem: -V/T =      2.007951
@      MULPOP C      -0.12; C       0.13; C      -0.08; O      -0.20; H       0.07; H       0.05; H       0.08; H       0.07; 
 -----------------------------------------------------------------------------
  14  Screening settings (-IFTHRS, JTDIIS, DIFDEN, times)  -15   14    T  2.00D-02  2.00D-02
@ 14    -188.287302571        8.39232D-09    0.00D+00    8
      Virial theorem: -V/T =      2.007951
@      MULPOP C      -0.12; C       0.13; C      -0.08; O      -0.20; H       0.07; H       0.05; H       0.08; H       0.07; 
 -----------------------------------------------------------------------------
  15  Screening settings (-IFTHRS, JTDIIS, DIFDEN, times)  -15   15    T  2.00D-02  2.00D-02
@ 15    -188.287302571        2.93495D-09   -5.68D-14    8
      Virial theorem: -V/T =      2.007951
@      MULPOP C      -0.12; C       0.13; C      -0.08; O      -0.20; H       0.07; H       0.05; H       0.08; H       0.07; 
 -----------------------------------------------------------------------------
  16  Screening settings (-IFTHRS, JTDIIS, DIFDEN, times)  -15   16    T  1.90D-02  2.00D-02
@ 16    -188.287302571        9.19654D-10    5.68D-14    8
      Virial theorem: -V/T =      2.007951
@      MULPOP C      -0.12; C       0.13; C      -0.08; O      -0.20; H       0.07; H       0.05; H       0.08; H       0.07; 
 -----------------------------------------------------------------------------
  17  Screening settings (-IFTHRS, JTDIIS, DIFDEN, times)  -15   17    T  2.00D-02  1.90D-02
@ 17    -188.287302571        3.75758D-10   -1.14D-13    8
      Virial theorem: -V/T =      2.007951
@      MULPOP C      -0.12; C       0.13; C      -0.08; O      -0.20; H       0.07; H       0.05; H       0.08; H       0.07; 
 -----------------------------------------------------------------------------
  18  Screening settings (-IFTHRS, JTDIIS, DIFDEN, times)  -15   18    T  2.10D-02  2.00D-02
@ 18    -188.287302571        1.28349D-10    1.14D-13    8
      Virial theorem: -V/T =      2.007951
@      MULPOP C      -0.12; C       0.13; C      -0.08; O      -0.20; H       0.07; H       0.05; H       0.08; H       0.07; 
 -----------------------------------------------------------------------------
  19  Screening settings (-IFTHRS, JTDIIS, DIFDEN, times)  -15   19    T  2.00D-02  2.00D-02
@ 19    -188.287302571        4.00779D-11    0.00D+00    8

@ *** DIIS converged in  19 iterations !
@     Converged SCF energy, gradient:   -188.287302570623    4.01D-11
    - total time used in SIRFCK :              0.00 seconds


 *** SCF orbital energy analysis ***

 Only the five lowest virtual orbital energies printed in each symmetry.

 Number of electrons :   30
 Orbital occupations :   15

 Sym       Hartree-Fock orbital energies

1 A     -20.29140146   -11.12219529   -11.04105986   -11.03638121    -1.32579757
         -1.01503063    -0.82627789    -0.71429333    -0.63499521    -0.57478181
         -0.54070409    -0.50002853    -0.41344709    -0.34237737    -0.33100914
          0.28067070     0.29163029     0.62796388     0.65443619     0.68050511

    E(LUMO) :     0.28067070 au (symmetry 1)
  - E(HOMO) :    -0.33100914 au (symmetry 1)
  ------------------------------------------
    gap     :     0.61167985 au

 >>> Writing SIRIFC interface file

 >>>> CPU and wall time for SCF :       0.386       0.386


                       .-----------------------------------.
                       | >>> Final results from SIRIUS <<< |
                       `-----------------------------------'


@    Spin multiplicity:           1
@    Spatial symmetry:            1 ( irrep  A   in C1  )
@    Total charge of molecule:    0

@    Final HF energy:            -188.287302570623                 
@    Nuclear repulsion:           104.088351834842
@    Electronic energy:          -292.375654405465

@    Final gradient norm:           0.000000000040

 
     Date and time (Linux)  : Sun Nov 23 14:51:14 2014
     Host name              : c87n03                                  



 >>>> Total CPU  time used in SIRIUS :      0.39 seconds
 >>>> Total wall time used in SIRIUS :      0.39 seconds

 
     Date and time (Linux)  : Sun Nov 23 14:51:14 2014
     Host name              : c87n03                                  


                     .---------------------------------------.
                     | End of Wave Function Section (SIRIUS) |
                     `---------------------------------------'

 Trust radius increased due to good ratio.
 Updated trust radius   0.50000

     Order of analytical energy-derivatives available:   2
     This will be the default.

[...]
                 | Starting in Static Property Section (ABACUS) - |
                 `------------------------------------------------'


 
     Date and time (Linux)  : Sun Nov 23 14:51:59 2014
     Host name              : c87n03                                  

 Largest deviation from tra-rot symmetry is in gradient element  4:  3.57E-10


   ***************************************************************************
   ************************ FINAL RESULTS from ABACUS ************************
   ***************************************************************************


 
     Date and time (Linux)  : Sun Nov 23 14:51:59 2014
     Host name              : c87n03                                  


 CPU time statistics for ABACUS
 ------------------------------




 >>>> Total CPU  time used in ABACUS:   0.14 seconds
 >>>> Total wall time used in ABACUS:   0.14 seconds


                   .-------------------------------------------.
                   | End of Static Property Section (ABACUS) - |
                   `-------------------------------------------'


 Predicted energy change       -0.000000013581367


  Step in diagonal representation
  -------------------------------


               Column   1     Column   2     Column   3     Column   4     Column   5
       1      -0.00116277     0.00042669    -0.00026231     0.00018280     0.00000849

               Column   6     Column   7     Column   8     Column   9     Column  10
       1      -0.00000861     0.00002390    -0.00020646    -0.00004149     0.00011404

               Column  11     Column  12     Column  13     Column  14     Column  15
       1      -0.00005045     0.00001071     0.00000795     0.00000000     0.00000000

               Column  16     Column  17     Column  18     Column  19     Column  20

               Column  21     Column  22     Column  23     Column  24
       1       0.00000000     0.00000000    -0.00000648     0.00001836
    ==== End of matrix output ====


           :::::::::::::::::::::::::::::::::::::::::::::::::::::::::::
           ::::::::::::::: Optimization Control Center :::::::::::::::
           :::::::::::::::::::::::::::::::::::::::::::::::::::::::::::



                               Final geometry (au)
                               -------------------

 C         -1.2039490098            0.6299819763           -1.8443710751
 C          1.2056120532            0.0000000000            1.9839551839
 C          0.0666798969           -0.9449729645           -0.3221285864
 O          1.1000229564            2.2045644364            2.6820371885
 H         -2.0856196327            0.0109624664           -3.5844340725
 H          2.2132183175           -1.4227881750            3.1271232522
 H          0.2757638703           -2.9303631071           -0.7613810324
 H         -1.3896556266            2.6122104392           -1.3664914792





                             Optimization information
                             ------------------------

 Iteration number               :      74
 End of optimization            :       T 
 Energy at this geometry is     :    -188.298733
 Energy change from last geom.  :      -0.000000
 Predicted change               :      -0.000000
 Ratio, actual/predicted change :       1.412965
 Norm of gradient               :       0.000080
 Norm of step                   :       0.001303
 Updated trust radius           :       0.085777
 Total effective Hessian index  :       0




          <<<<<<<<<<<<<<<<<<<<<<<<<<<<<<<<<<<<<<<<<<<<<<<<<<<<<<<<<<<<<<
          <<<<<<<<<<<<<<<<<<<<  End of Optimization <<<<<<<<<<<<<<<<<<<<
          <<<<<<<<<<<<<<<<<<<<<<<<<<<<<<<<<<<<<<<<<<<<<<<<<<<<<<<<<<<<<<



                              Final geometry (bohr)
                              ---------------------

 C         -1.2039490098            0.6299819763           -1.8443710751
 C          1.2056120532            0.0000000000            1.9839551839
 C          0.0666798969           -0.9449729645           -0.3221285864
 O          1.1000229564            2.2045644364            2.6820371885
 H         -2.0856196327            0.0109624664           -3.5844340725
 H          2.2132183175           -1.4227881750            3.1271232522
 H          0.2757638703           -2.9303631071           -0.7613810324
 H         -1.3896556266            2.6122104392           -1.3664914792





                      Final geometry (xyz format; angstrom)
                      -------------------------------------

8

C       -0.6371023790            0.3333721051           -0.9759991412
C        0.6379824236            0.0000000000            1.0498638706
C        0.0352854819           -0.5000581576           -0.1704631069
O        0.5821070799            1.1666052595            1.4192729587
H       -1.1036623800            0.0058010874           -1.8968008248
H        1.1711846962           -0.7529070780            1.6548023604
H        0.1459279557           -1.5506813757           -0.4029054911
H       -0.7353740885            1.3823222342           -0.7231161495



@ Iter     Energy        Change       GradNorm  Index   StepLen    TrustRad #Rej
@ ------------------------------------------------------------------------------
@   0     -188.286088     0.000000     0.029392    0    0.029392*   0.500000   0 
@   1     -188.286732    -0.000645     0.018055    0    0.048910*   0.500000   0 
@   2     -188.287303    -0.000570     0.013645    0    0.037270*   0.500000   0 
@   3     -188.287587    -0.000285     0.013967    0    0.065359*   0.500000   0 
@   4     -188.287981    -0.000394     0.013761    0    0.060062*   0.500000   0 
@   5     -188.288272    -0.000291     0.010227    0    0.036227*   0.500000   0 
@   6     -188.288416    -0.000144     0.005845    0    0.014005*   0.500000   0 
@   7     -188.288464    -0.000048     0.005024    0    0.016395*   0.500000   0 
@   8     -188.288511    -0.000047     0.005195    0    0.026474*   0.500000   0 
@   9     -188.288568    -0.000057     0.004712    0    0.021436*   0.500000   0 
@  10     -188.288600    -0.000032     0.002682    0    0.007343*   0.500000   0 
@  11     -188.288608    -0.000008     0.001248    0    0.002677*   0.500000   0 
@  12     -188.288610    -0.000002     0.001017    0    0.003108*   0.500000   0 
@  13     -188.288612    -0.000002     0.001050    0    0.005380*   0.500000   0 
@  14     -188.288614    -0.000003     0.001076    0    0.005786*   0.500000   0 
@  15     -188.288617    -0.000002     0.000940    0    0.004579*   0.500000   0 
@  16     -188.288618    -0.000001     0.000860    0    0.004440*   0.500000   0 
@  17     -188.288619    -0.000001     0.000972    0    0.008036*   0.500000   0 
@  18     -188.288622    -0.000003     0.001294    0    0.014894*   0.500000   0 
@  19     -188.288626    -0.000004     0.001665    0    0.021126*   0.500000   0 
@  20     -188.288632    -0.000006     0.001707    0    0.018191*   0.500000   0 
@  21     -188.288636    -0.000005     0.001387    0    0.010754*   0.500000   0 
@  22     -188.288639    -0.000003     0.001269    0    0.010117*   0.500000   0 
@  23     -188.288643    -0.000003     0.001542    0    0.021045*   0.500000   0 
@  24     -188.288650    -0.000007     0.002222    0    0.048118*   0.500000   0 
@  25     -188.288663    -0.000013     0.003116    0    0.089007*   0.500000   0 
@  26     -188.288684    -0.000021     0.003638    0    0.082178*   0.500000   0 
@  27     -188.288703    -0.000020     0.003347    0    0.042561*   0.500000   0 
@  28     -188.288721    -0.000017     0.002856    0    0.052603*   0.500000   0 
@  29     -188.288738    -0.000017     0.003652    0    0.096080*   0.500000   0 
@  30     -188.288781    -0.000043     0.006084    0    0.324127*   0.500000   0 
@  31     -188.288798    -0.000017     0.019128    0    0.086408*   0.226889   0 
@  32     -188.289023    -0.000225     0.014570    0    0.226884*   0.226889   0 
@  33     -188.289297    -0.000274     0.018430    0    0.272265    0.272261   0 
@  34     -188.289633    -0.000337     0.025581    0    0.121939*   0.272265   1 
@  35     -188.289847    -0.000214     0.012275    0    0.061223*   0.121939   0 
@  36     -188.290037    -0.000190     0.011025    0    0.121938    0.121939   0 
@  37     -188.290320    -0.000283     0.014087    0    0.146326    0.146326   0 
@  38     -188.290837    -0.000517     0.016320    0    0.175591    0.175591   0 
@  39     -188.291732    -0.000895     0.014941    0    0.210709    0.210709   0 
@  40     -188.292700    -0.000968     0.017214    0    0.252852    0.252851   0 
@  41     -188.292826    -0.000126     0.023753    0    0.176997    0.176996   0 
@  42     -188.293399    -0.000573     0.028248    0    0.176997    0.176997   0 
@  43     -188.293464    -0.000065     0.013181    0    0.123898    0.123898   0 
@  44     -188.293768    -0.000304     0.008447    0    0.148677    0.148678   0 
@  45     -188.294040    -0.000272     0.013676    0    0.178412    0.178412   0 
@  46     -188.294410    -0.000370     0.018316    0    0.214093*   0.214094   0 
@  47     -188.295030    -0.000620     0.019328    0    0.180246*   0.256912   0 
@  48     -188.295672    -0.000642     0.014056    0    0.256913    0.256912   0 
@  49     -188.295960    -0.000287     0.025228    0    0.097985*   0.308296   0 
@  50     -188.296440    -0.000481     0.009465    0    0.122898*   0.308296   0 
@  51     -188.296592    -0.000152     0.009861    0    0.048125*   0.308296   0 
@  52     -188.296714    -0.000122     0.009422    0    0.087694*   0.308296   0 
@  53     -188.296963    -0.000249     0.011929    0    0.114960*   0.308296   0 
@  54     -188.297324    -0.000360     0.014424    0    0.120480*   0.308296   0 
@  55     -188.297664    -0.000340     0.014191    0    0.078819*   0.308296   0 
@  56     -188.297912    -0.000248     0.007523    0    0.102264*   0.308296   1 
@  57     -188.298014    -0.000102     0.012342    0    0.057772*   0.102264   0 
@  58     -188.298170    -0.000156     0.007918    0    0.102265    0.102264   0 
@  59     -188.298314    -0.000145     0.007489    0    0.122719    0.122719   0 
@  60     -188.298457    -0.000143     0.005508    0    0.147261*   0.147262   0 
@  61     -188.298565    -0.000108     0.007586    0    0.126912*   0.176713   0 
@  62     -188.298637    -0.000072     0.005060    0    0.085777*   0.176713   1 
@  63     -188.298669    -0.000032     0.005835    0    0.039455*   0.085777   0 
@  64     -188.298703    -0.000034     0.004554    0    0.036860*   0.085777   0 
@  65     -188.298720    -0.000017     0.001754    0    0.060578*   0.085777   0 
@  66     -188.298729    -0.000009     0.002126    0    0.008747*   0.085777   0 
@  67     -188.298732    -0.000003     0.000617    0    0.014839*   0.085777   0 
@  68     -188.298733    -0.000001     0.000271    0    0.001728*   0.085777   0 
@  69     -188.298733    -0.000000     0.000163    0    0.001819*   0.085777   0 
@  70     -188.298733    -0.000000     0.000132    0    0.002665*   0.085777   0 
@  71     -188.298733    -0.000000     0.000136    0    0.002655*   0.085777   0 
@  72     -188.298733    -0.000000     0.000148    0    0.001672*   0.085777   0 
@  73     -188.298733    -0.000000     0.000125    0    0.000829*   0.085777   0 
@  74     -188.298733    -0.000000     0.000080    0    0.001303*   0.085777   0 

@  *) Newton step taken.


   Interatomic separations (in Angstrom):
   --------------------------------------

            C           C           C           O           H           H     
            ------      ------      ------      ------      ------      ------
 C     :    0.000000
 C     :    2.416837    0.000000
 C     :    1.340000    1.450000    0.000000
 O     :    2.813908    1.224971    2.367286    0.000000
 H     :    1.082985    3.422893    2.129164    3.896874    0.000000
 H     :    3.372094    1.103234    2.164669    2.021637    4.285377    0.000000
 H     :    2.119252    2.181116    1.081703    3.300641    2.493158    2.433466
 H     :    1.083468    2.634460    2.107771    2.524306    1.846072    3.721380

            H           H     
            ------      ------
 H     :    0.000000
 H     :    3.079243    0.000000


  Max    interatomic separation is    4.2854 Angstrom (    8.0982 Bohr)
  between atoms    6 and    5, "H     " and "H     ".

  Min HX interatomic separation is    1.0817 Angstrom (    2.0441 Bohr)

  Min YX interatomic separation is    1.2250 Angstrom (    2.3149 Bohr)


  Bond distances (Angstrom):
  --------------------------

                  atom 1     atom 2       distance
                  ------     ------       --------
  bond distance:  C          C            1.340000
  bond distance:  C          C            1.450000
  bond distance:  O          C            1.224971
  bond distance:  H          C            1.082985
  bond distance:  H          C            1.103234
  bond distance:  H          C            1.081703
  bond distance:  H          C            1.083468


  Bond angles (degrees):
  ----------------------

                  atom 1     atom 2     atom 3         angle
                  ------     ------     ------         -----
  bond angle:     C          C          H            122.627
  bond angle:     C          C          H            120.488
  bond angle:     H          C          H            116.885
  bond angle:     C          C          O            124.283
  bond angle:     C          C          H            115.278
  bond angle:     O          C          H            120.439
  bond angle:     C          C          C            120.000
  bond angle:     C          C          H            121.752
  bond angle:     C          C          H            118.248



@ Geometry converged in 75 iterations!

@ Energy at final geometry is       :    -188.298733 a.u.
@ Energy change during optimization :      -0.012645 a.u.
@                                            -33.200 kJ/mol
 

 Center of mass dipole origin  :    0.310942    0.530795    0.680093

 Center of mass gauge origin   :    0.310942    0.530795    0.680093

     Order of analytical energy-derivatives available:   2
     This will be the default.


                 .------------------------------------------------.
                 | Starting in Static Property Section (ABACUS) - |
                 `------------------------------------------------'


 
     Date and time (Linux)  : Sun Nov 23 14:51:59 2014
     Host name              : c87n03                                  


   ***************************************************************************
   ************************ FINAL RESULTS from ABACUS ************************
   ***************************************************************************


 
     Date and time (Linux)  : Sun Nov 23 14:51:59 2014
     Host name              : c87n03                                  


                             Molecular geometry (au)
                             -----------------------

 C         -1.2039490098            0.6299819763           -1.8443710751
 C          1.2056120532            0.0000000000            1.9839551839
 C          0.0666798969           -0.9449729645           -0.3221285864
 O          1.1000229564            2.2045644364            2.6820371885
 H         -2.0856196327            0.0109624664           -3.5844340725
 H          2.2132183175           -1.4227881750            3.1271232522
 H          0.2757638703           -2.9303631071           -0.7613810324
 H         -1.3896556266            2.6122104392           -1.3664914792





                        Molecular wave function and energy
                        ----------------------------------

     Spin multiplicity  1     State number       1     Total charge       0

     Total energy       -188.2987331297 au (Hartrees)
                         -5123.86917344 eV
                           -494378.2476 kJ/mol


                             Relativistic corrections
                             ------------------------

     Darwin correction:                          0.2461771201 au
     Mass-velocity correction:                  -0.3142771374 au

     Total relativistic correction:             -0.0681000173 au (0.0362%)
     Non-relativistic + relativistic energy:  -188.3668331469 au




                                  Dipole moment
                                  -------------

                 au               Debye          C m (/(10**-30)
              0.687643           1.747815           5.830083


                             Dipole moment components
                             ------------------------

                 au               Debye          C m (/(10**-30)

      x     -0.10777673        -0.27394110        -0.91376914
      y     -0.54853141        -1.39422767        -4.65064293
      z     -0.40043828        -1.01781252        -3.39505714


   Units:   1 a.u. =   2.54175 Debye 
            1 a.u. =   8.47835 (10**-30) C m (SI)




   Interatomic separations (in Angstrom):
   --------------------------------------

            C           C           C           O           H           H     
            ------      ------      ------      ------      ------      ------
 C     :    0.000000
 C     :    2.416837    0.000000
 C     :    1.340000    1.450000    0.000000
 O     :    2.813908    1.224971    2.367286    0.000000
 H     :    1.082985    3.422893    2.129164    3.896874    0.000000
 H     :    3.372094    1.103234    2.164669    2.021637    4.285377    0.000000
 H     :    2.119252    2.181116    1.081703    3.300641    2.493158    2.433466
 H     :    1.083468    2.634460    2.107771    2.524306    1.846072    3.721380

            H           H     
            ------      ------
 H     :    0.000000
 H     :    3.079243    0.000000


  Max    interatomic separation is    4.2854 Angstrom (    8.0982 Bohr)
  between atoms    6 and    5, "H     " and "H     ".

  Min HX interatomic separation is    1.0817 Angstrom (    2.0441 Bohr)

  Min YX interatomic separation is    1.2250 Angstrom (    2.3149 Bohr)


  Bond distances (Angstrom):
  --------------------------

                  atom 1     atom 2       distance
                  ------     ------       --------
  bond distance:  C          C            1.340000
  bond distance:  C          C            1.450000
  bond distance:  O          C            1.224971
  bond distance:  H          C            1.082985
  bond distance:  H          C            1.103234
  bond distance:  H          C            1.081703
  bond distance:  H          C            1.083468


  Bond angles (degrees):
  ----------------------

                  atom 1     atom 2     atom 3         angle
                  ------     ------     ------         -----
  bond angle:     C          C          H            122.627
  bond angle:     C          C          H            120.488
  bond angle:     H          C          H            116.885
  bond angle:     C          C          O            124.283
  bond angle:     C          C          H            115.278
  bond angle:     O          C          H            120.439
  bond angle:     C          C          C            120.000
  bond angle:     C          C          H            121.752
  bond angle:     C          C          H            118.248




 CPU time statistics for ABACUS
 ------------------------------




 >>>> Total CPU  time used in ABACUS:   0.01 seconds
 >>>> Total wall time used in ABACUS:   0.01 seconds


                   .-------------------------------------------.
                   | End of Static Property Section (ABACUS) - |
                   `-------------------------------------------'

 >>>> Total CPU  time used in DALTON:  43.78 seconds
 >>>> Total wall time used in DALTON:  47.31 seconds

 
     Date and time (Linux)  : Sun Nov 23 14:51:59 2014
     Host name              : c87n03                                  
