

     ************************************************************************
     *************** Dalton - An Electronic Structure Program ***************
     ************************************************************************

    This is output from DALTON (Release Dalton2013 patch 0)
   ----------------------------------------------------------------------------
    NOTE:
     
    Dalton is an experimental code for the evaluation of molecular
    properties using (MC)SCF, DFT, CI, and CC wave functions.
    The authors accept no responsibility for the performance of
    the code or for the correctness of the results.
     
    The code (in whole or part) is provided under a licence and
    is not to be reproduced for further distribution without
    the written permission of the authors or their representatives.
     
    See the home page "http://daltonprogram.org" for further information.
     
    If results obtained with this code are published,
    the appropriate citations would be both of:
     
       K. Aidas, C. Angeli, K. L. Bak, V. Bakken, R. Bast,
       L. Boman, O. Christiansen, R. Cimiraglia, S. Coriani,
       P. Dahle, E. K. Dalskov, U. Ekstroem, T. Enevoldsen,
       J. J. Eriksen, P. Ettenhuber, B. Fernandez, L. Ferrighi,
       H. Fliegl, L. Frediani, K. Hald, A. Halkier, C. Haettig,
       H. Heiberg, T. Helgaker, A. C. Hennum, H. Hettema,
       E. Hjertenaes, S. Hoest, I.-M. Hoeyvik, M. F. Iozzi,
       B. Jansik, H. J. Aa. Jensen, D. Jonsson, P. Joergensen,
       J. Kauczor, S. Kirpekar, T. Kjaergaard, W. Klopper,
       S. Knecht, R. Kobayashi, H. Koch, J. Kongsted, A. Krapp,
       K. Kristensen, A. Ligabue, O. B. Lutnaes, J. I. Melo,
       K. V. Mikkelsen, R. H. Myhre, C. Neiss, C. B. Nielsen,
       P. Norman, J. Olsen, J. M. H. Olsen, A. Osted,
       M. J. Packer, F. Pawlowski, T. B. Pedersen, P. F. Provasi,
       S. Reine, Z. Rinkevicius, T. A. Ruden, K. Ruud, V. Rybkin,
       P. Salek, C. C. M. Samson, A. Sanchez de Meras, T. Saue,
       S. P. A. Sauer, B. Schimmelpfennig, K. Sneskov,
       A. H. Steindal, K. O. Sylvester-Hvid, P. R. Taylor,
       A. M. Teale, E. I. Tellgren, D. P. Tew, A. J. Thorvaldsen,
       L. Thoegersen, O. Vahtras, M. A. Watson, D. J. D. Wilson,
       M. Ziolkowski and H. Agren.
       The Dalton quantum chemistry program system.
       WIREs Comput. Mol. Sci. 2013. doi: 10.1002/wcms.1172
    
    and
    
       Dalton, a Molecular Electronic Structure Program,
       Release DALTON2013.0 (2013), see http://daltonprogram.org
   ----------------------------------------------------------------------------

    Authors in alphabetical order (major contribution(s) in parenthesis):

  Kestutis Aidas,           Vilnius University,           Lithuania   (QM/MM)
  Celestino Angeli,         University of Ferrara,        Italy       (NEVPT2)
  Keld L. Bak,              UNI-C,                        Denmark     (AOSOPPA, non-adiabatic coupling, magnetic properties)
  Vebjoern Bakken,          University of Oslo,           Norway      (DALTON; geometry optimizer, symmetry detection)
  Radovan Bast,             KTH Stockholm                 Sweden      (DALTON installation and execution frameworks)
  Linus Boman,              NTNU,                         Norway      (Cholesky decomposition and subsystems)
  Ove Christiansen,         Aarhus University,            Denmark     (CC module)
  Renzo Cimiraglia,         University of Ferrara,        Italy       (NEVPT2)
  Sonia Coriani,            University of Trieste,        Italy       (CC module, MCD in RESPONS)
  Paal Dahle,               University of Oslo,           Norway      (Parallelization)
  Erik K. Dalskov,          UNI-C,                        Denmark     (SOPPA)
  Thomas Enevoldsen,        Univ. of Southern Denmark,    Denmark     (SOPPA)
  Janus J. Eriksen,         Aarhus University,            Denmark     (PE-MP2/SOPPA, TDA)
  Berta Fernandez,          U. of Santiago de Compostela, Spain       (doublet spin, ESR in RESPONS)
  Lara Ferrighi,            Aarhus University,            Denmark     (PCM Cubic response)
  Heike Fliegl,             University of Oslo,           Norway      (CCSD(R12))
  Luca Frediani,            UiT The Arctic U. of Norway,  Norway      (PCM)
  Bin Gao,                  UiT The Arctic U. of Norway,  Norway      (Gen1Int library)
  Christof Haettig,         Ruhr-University Bochum,       Germany     (CC module)
  Kasper Hald,              Aarhus University,            Denmark     (CC module)
  Asger Halkier,            Aarhus University,            Denmark     (CC module)
  Hanne Heiberg,            University of Oslo,           Norway      (geometry analysis, selected one-electron integrals)
  Trygve Helgaker,          University of Oslo,           Norway      (DALTON; ABACUS, ERI, DFT modules, London, and much more)
  Alf Christian Hennum,     University of Oslo,           Norway      (Parity violation)
  Hinne Hettema,            University of Auckland,       New Zealand (quadratic response in RESPONS; SIRIUS supersymmetry)
  Eirik Hjertenaes,         NTNU,                         Norway      (Cholesky decomposition)
  Maria Francesca Iozzi,    University of Oslo,           Norway      (RPA)
  Brano Jansik              Technical Univ. of Ostrava    Czech Rep.  (DFT cubic response)
  Hans Joergen Aa. Jensen,  Univ. of Southern Denmark,    Denmark     (DALTON; SIRIUS, RESPONS, ABACUS modules, London, and much more)
  Dan Jonsson,              UiT The Arctic U. of Norway,  Norway      (cubic response in RESPONS module)
  Poul Joergensen,          Aarhus University,            Denmark     (RESPONS, ABACUS, and CC modules)
  Joanna Kauczor,           Linkoeping University,        Sweden      (Complex polarization propagator (CPP) module)
  Sheela Kirpekar,          Univ. of Southern Denmark,    Denmark     (Mass-velocity & Darwin integrals)
  Wim Klopper,              KIT Karlsruhe,                Germany     (R12 code in CC, SIRIUS, and ABACUS modules)
  Stefan Knecht,            ETH Zurich,                   Switzerland (Parallel CI and MCSCF)
  Rika Kobayashi,           Australian National Univ.,    Australia   (DIIS in CC, London in MCSCF)
  Henrik Koch,              NTNU,                         Norway      (CC module, Cholesky decomposition)
  Jacob Kongsted,           Univ. of Southern Denmark,    Denmark     (Polarizable embedding, QM/MM)
  Andrea Ligabue,           University of Modena,         Italy       (CTOCD, AOSOPPA)
  Ola B. Lutnaes,           University of Oslo,           Norway      (DFT Hessian)
  Juan I. Melo,             University of Buenos Aires,   Argentina   (LRESC, Relativistic Effects on NMR Shieldings)
  Kurt V. Mikkelsen,        University of Copenhagen,     Denmark     (MC-SCRF and QM/MM)
  Rolf H. Myhre,            NTNU,                         Norway      (Cholesky, subsystems and ECC2)
  Christian Neiss,          Univ. Erlangen-Nuernberg,     Germany     (CCSD(R12))
  Christian B. Nielsen,     University of Copenhagen,     Denmark     (QM/MM)
  Patrick Norman,           Linkoeping University,        Sweden      (Cubic response and complex response in RESPONS)
  Jeppe Olsen,              Aarhus University,            Denmark     (SIRIUS CI/density modules)
  Jogvan Magnus H. Olsen,   Univ. of Southern Denmark,    Denmark     (Polarizable embedding, PE library, QM/MM)
  Anders Osted,             Copenhagen University,        Denmark     (QM/MM)
  Martin J. Packer,         University of Sheffield,      UK          (SOPPA)
  Filip Pawlowski,          Kazimierz Wielki University   Poland      (CC3)
  Thomas B. Pedersen,       University of Oslo,           Norway      (Cholesky decomposition)
  Patricio F. Provasi,      University of Northeastern,   Argentina   (Analysis of coupling constants in localized orbitals)
  Zilvinas Rinkevicius,     KTH Stockholm,                Sweden      (open-shell DFT, ESR)
  Elias Rudberg,            KTH Stockholm,                Sweden      (DFT grid and basis info)
  Torgeir A. Ruden,         University of Oslo,           Norway      (Numerical derivatives in ABACUS)
  Kenneth Ruud,             UiT The Arctic U. of Norway,  Norway      (DALTON; ABACUS magnetic properties and  much more)
  Pawel Salek,              KTH Stockholm,                Sweden      (DALTON; DFT code)
  Claire C. M. Samson       University of Karlsruhe       Germany     (Boys localization, r12 integrals in ERI)
  Alfredo Sanchez de Meras, University of Valencia,       Spain       (CC module, Cholesky decomposition)
  Trond Saue,               Paul Sabatier University,     France      (direct Fock matrix construction)
  Stephan P. A. Sauer,      University of Copenhagen,     Denmark     (SOPPA(CCSD), SOPPA prop., AOSOPPA, vibrational g-factors)
  Bernd Schimmelpfennig,    Forschungszentrum Karlsruhe,  Germany     (AMFI module)
  Kristian Sneskov,         Aarhus University,            Denmark     (QM/MM, PE-CC)
  Arnfinn H. Steindal,      UiT The Arctic U. of Norway,  Norway      (parallel QM/MM)
  K. O. Sylvester-Hvid,     University of Copenhagen,     Denmark     (MC-SCRF)
  Peter R. Taylor,          VLSCI/Univ. of Melbourne,     Australia   (Symmetry handling ABACUS, integral transformation)
  Andrew M. Teale,          University of Nottingham,     England     (DFT-AC, DFT-D)
  David P. Tew,             University of Bristol,        England     (CCSD(R12))
  Olav Vahtras,             KTH Stockholm,                Sweden      (triplet response, spin-orbit, ESR, TDDFT, open-shell DFT)
  David J. Wilson,          La Trobe University,          Australia   (DFT Hessian and DFT magnetizabilities)
  Hans Agren,               KTH Stockholm,                Sweden      (SIRIUS module, RESPONS, MC-SCRF solvation model)
 --------------------------------------------------------------------------------

     Date and time (Linux)  : Sun Sep  8 20:49:44 2013
     Host name              : lpqlx131.ups-tlse.fr                    

 * Work memory size             :    64000000 =  488.28 megabytes.

 * Directories for basis set searches:
   1) /home/bast/DALTON-2013.0-Source/build/test_rsp_ecphosph
   2) /home/bast/DALTON-2013.0-Source/build/basis


Compilation information
-----------------------

 Who compiled             | bast
 Host                     | lpqlx131.ups-tlse.fr
 System                   | Linux-3.8.5-201.fc18.x86_64
 CMake generator          | Unix Makefiles
 Processor                | x86_64
 64-bit integers          | OFF
 MPI                      | OFF
 Fortran compiler         | /usr/bin/gfortran
 Fortran compiler version | GNU Fortran (GCC) 4.7.2 20121109 (Red Hat 4.7.2-8)
 C compiler               | /usr/bin/gcc
 C compiler version       | gcc (GCC) 4.7.2 20121109 (Red Hat 4.7.2-8)
 C++ compiler             | /usr/bin/g++
 C++ compiler version     | g++ (GCC) 4.7.2 20121109 (Red Hat 4.7.2-8)
 Static linking           | OFF
 Last Git revision        | f34203295a86316e27f9e7b44f9b6769c4a046c0
 Configuration time       | 2013-09-08 20:31:27.952056


   Content of the .dal input file
 ----------------------------------

**DALTON INPUT                                    
.RUN RESPONS                                      
**WAVE FUNCTIONS                                  
.HF                                               
.MP2                                              
.MCSCF                                            
*SCF INPUT                                        
.DOUBLY OCCUPIED                                  
 3 1 1 0 2 0 1 0                                  
*CONFIGURATION INPUT                              
.INACTIVE                                         
 1 0 0 0 1 0 0 0                                  
.ELECTRONS                                        
 12                                               
.CAS SPACE                                        
 3 1 2 0 3 1 2 0                                  
.SYMMET                                           
 1                                                
.SPIN MULT                                        
 1                                                
**RESPONS                                         
*QUADRATIC                                        
.ECPHOS                                           
.PRINT                                            
 5                                                
.ROOTS                                            
  0 0 0 0 1 0 0 0                                 
**END OF INPUT                                    


   Content of the .mol file
 ----------------------------

ATOMBASIS                                                                      
AMFI spin-orbit and phosphorescence                                            
                                                                               
    2    3  X  Y  Z 1 1.00D-12                                                 
        6.0   1 Basis=ano-1 3 2 0 0                                            
C             0.000000       0.000000       1.257892                           
        1.0   1 Basis=ano-1 2 1 0 0                                            
H             0.000000       1.745462       2.342716                           


       *******************************************************************
       *********** Output from DALTON general input processing ***********
       *******************************************************************

 --------------------------------------------------------------------------------
   Overall default print level:    0
   Print level for DALTON.STAT:    1

    HERMIT 1- and 2-electron integral sections will be executed
    "Old" integral transformation used (limited to max 255 basis functions)
    Wave function sections will be executed (SIRIUS module)
    Dynamic molecular response properties section will be executed (RESPONSE module)
 --------------------------------------------------------------------------------


   ****************************************************************************
   *************** Output of molecule and basis set information ***************
   ****************************************************************************


    The two title cards from your ".mol" input:
    ------------------------------------------------------------------------
 1: AMFI spin-orbit and phosphorescence                                     
 2:                                                                         
    ------------------------------------------------------------------------

  Atomic type no.    1
  --------------------
  Nuclear charge:   6.00000
  Number of symmetry independent centers:    1
  Number of basis sets to read;    2
  The basis set is "ano-1 3 2 0 0" from the basis set library.
  Basis set file used for this atomic type with Z =   6 :
     "/home/bast/DALTON-2013.0-Source/build/basis/ano-1"

  Atomic type no.    2
  --------------------
  Nuclear charge:   1.00000
  Number of symmetry independent centers:    1
  Number of basis sets to read;    2
  The basis set is "ano-1 2 1 0 0" from the basis set library.
  Basis set file used for this atomic type with Z =   1 :
     "/home/bast/DALTON-2013.0-Source/build/basis/ano-1"


                         SYMGRP: Point group information
                         -------------------------------

Point group: D2h

   * The point group was generated by:

      Reflection in the yz-plane
      Reflection in the xz-plane
      Reflection in the xy-plane

   * Group multiplication table

        |  E   C2z  C2y  C2x   i   Oxy  Oxz  Oyz
   -----+----------------------------------------
     E  |  E   C2z  C2y  C2x   i   Oxy  Oxz  Oyz
    C2z | C2z   E   C2x  C2y  Oxy   i   Oyz  Oxz
    C2y | C2y  C2x   E   C2z  Oxz  Oyz   i   Oxy
    C2x | C2x  C2y  C2z   E   Oyz  Oxz  Oxy   i 
     i  |  i   Oxy  Oxz  Oyz   E   C2z  C2y  C2x
    Oxy | Oxy   i   Oyz  Oxz  C2z   E   C2x  C2y
    Oxz | Oxz  Oyz   i   Oxy  C2y  C2x   E   C2z
    Oyz | Oyz  Oxz  Oxy   i   C2x  C2y  C2z   E 

   * Character table

        |  E   C2z  C2y  C2x   i   Oxy  Oxz  Oyz
   -----+----------------------------------------
    Ag  |   1    1    1    1    1    1    1    1
    B3u |   1   -1   -1    1   -1    1    1   -1
    B2u |   1   -1    1   -1   -1    1   -1    1
    B1g |   1    1   -1   -1    1    1   -1   -1
    B1u |   1    1   -1   -1   -1   -1    1    1
    B2g |   1   -1    1   -1    1   -1    1   -1
    B3g |   1   -1   -1    1    1   -1   -1    1
    Au  |   1    1    1    1   -1   -1   -1   -1

   * Direct product table

        | Ag   B3u  B2u  B1g  B1u  B2g  B3g  Au 
   -----+----------------------------------------
    Ag  | Ag   B3u  B2u  B1g  B1u  B2g  B3g  Au 
    B3u | B3u  Ag   B1g  B2u  B2g  B1u  Au   B3g
    B2u | B2u  B1g  Ag   B3u  B3g  Au   B1u  B2g
    B1g | B1g  B2u  B3u  Ag   Au   B3g  B2g  B1u
    B1u | B1u  B2g  B3g  Au   Ag   B3u  B2u  B1g
    B2g | B2g  B1u  Au   B3g  B3u  Ag   B1g  B2u
    B3g | B3g  Au   B1u  B2g  B2u  B1g  Ag   B3u
    Au  | Au   B3g  B2g  B1u  B1g  B2u  B3u  Ag 


                                 Isotopic Masses
                                 ---------------

                           C   _1     12.000000
                           C   _2     12.000000
                           H   _1      1.007825
                           H   _2      1.007825
                           H   _3      1.007825
                           H   _4      1.007825

                       Total mass:    28.031300 amu
                       Natural abundance:  97.753 %

 Center-of-mass coordinates (a.u.):    0.000000    0.000000    0.000000


  Atoms and basis sets
  --------------------

  Number of atom types :    2
  Total number of atoms:    6

  label    atoms   charge   prim   cont     basis
  ----------------------------------------------------------------------
  C           2    6.0000    41     9      [14s9p|3s2p]                                       
  H           4    1.0000    20     5      [8s4p|2s1p]                                        
  ----------------------------------------------------------------------
  total:      6   16.0000   162    38
  ----------------------------------------------------------------------

  Threshold for neglecting AO integrals:  1.10D-11


  Cartesian Coordinates (a.u.)
  ----------------------------

  Total number of coordinates:   18
  C   / 1 :     1  x   0.0000000000    2  y   0.0000000000    3  z   1.2578920000
  C   / 2 :     4  x   0.0000000000    5  y   0.0000000000    6  z  -1.2578920000
  H   / 1 :     7  x   0.0000000000    8  y   1.7454620000    9  z   2.3427160000
  H   / 2 :    10  x   0.0000000000   11  y  -1.7454620000   12  z   2.3427160000
  H   / 3 :    13  x   0.0000000000   14  y   1.7454620000   15  z  -2.3427160000
  H   / 4 :    16  x   0.0000000000   17  y  -1.7454620000   18  z  -2.3427160000


  Symmetry Coordinates
  --------------------

  Number of coordinates in each symmetry:     3    2    3    1    3    2    3    1

  Symmetry  Ag  ( 1)

    1   C     z    [  3  -    6 ]/2
    2   H     y    [  8  -   11  +   14  -   17 ]/4
    3   H     z    [  9  +   12  -   15  -   18 ]/4

  Symmetry  B3u ( 2)

    4   C     x    [  1  +    4 ]/2
    5   H     x    [  7  +   10  +   13  +   16 ]/4

  Symmetry  B2u ( 3)

    6   C     y    [  2  +    5 ]/2
    7   H     y    [  8  +   11  +   14  +   17 ]/4
    8   H     z    [  9  -   12  -   15  +   18 ]/4

  Symmetry  B1g ( 4)

    9   H     x    [  7  -   10  +   13  -   16 ]/4

  Symmetry  B1u ( 5)

   10   C     z    [  3  +    6 ]/2
   11   H     y    [  8  -   11  -   14  +   17 ]/4
   12   H     z    [  9  +   12  +   15  +   18 ]/4

  Symmetry  B2g ( 6)

   13   C     x    [  1  -    4 ]/2
   14   H     x    [  7  +   10  -   13  -   16 ]/4

  Symmetry  B3g ( 7)

   15   C     y    [  2  -    5 ]/2
   16   H     y    [  8  +   11  -   14  -   17 ]/4
   17   H     z    [  9  -   12  +   15  -   18 ]/4

  Symmetry  Au  ( 8)

   18   H     x    [  7  -   10  -   13  +   16 ]/4


   Interatomic separations (in Angstrom):
   --------------------------------------

            C   _1      C   _2      H   _1      H   _2      H   _3      H   _4
            ------      ------      ------      ------      ------      ------
 C   _1:    0.000000
 C   _2:    1.331296    0.000000
 H   _1:    1.087518    2.117437    0.000000
 H   _2:    1.087518    2.117437    1.847317    0.000000
 H   _3:    2.117437    1.087518    2.479424    3.091945    0.000000
 H   _4:    2.117437    1.087518    3.091945    2.479424    1.847317    0.000000


  Max    interatomic separation is    3.0919 Angstrom (    5.8429 Bohr)
  between atoms    5 and    4, "H   _3" and "H   _2".

  Min HX interatomic separation is    1.0875 Angstrom (    2.0551 Bohr)

  Min YX interatomic separation is    1.3313 Angstrom (    2.5158 Bohr)


  Bond distances (Angstrom):
  --------------------------

                  atom 1     atom 2       distance
                  ------     ------       --------
  bond distance:  C   _2     C   _1       1.331296
  bond distance:  H   _1     C   _1       1.087518
  bond distance:  H   _2     C   _1       1.087518
  bond distance:  H   _3     C   _2       1.087518
  bond distance:  H   _4     C   _2       1.087518


  Bond angles (degrees):
  ----------------------

                  atom 1     atom 2     atom 3         angle
                  ------     ------     ------         -----
  bond angle:     C   _2     C   _1     H   _1       121.861
  bond angle:     C   _2     C   _1     H   _2       121.861
  bond angle:     H   _1     C   _1     H   _2       116.277
  bond angle:     C   _1     C   _2     H   _3       121.861
  bond angle:     C   _1     C   _2     H   _4       121.861
  bond angle:     H   _3     C   _2     H   _4       116.277




 Principal moments of inertia (u*A**2) and principal axes
 --------------------------------------------------------

   IA       3.439285          0.000000    0.000000    1.000000
   IB      16.829734          0.000000    1.000000    0.000000
   IC      20.269019          1.000000    0.000000    0.000000


 Rotational constants
 --------------------

 The molecule is planar.

               A                   B                   C

         146943.0385          30028.9355          24933.5696 MHz
            4.901492            1.001657            0.831694 cm-1


@  Nuclear repulsion energy :   33.327855514045 Hartree


  Symmetry Orbitals
  -----------------

  Number of orbitals in each symmetry:           9    3    6    1    9    3    6    1


  Symmetry  Ag ( 1)

    1     C        1s         1 +    2
    2     C        1s         3 +    4
    3     C        1s         5 +    6
    4     C        2pz       11 -   12
    5     C        2pz       17 -   18
    6     H        1s        19 +   20 +   21 +   22
    7     H        1s        23 +   24 +   25 +   26
    8     H        2py       31 -   32 +   33 -   34
    9     H        2pz       35 +   36 -   37 -   38


  Symmetry  B3u( 2)

   10     C        2px        7 +    8
   11     C        2px       13 +   14
   12     H        2px       27 +   28 +   29 +   30


  Symmetry  B2u( 3)

   13     C        2py        9 +   10
   14     C        2py       15 +   16
   15     H        1s        19 -   20 +   21 -   22
   16     H        1s        23 -   24 +   25 -   26
   17     H        2py       31 +   32 +   33 +   34
   18     H        2pz       35 -   36 -   37 +   38


  Symmetry  B1g( 4)

   19     H        2px       27 -   28 +   29 -   30


  Symmetry  B1u( 5)

   20     C        1s         1 -    2
   21     C        1s         3 -    4
   22     C        1s         5 -    6
   23     C        2pz       11 +   12
   24     C        2pz       17 +   18
   25     H        1s        19 +   20 -   21 -   22
   26     H        1s        23 +   24 -   25 -   26
   27     H        2py       31 -   32 -   33 +   34
   28     H        2pz       35 +   36 +   37 +   38


  Symmetry  B2g( 6)

   29     C        2px        7 -    8
   30     C        2px       13 -   14
   31     H        2px       27 +   28 -   29 -   30


  Symmetry  B3g( 7)

   32     C        2py        9 -   10
   33     C        2py       15 -   16
   34     H        1s        19 -   20 -   21 +   22
   35     H        1s        23 -   24 -   25 +   26
   36     H        2py       31 +   32 -   33 -   34
   37     H        2pz       35 -   36 +   37 -   38


  Symmetry  Au ( 8)

   38     H        2px       27 -   28 -   29 +   30

  Symmetries of electric field:  B3u(2)  B2u(3)  B1u(5)

  Symmetries of magnetic field:  B3g(7)  B2g(6)  B1g(4)


                     .---------------------------------------.
                     | Starting in Integral Section (HERMIT) |
                     `---------------------------------------'



    *************************************************************************
    ****************** Output from HERMIT input processing ******************
    *************************************************************************



     ************************************************************************
     ************************** Output from HERINT **************************
     ************************************************************************


 Threshold for neglecting two-electron integrals:  1.10D-11
 Number of two-electron integrals written:       39361 ( 14.3% )
 Megabytes written:                              0.453

 >>>  Time used in TWOINT     is   0.72 seconds
 >>>> Total CPU  time used in HERMIT:   0.77 seconds
 >>>> Total wall time used in HERMIT:   0.83 seconds


                        .----------------------------------.
                        | End of Integral Section (HERMIT) |
                        `----------------------------------'



                   .--------------------------------------------.
                   | Starting in Wave Function Section (SIRIUS) |
                   `--------------------------------------------'


 *** Output from Huckel module :

     Using EWMO model:          F
     Using EHT  model:          T
     Number of Huckel orbitals each symmetry:    4    1    2    0    4    1    2    0

 Huckel EHT eigenvalues for symmetry :  1
          -11.391109      -1.279898      -0.516538      -0.207825

 Huckel EHT eigenvalues for symmetry :  2
           -0.520950

 Huckel EHT eigenvalues for symmetry :  3
           -0.746680      -0.209736

 Huckel EHT eigenvalues for symmetry :  5
          -11.373834      -0.914519      -0.233156      -0.170278

 Huckel EHT eigenvalues for symmetry :  6
           -0.292850

 Huckel EHT eigenvalues for symmetry :  7
           -0.507195      -0.177831

 **********************************************************************
 *SIRIUS* a direct, restricted step, second order MCSCF program       *
 **********************************************************************

 
     Date and time (Linux)  : Sun Sep  8 20:49:45 2013
     Host name              : lpqlx131.ups-tlse.fr                    

 Title lines from ".mol" input file:
     AMFI spin-orbit and phosphorescence                                     
                                                                             

 Print level on unit LUPRI =   2 is   0
 Print level on unit LUW4  =   2 is   5

@    MC-SCF optimization.

@    Multi-configurational response calculation.
@              Type: complete active space calculation (CAS).

@    This is a combination run starting with
@              a restricted, closed shell Hartree-Fock calculation
@              an MP2 calculation


 Initial molecular orbitals are obtained according to
 ".MOSTART EHT   " input option

     Wave function specification
     ============================
@    For the wave function of type :      >>> MC-SCF <<<
@    Number of closed shell electrons           4
@    Number of electrons in active shells      12
@    Total charge of the molecule               0

@    Spin multiplicity and 2 M_S                1         0
     Total number of symmetries                 8
@    Reference state symmetry                   1

     Orbital specifications
     ======================
     Abelian symmetry species          All |    1    2    3    4    5    6    7    8
                                       --- |  ---  ---  ---  ---  ---  ---  ---  ---
@    Inactive orbitals                   2 |    1    0    0    0    1    0    0    0
@    Active orbitals                    12 |    3    1    2    0    3    1    2    0
     Secondary orbitals                 24 |    5    2    4    1    5    2    4    1
     Total number of orbitals           38 |    9    3    6    1    9    3    6    1
     Number of basis functions          38 |    9    3    6    1    9    3    6    1

      -- Initial occupation of symmetries is determined from user input.                      
      -- Initial occupation of symmetries is :
@    Occupied SCF orbitals               8 |    3    1    1    0    2    0    1    0

     Optimization information
     ========================
@    Number of configurations             29248
@    Number of orbital rotations             66
     ------------------------------------------
@    Total number of variables            29314

     Maximum number of macro iterations      25
     Maximum number of micro iterations     600
     Threshold for MCSCF gradient      1.00D-05
     Number of initial trial vectors          1
     Number of initial CI iterations          3
     Number of simultaneous trial vectors     1

@    This calculation converges to the lowest state for the specified symmetry and spin species.

     Maximum number of NEO/NR iterations  24


 >>>>> DIIS optimization of Hartree-Fock <<<<<

 C1-DIIS algorithm; max error vectors =   10

 Iter      Total energy        Error norm    Delta(E)  DIIS dim.
 -----------------------------------------------------------------------------
     (Precalculated two-electron integrals are transformed to P-supermatrix elements.
      Threshold for discarding integrals :  1.10D-11 )
@  1    -77.7158226021        2.25777D+00   -7.77D+01    1
      Virial theorem: -V/T =      2.018539
@      MULPOP C   _1 -0.04; C   _2 -0.04; H   _1  0.02; H   _2  0.02; H   _3  0.02; H   _4  0.02; 
 -----------------------------------------------------------------------------
@  2    -78.0002433672        6.26272D-01   -2.84D-01    2
      Virial theorem: -V/T =      1.989667
@      MULPOP C   _1  0.06; C   _2  0.06; H   _1 -0.03; H   _2 -0.03; H   _3 -0.03; H   _4 -0.03; 
 -----------------------------------------------------------------------------
@  3    -78.0300072753        1.37335D-01   -2.98D-02    3
      Virial theorem: -V/T =      2.001983
@      MULPOP C   _1  0.23; C   _2  0.23; H   _1 -0.12; H   _2 -0.12; H   _3 -0.12; H   _4 -0.12; 
 -----------------------------------------------------------------------------
@  4    -78.0318337661        2.43459D-02   -1.83D-03    4
      Virial theorem: -V/T =      1.999809
@      MULPOP C   _1  0.22; C   _2  0.22; H   _1 -0.11; H   _2 -0.11; H   _3 -0.11; H   _4 -0.11; 
 -----------------------------------------------------------------------------
@  5    -78.0319552288        3.23667D-03   -1.21D-04    5
      Virial theorem: -V/T =      1.999619
@      MULPOP C   _1  0.22; C   _2  0.22; H   _1 -0.11; H   _2 -0.11; H   _3 -0.11; H   _4 -0.11; 
 -----------------------------------------------------------------------------
@  6    -78.0319574159        4.31258D-04   -2.19D-06    6
      Virial theorem: -V/T =      1.999616
@      MULPOP C   _1  0.22; C   _2  0.22; H   _1 -0.11; H   _2 -0.11; H   _3 -0.11; H   _4 -0.11; 
 -----------------------------------------------------------------------------
@  7    -78.0319574533        5.49052D-05   -3.74D-08    7
      Virial theorem: -V/T =      1.999616
@      MULPOP C   _1  0.22; C   _2  0.22; H   _1 -0.11; H   _2 -0.11; H   _3 -0.11; H   _4 -0.11; 
 -----------------------------------------------------------------------------
@  8    -78.0319574538        6.50421D-06   -5.27D-10    8
      Virial theorem: -V/T =      1.999617
@      MULPOP C   _1  0.22; C   _2  0.22; H   _1 -0.11; H   _2 -0.11; H   _3 -0.11; H   _4 -0.11; 
 -----------------------------------------------------------------------------
@  9    -78.0319574538        7.56111D-07   -7.52D-12    9

@ *** DIIS converged in   9 iterations !
@     Converged SCF energy, gradient:    -78.031957453806    7.56D-07
    - total time used in SIRFCK :              0.00 seconds

 >>> Writing SIRIFC interface file <<<

 >>>> CPU and wall time for SCF :       0.007       0.008


 >>>>> Output from SIRIUS MP2 module <<<<<

 Reference: H.J.Aa.Jensen, P.Jorgensen, H.Agren, and J.Olsen,
            J. Chem. Phys. 88, 3834 (1988); 89, 5354 (1988)

 Checking that the closed shell orbitals are canonical Hartree-Fock orbitals

    Number of electrons  :   16
    Closed shell orbitals:    3    1    1    0    2    0    1    0

 Generating Fock matrix

 Hartree-Fock electronic energy:        -111.359812967851
 Hartree-Fock total      energy:         -78.031957453806

 Hartree-Fock orbital energies, symmetry 1, number of occupied SCF orbitals is    3

       -11.24612442    -1.04568051    -0.59434719     0.10506553     0.34762050
         0.61745287     0.78895288     1.54447694     2.14006993

 Hartree-Fock orbital energies, symmetry 2, number of occupied SCF orbitals is    1

        -0.37978289     0.32176152     1.29998297

 Hartree-Fock orbital energies, symmetry 3, number of occupied SCF orbitals is    1

        -0.64837901     0.20161063     0.39328819     1.00165097     1.56579359
         2.13149783

 Hartree-Fock orbital energies, symmetry 4, number of occupied SCF orbitals is    0

         0.99406278

 Hartree-Fock orbital energies, symmetry 5, number of occupied SCF orbitals is    2

       -11.24443481    -0.79379828     0.16084749     0.40206383     0.74975123
         0.96588603     1.52599553     1.76112994     2.59124198

 Hartree-Fock orbital energies, symmetry 6, number of occupied SCF orbitals is    0

         0.13346184     0.57610561     1.60779791

 Hartree-Fock orbital energies, symmetry 7, number of occupied SCF orbitals is    1

        -0.50639561     0.36448700     0.94943383     1.26054825     1.50919082
         2.60384405

 Hartree-Fock orbital energies, symmetry 8, number of occupied SCF orbitals is    0

         1.09650783

    E(LUMO) :     0.10506553   (in symmetry 1)
  - E(HOMO) :    -0.37978289   (in symmetry 2)
  --------------------------
    gap     :     0.48484842

 Integral transformation: Total CPU and WALL times (sec)       0.010       0.011

 MP2 move   0.172840 electrons to unoccupied HF orbitals


@   Hartree-Fock total energy   :           -78.0319574538
@   + MP2 contribution          :            -0.2092239788
@   = MP2 second order energy   :           -78.2411814326

 Natural orbital occupation numbers, symmetry 1
 Sum =     5.98393082; RHF =     6.00000000; Difference =    -0.01606918

         1.99986891     1.98612281     1.97165607     0.01451333     0.00559126
         0.00472201     0.00087203     0.00047059     0.00011382

 Natural orbital occupation numbers, symmetry 2
 Sum =     1.95334673; RHF =     2.00000000; Difference =    -0.04665327

         1.94241324     0.00952343     0.00141007

 Natural orbital occupation numbers, symmetry 3
 Sum =     1.99931683; RHF =     2.00000000; Difference =    -0.00068317

         1.97639312     0.01431327     0.00669988     0.00103464     0.00053847
         0.00033746

 Natural orbital occupation numbers, symmetry 4
 Sum =     0.00298136; RHF =     0.00000000; Difference =     0.00298136

         0.00298136

 Natural orbital occupation numbers, symmetry 5
 Sum =     4.01670609; RHF =     4.00000000; Difference =     0.01670609

         1.99987389     1.97891307     0.01871647     0.01331109     0.00352704
         0.00158612     0.00051804     0.00017264     0.00008773

 Natural orbital occupation numbers, symmetry 6
 Sum =     0.04932270; RHF =     0.00000000; Difference =     0.04932270

         0.04684944     0.00199652     0.00047674

 Natural orbital occupation numbers, symmetry 7
 Sum =     1.99197592; RHF =     2.00000000; Difference =    -0.00802408

         1.97290674     0.01501026     0.00238790     0.00119772     0.00039400
         0.00007931

 Natural orbital occupation numbers, symmetry 8
 Sum =     0.00241955; RHF =     0.00000000; Difference =     0.00241955

         0.00241955

 Time used for MP2 natural orbitals :       0.015 CPU seconds,       0.014 wall seconds.

 >>>> CPU and wall time for MP2 :       0.015       0.014


        SIRIUS MCSCF optimization (SIROPT)
 ================================================



 <<<<< Output from SIRIUS CI module (CICTL) >>>>>




 Integral transformation: Total CPU and WALL times (sec)       0.004       0.004

 (CIST1)  4 lowest diagonal elements:

 Element no. Config.no.    Active energy      Total energy

         1 :        219    -32.8022499049    -78.0312331257
         2 :        356    -32.1368795357    -77.3658627566
         3 :       1629    -31.9483176130    -77.1773008338
         4 :        955    -31.9113510671    -77.1403342880


 Convergence threshold for CI optimization :     0.00000500



 *** Reached maximum number of CI iterations:    3
              1 CI roots are not converged.


 CI energies and residuals:
    1      -78.173416504686799       7.48D-02


 Final CI energy:      -78.173416504686799

   <<< OUTPUT FROM SIRCNO >>>    Keyword = FD+NO 


 Occupations of CAS natural orbitals:

 Symmetry  1

   1.985740615   1.975321366   0.019791586

 Symmetry  2

   1.931662198

 Symmetry  3

   1.980141437   0.019242038

 Symmetry  5

   1.981086315   0.022015807   0.017939529

 Symmetry  6

   0.069877336

 Symmetry  7

   1.978990324   0.018191450


 <<< MACRO ITERATION  1 >>>
 --------------------------

 Integral transformation: Total CPU and WALL times (sec)       0.011       0.011

 Total MCSCF energy       :           -78.173416504686656  (MACRO    1)

 - Nuclear repulsion      :            33.327855514044586
 - Inactive energy        :           -78.556838734884536
 - Active energy          :           -32.944433283846713

 Norm of total gradient   :             0.169331876231
 -    of CI gradient      :             0.149676352806
 -    of orbital gradient :             0.079185059946
      Virial theorem: -V/T =      2.455707
@      MULPOP C   _1  1.02; C   _2  1.02; H   _1 -0.51; H   _2 -0.51; H   _3 -0.51; H   _4 -0.51; 

 Residual norm when dim(red L) =   7
 NEO root     CSF        orbital          total
    1     0.02383711     0.00713769     0.02488281 converged

 (NEONEX) NEO vector is converged.

   <<< OUTPUT FROM SIRCNO >>>    Keyword = FD+NO 


 Occupations of CAS natural orbitals:

 Symmetry  1

   1.984053567   1.974816474   0.022657714

 Symmetry  2

   1.923254665

 Symmetry  3

   1.977878762   0.022455329

 Symmetry  5

   1.978857616   0.023794844   0.019098414

 Symmetry  6

   0.077939451

 Symmetry  7

   1.975450697   0.019742466


 <<< MACRO ITERATION  2 >>>
 --------------------------

 Integral transformation: Total CPU and WALL times (sec)       0.011       0.012

 Total MCSCF energy       :           -78.178376950935430  (MACRO    2)

 - Nuclear repulsion      :            33.327855514044586
 - Inactive energy        :           -78.562074104923852
 - Active energy          :           -32.944158360056164

 Norm of total gradient   :             0.032108703284
 -    of CI gradient      :             0.030510759090
 -    of orbital gradient :             0.010003119829
      Virial theorem: -V/T =      2.457789
@      MULPOP C   _1  1.14; C   _2  1.14; H   _1 -0.57; H   _2 -0.57; H   _3 -0.57; H   _4 -0.57; 

 Residual norm when dim(red L) =  15
 NEO root     CSF        orbital          total
    1     0.00051333     0.00009570     0.00052218 converged

 (NEONEX) NEO vector is converged.

   <<< OUTPUT FROM SIRCNO >>>    Keyword = FD+NO 


 Occupations of CAS natural orbitals:

 Symmetry  1

   1.984574341   1.975250760   0.022212756

 Symmetry  2

   1.920765407

 Symmetry  3

   1.978602959   0.021869458

 Symmetry  5

   1.979517441   0.023329635   0.018661007

 Symmetry  6

   0.080423831

 Symmetry  7

   1.975996705   0.018795699


 <<< MACRO ITERATION  3 >>>
 --------------------------

 Integral transformation: Total CPU and WALL times (sec)       0.012       0.012

 Total MCSCF energy       :           -78.178507152184380  (MACRO    3)

 - Nuclear repulsion      :            33.327855514044586
 - Inactive energy        :           -78.562357679203245
 - Active energy          :           -32.944004987025721

 Norm of total gradient   :             0.000652234013
 -    of CI gradient      :             0.000621182512
 -    of orbital gradient :             0.000198850433
      Virial theorem: -V/T =      2.457656
@      MULPOP C   _1  1.16; C   _2  1.16; H   _1 -0.58; H   _2 -0.58; H   _3 -0.58; H   _4 -0.58; 

 Residual norm when dim(red L) =  15
 NEO root     CSF        orbital          total
    1     0.00000810     0.00000361     0.00000887 converged

 (NEONEX) NEO vector is converged.

   <<< OUTPUT FROM SIRCNO >>>    Keyword = FD+NO 


 Occupations of CAS natural orbitals:

 Symmetry  1

   1.984580933   1.975261721   0.022201236

 Symmetry  2

   1.920775683

 Symmetry  3

   1.978616360   0.021848604

 Symmetry  5

   1.979530861   0.023318472   0.018653742

 Symmetry  6

   0.080412563

 Symmetry  7

   1.976010943   0.018788882


 <<< MACRO ITERATION  4 >>>
 --------------------------

 Integral transformation: Total CPU and WALL times (sec)       0.012       0.013

 Total MCSCF energy       :           -78.178507219018883  (MACRO    4)

 - Nuclear repulsion      :            33.327855514044586
 - Inactive energy        :           -78.562363336142226
 - Active energy          :           -32.943999396921249

 Norm of total gradient   :             0.000008909122
 -    of CI gradient      :             0.000008114786
 -    of orbital gradient :             0.000003677322
      Virial theorem: -V/T =      2.457649
@      MULPOP C   _1  1.16; C   _2  1.16; H   _1 -0.58; H   _2 -0.58; H   _3 -0.58; H   _4 -0.58; 

 *** Optimization control: MCSCF converged ***
     Number of macro iterations used            4
     Number of micro iterations used           31
     Total number of CPU seconds used         8.90

 >>>> CPU and wall time for MCSCF :       8.900       9.459


                     .----------------------------------------.
                     | >>> SIRIUS OPTIMIZATION STATISTICS <<< |
                     `----------------------------------------'


 
     Date and time (Linux)  : Sun Sep  8 20:49:54 2013
     Host name              : lpqlx131.ups-tlse.fr                    


  ITER ITMIC     EMCSCF           GRDNRM        RATIO      STPLNG
 ---------------------------------------------------------------------
    1    5    -78.173416504687   0.1693318762  0.000000   0.2546707748
    2   13    -78.178376950935   0.0321087033  0.952260   0.0320693614
    3   13    -78.178507152184   0.0006522340  1.005695   0.0008260760
    4    0    -78.178507219019   0.0000089091  1.000212   0.0000000000


  ITER  INDGCM  GCIMAX      GCINRM     INDGOM  GOBMAX      GOBNRM      GRDNRM
 ------------------------------------------------------------------------------
    1   9341    0.017471    0.149676     24    0.048969    0.079185    0.169332
    2   3193    0.005591    0.030511     28    0.003465    0.010003    0.032109
    3   1620    0.000145    0.000621     29    0.000116    0.000199    0.000652
    4    356    0.000002    0.000008     29   -0.000001    0.000004    0.000009


  ITER ITMIC NCLIN NOLIN   TIMMAC    TIMITR    TIMMIC    TIMLIN    TIMMIC/ITMIC
 ------------------------------------------------------------------------------

    1     5     4     2      1.55      0.01      1.27      1.24      0.25
    2    13    10     4      3.34      0.01      3.06      2.99      0.24
    3    13    10     4      3.35      0.01      3.07      3.00      0.24
    4     0     0     0      0.28      0.01      0.00      0.00


 ITER         EMY                 EACTIV              EMCSCF

    1    -78.556838734885    -32.944433283847    -78.173416504687
    2    -78.562074104924    -32.944158360056    -78.178376950935
    3    -78.562357679203    -32.944004987026    -78.178507152184
    4    -78.562363336142    -32.943999396921    -78.178507219019


 ITER         DEPRED              DEACT               RATIO

    1      0.000000000000      0.000000000000      0.000000000000
    2     -0.005209129084     -0.004960446249      0.952260189593
    3     -0.000129463938     -0.000130201249      1.005695110452
    4     -0.000000066820     -0.000000066835      1.000211902737


 ITER    BETA           GAMMA             STPLNG              RTRUST

    1      0.20000000  1.00000000      0.254670774779      0.700000000000
    2      0.20000000  1.00000000      0.032069361361      0.700000000000
    3      0.20000000  1.00000000      0.000826076011      0.700000000000
    4      0.00000000  0.00000000      0.000000000000      0.700000000000


 Reduced L root no.  1
 ITER         EVAL              EVEC(1)           EVEC(2)           EVEC(3)
 ----------------------------------------------------------------------------
    1   -0.000415652006    0.998705374360   -0.006566438868   -0.049071549607
    2   -0.000010356689    0.999979431756   -0.001343533498   -0.005003290659
    3   -0.000000005346    0.999999986352   -0.000032045503   -0.000142307534
    4    0.000000000000    0.000000000000    0.000000000000    0.000000000000


                       .-----------------------------------.
                       | >>> Final results from SIRIUS <<< |
                       `-----------------------------------'


@    Spin multiplicity:           1
@    Spatial symmetry:            1
@    Total charge of molecule:    0
@    State number:                1

@    Final MCSCF energy:          -78.178507219019                 
@    Nuclear repulsion:            33.327855514045
@    Electronic energy:          -111.506362733063

@    Final gradient norm:           0.000008909122

 
     Date and time (Linux)  : Sun Sep  8 20:49:54 2013
     Host name              : lpqlx131.ups-tlse.fr                    

 Occupancies of natural orbitals
 -------------------------------

 Symmetry  1 -- Total occupation in this symmetry is   5.982043890

   2.000000000   1.984580933   1.975261721   0.022201236

 Symmetry  2 -- Total occupation in this symmetry is   1.920775683

   1.920775683

 Symmetry  3 -- Total occupation in this symmetry is   2.000464964

   1.978616360   0.021848604

 Symmetry  4 -- No occupied orbitals

 Symmetry  5 -- Total occupation in this symmetry is   4.021503075

   2.000000000   1.979530861   0.023318472   0.018653742

 Symmetry  6 -- Total occupation in this symmetry is   0.080412563

   0.080412563

 Symmetry  7 -- Total occupation in this symmetry is   1.994799826

   1.976010943   0.018788882

 Symmetry  8 -- No occupied orbitals

 (Only coefficients >0.0100 are printed.)

 Molecular orbitals for symmetry species  1
 ------------------------------------------

    Orbital         1        2        3        4        5        6
   1 C   :1s     0.7071  -0.0559   0.0051  -0.0772  -0.1443   0.1134
   2 C   :1s    -0.0017   0.3995  -0.0794  -0.6378  -0.9027   0.5875
   3 C   :1s    -0.0013  -0.0780  -0.0018   0.1921  -0.4777   0.0834
   4 C   :2pz   -0.0030  -0.1121   0.4709  -0.4109  -0.3790   0.6570
   5 C   :2pz    0.0005   0.0377  -0.1435   0.2255  -0.4235   1.0058
   6 H   :1s    -0.0012   0.1560   0.2257   0.5243   0.3438  -0.2240
   7 H   :1s     0.0005  -0.0075  -0.0095  -0.0818   0.5171   0.0526
   8 H   :2py    0.0000  -0.0207  -0.0133   0.0083  -0.0921  -0.0182
   9 H   :2pz    0.0001  -0.0092  -0.0040   0.0178  -0.0187   0.0219

 Molecular orbitals for symmetry species  2
 ------------------------------------------

    Orbital         1        2        3
   1 C   :2px    0.5998  -0.0629  -0.4956
   2 C   :2px   -0.0381   0.5913  -0.1903
   3 H   :2px    0.0124  -0.0396   0.6250

 Molecular orbitals for symmetry species  3
 ------------------------------------------

    Orbital         1        2        3        4
   1 C   :2py    0.3527  -0.5461  -0.3824   1.3103
   2 C   :2py   -0.1159   0.3137  -0.5730   1.5831
   3 H   :1s     0.3001   0.4165   0.4699  -2.2971
   4 H   :1s     0.0102  -0.2250  -0.0513  -2.1601
   5 H   :2py   -0.0139   0.0277  -0.0057   0.1478
   6 H   :2pz   -0.0143   0.0142   0.0123   0.0243

 Molecular orbitals for symmetry species  4
 ------------------------------------------

    Orbital         1
   1 H   :2px    0.5316

 Molecular orbitals for symmetry species  5
 ------------------------------------------

    Orbital         1        2        3        4        5        6
   1 C   :1s     0.7069  -0.0381   0.1001   0.1086   0.2109   0.1606
   2 C   :1s    -0.0043   0.3169   0.9232   0.6425   1.2512   1.0614
   3 C   :1s    -0.0024  -0.0603  -0.2988   0.1423   0.6249   0.7675
   4 C   :2pz    0.0000   0.1602  -0.1396  -1.0151  -0.9606   2.0708
   5 C   :2pz    0.0014  -0.0683   0.1068   0.3429  -0.9622   2.1969
   6 H   :1s    -0.0014   0.2741  -0.4790   0.1824   0.3732  -2.5873
   7 H   :1s    -0.0003  -0.0029   0.0495  -0.1523   0.0153  -2.1833
   8 H   :2py    0.0001  -0.0252   0.0033   0.0338   0.0255   0.1465
   9 H   :2pz    0.0000  -0.0157  -0.0081   0.0236   0.0487   0.0758

 Molecular orbitals for symmetry species  6
 ------------------------------------------

    Orbital         1        2        3
   1 C   :2px    0.7889   0.8456   1.1891
   2 C   :2px   -0.1822   1.3666   0.8281
   3 H   :2px    0.0080  -0.0522  -0.7238

 Molecular orbitals for symmetry species  7
 ------------------------------------------

    Orbital         1        2        3        4
   1 C   :2py    0.3060   0.3867   0.4373  -6.6564
   2 C   :2py   -0.1360  -0.6704   0.3754  -6.4268
   3 H   :1s     0.4413  -0.2112   0.3821   5.5121
   4 H   :1s     0.0471   0.2885   1.0351   4.1644
   5 H   :2py   -0.0230  -0.0564  -0.0416  -0.2043
   6 H   :2pz   -0.0159  -0.0288  -0.0397   0.0342

 Molecular orbitals for symmetry species  8
 ------------------------------------------

    Orbital         1
   1 H   :2px    0.5543

 Printout of CI-coefficients abs greater than 0.05000 for root  1
 *** NOTE: this root is the reference state ***

 Printout of coefficients in interval  3.1623E-01 to  1.0000E+00
 ===============================================================

  Coefficient of CSF no.       219 is      0.95433953    9.54339529E-01
  Orbital          1   2   4   5   7  11
  Spin coupling    2   2   2   2   2   2

 Printout of coefficients in interval  1.0000E-01 to  3.1623E-01
 ===============================================================

  Coefficient of CSF no.       356 is     -0.16989319   -1.69893192E-01
  Orbital          1   2   5   7  10  11
  Spin coupling    2   2   2   2   2   2

 Printout of coefficients in interval  5.0000E-02 to  1.0000E-01
 ===============================================================

  Coefficient of CSF no.      7896 is     -0.05615901   -5.61590147E-02
  Orbital          1   5   7  11   2   4   9  10
  Spin coupling    2   2   2   2   1  -1   1  -1

  Coefficient of CSF no.      7912 is      0.06421869    6.42186920E-02
  Orbital          2   5   7  11   1   4   8  10
  Spin coupling    2   2   2   2   1  -1   1  -1

 Norm of printed CI vector ..      0.94690551

 Magnitude of CI coefficients
 ============================
 ( Ranges are relative to norm of vector :  1.00E+00 )

  10- 1 to 10- 0         2    0.93962763E+00      0.9396276328
  10- 2 to 10- 1        88    0.56111712E-01      0.9957393443
  10- 3 to 10- 2       503    0.36626449E-02      0.9994019892
  10- 4 to 10- 3      3532    0.58014864E-03      0.9999821378
  10- 5 to 10- 4     10970    0.17594870E-04      0.9999997327
  10- 6 to 10- 5     10576    0.26628898E-06      0.9999999990
  10- 7 to 10- 6      3161    0.10345187E-08      1.0000000000
  10- 8 to 10- 7       378    0.14094520E-11      1.0000000000
  10- 9 to 10- 8        38    0.16972809E-14      1.0000000000
  Number of coefficients less than 10^-11 times norm is            0



 >>>> Total CPU  time used in SIRIUS :      9.02 seconds
 >>>> Total wall time used in SIRIUS :      9.58 seconds

 
     Date and time (Linux)  : Sun Sep  8 20:49:54 2013
     Host name              : lpqlx131.ups-tlse.fr                    


                     .---------------------------------------.
                     | End of Wave Function Section (SIRIUS) |
                     `---------------------------------------'



                 .------------------------------------------------.
                 | Starting in Dynamic Property Section (RESPONS) |
                 `------------------------------------------------'


 ------------------------------------------------------------------------------
  RESPONSE  -  an MCSCF, MC-srDFT, DFT, and SOPPA response property program
 ------------------------------------------------------------------------------


 <<<<<<<<<< OUTPUT FROM RESPONSE INPUT PROCESSING >>>>>>>>>>




 Quadratic Response single residue calculation
 ---------------------------------------------

 That is, calculation of second order moments.

 Phosphorescence calculation requested with effective charge spin-orbit operator.

  1 B-frequencies  0.000000D+00

 Spin of operator A , ISPINA=    0
 Spin of operator B , ISPINB=    1
 Spin of operator C , (Excitation energy) ISPINC=    1

 Print level                                    : IPRSMO =    5
 Threshold for convergence in RSPPP             : THCPP  = 1.000D-03
 Maximum number of iterations in RSPPP          : MAXITP =   60
 Threshold for convergence in RSPLR             : THCLR  = 1.000D-03
 Maximum number of iterations in RSPLR          : MAXITL =   60
 Maximum iterations in optimal orbital algorithm: MAXITO =    5


 SO integrals use charges:
 -------------------------

 Atom       Scaled charge
  C                3.60
  H                1.00

    1 B OPERATORS OF SYMMETRY    4 NOT INCLUDED

    1 A OPERATORS OF SYMMETRY    5 NOT INCLUDED

    1 A OPERATORS OF SYMMETRY NO:    2 AND LABELS:

          XDIPLEN 

    1 A OPERATORS OF SYMMETRY NO:    3 AND LABELS:

          YDIPLEN 

    1 B OPERATORS OF SYMMETRY NO:    6 AND LABELS:

          Y1SPNSCA

    1 B OPERATORS OF SYMMETRY NO:    7 AND LABELS:

          X1SPNSCA

 Old direct access AO file found, SORTA skipped.

 Integral transformation: Total CPU and WALL times (sec)       0.017       0.017


 MCSCF energy         :      -78.178507219018883
 -- inactive part     :      -78.562363336142226
 --   active part     :      -32.943999396921249
 -- nuclear repulsion :       33.327855514044586


                        **********************************
                        *** MCSCF response calculation ***
                        **********************************



 Linear response excitations for quadratic response
 - symmetry of excitation operator    5
 - is the operator a triplet operator ?     T


 Perturbation symmetry.     KSYMOP:       5
 Perturbation spin symmetry.TRPLET:       T
 Orbital variables.         KZWOPT:      66
 Configuration variables.   KZCONF:  107552
 Total number of variables. KZVAR :  107618
  IN QRPPVE: MAXRM               600
  IN QRPPVE: LWRK ,LWRK1    61827223    60745423
  IN QRPPVE: THCPP         1.0000000000000000E-003



 <<< EXCITATION ENERGIES AND TRANSITION MOMENT CALCULATION (MCTDHF) >>>

 Operator symmetry =  5; triplet =   T

           1  START configuration VECTORS USING LOWEST EIGENVALUES OF PHP
           0  START orbital VECTORS

 ** RSPCTL MICROITERATION NUMBER    1

      Root  Residual tot.,    conf., and orb.    Bnorm      Eigenvalue
      ----------------------------------------------------------------
         1    4.86439D-01  4.32D-01  2.23D-01  1.00D+00    3.12167D-01

 ** RSPCTL MICROITERATION NUMBER    2

      Root  Residual tot.,    conf., and orb.    Bnorm      Eigenvalue
      ----------------------------------------------------------------
         1    2.62243D-01  1.31D-01  2.27D-01  1.00D+00    2.27106D-01

 ** RSPCTL MICROITERATION NUMBER    3

      Root  Residual tot.,    conf., and orb.    Bnorm      Eigenvalue
      ----------------------------------------------------------------
         1    1.35615D-01  1.32D-01  3.00D-02  1.02D+00    1.73728D-01

 ** RSPCTL MICROITERATION NUMBER    4

      Root  Residual tot.,    conf., and orb.    Bnorm      Eigenvalue
      ----------------------------------------------------------------
         1    5.49770D-02  4.59D-02  3.03D-02  1.02D+00    1.68359D-01

 ** RSPCTL MICROITERATION NUMBER    5

      Root  Residual tot.,    conf., and orb.    Bnorm      Eigenvalue
      ----------------------------------------------------------------
         1    4.45847D-02  3.26D-02  3.04D-02  1.02D+00    1.68054D-01

 ** RSPCTL MICROITERATION NUMBER    6

      Root  Residual tot.,    conf., and orb.    Bnorm      Eigenvalue
      ----------------------------------------------------------------
         1    3.24867D-02  1.32D-02  2.97D-02  1.02D+00    1.67465D-01

 ** RSPCTL MICROITERATION NUMBER    7

      Root  Residual tot.,    conf., and orb.    Bnorm      Eigenvalue
      ----------------------------------------------------------------
         1    1.36657D-02  1.29D-02  4.61D-03  1.01D+00    1.66516D-01

 ** RSPCTL MICROITERATION NUMBER    8

      Root  Residual tot.,    conf., and orb.    Bnorm      Eigenvalue
      ----------------------------------------------------------------
         1    8.99448D-03  7.57D-03  4.85D-03  1.01D+00    1.66481D-01

 ** RSPCTL MICROITERATION NUMBER    9

      Root  Residual tot.,    conf., and orb.    Bnorm      Eigenvalue
      ----------------------------------------------------------------
         1    6.22923D-03  3.96D-03  4.80D-03  1.01D+00    1.66466D-01

 ** RSPCTL MICROITERATION NUMBER   10

      Root  Residual tot.,    conf., and orb.    Bnorm      Eigenvalue
      ----------------------------------------------------------------
         1    4.15427D-03  4.06D-03  8.83D-04  1.00D+00    1.66454D-01

 ** RSPCTL MICROITERATION NUMBER   11

      Root  Residual tot.,    conf., and orb.    Bnorm      Eigenvalue
      ----------------------------------------------------------------
         1    2.21048D-03  2.02D-03  8.91D-04  1.00D+00    1.66451D-01

 ** RSPCTL MICROITERATION NUMBER   12

      Root  Residual tot.,    conf., and orb.    Bnorm      Eigenvalue
      ----------------------------------------------------------------
         1    1.79540D-03  1.54D-03  9.22D-04  1.00D+00    1.66450D-01

 ** RSPCTL MICROITERATION NUMBER   13

      Root  Residual tot.,    conf., and orb.    Bnorm      Eigenvalue
      ----------------------------------------------------------------
         1    1.14673D-03  6.57D-04  9.40D-04  1.00D+00    1.66450D-01

 ** RSPCTL MICROITERATION NUMBER   14

      Root  Residual tot.,    conf., and orb.    Bnorm      Eigenvalue
      ----------------------------------------------------------------
         1    7.53285D-04  7.28D-04  1.92D-04  1.00D+00    1.66449D-01

 *** THE REQUESTED    1 SOLUTION VECTORS CONVERGED

 Convergence of RSP solution vectors, threshold = 1.00D-03
 ---------------------------------------------------------------
 (dimension of paired reduced space:   28)
 RSP solution vector no.    1; norm of residual   7.50D-04

 *** RSPCTL MICROITERATIONS CONVERGED

     Orbital operator symmetry = 5
     (only elements abs greater than   10.00 % of max abs value)

      Index(r,s)      r      s        (r s) operator      (s r) operator
      ----------    -----  -----      --------------      --------------
          24        10(2)  30(6)       -0.2212724076        0.0186224574
          25        10(2)  31(6)        0.0356767960       -0.0027410781
          49        22(5)   7(1)       -0.0218240848        0.0285561579
          57        29(6)  11(2)        0.2288765824        0.0054385394

       62 elements with absolute value less than 2.29D-02 not printed.

 The numbers in parenthesis give the orbital symmetry.

      Index(conf)                         Z operator          Y operator
      ----------                      --------------      --------------
       17235                           -0.6510665784        0.0178449916
       68391                            0.6510665784       -0.0178449916

   107550 elements with absolute value less than 6.51D-02 not printed.

 The numbers in parenthesis give the configuration symmetry.


  Printout of coefficients in interval  0.3001E+00 to 0.9489E+00
  ==============================================================

 Coefficient of determinant     17235 is     -0.65106658 -6.51066578E-01
 alpha-string:  1  2     4  5     7          11
  beta-string:  1  2        5     7       10 11

 Coefficient of determinant     68391 is      0.65106658  6.51066578E-01
 alpha-string:  1  2        5     7       10 11
  beta-string:  1  2     4  5     7          11


  Printout of coefficients in interval  0.9489E-01 to 0.3001E+00
  ==============================================================
   ( no coefficients )


  Printout of coefficients in interval  0.6511E-01 to 0.9489E-01
  ==============================================================
   ( no coefficients )

 Norm of printed part of CI vector ..      0.84777538

  Magnitude of CI coefficients
  ============================

  ( Ranges are relative to norm of vector :  9.49E-01 )

  10- 1 to 10- 0         2    0.84777538E+00    0.84777538E+00
  10- 2 to 10- 1       168    0.42898321E-01    0.89067370E+00
  10- 3 to 10- 2       496    0.86742012E-02    0.89934790E+00
  10- 4 to 10- 3      9160    0.10474794E-02    0.90039538E+00
  10- 5 to 10- 4     27432    0.30809849E-04    0.90042619E+00
  10- 6 to 10- 5     40204    0.85115239E-06    0.90042704E+00
  10- 7 to 10- 6     21770    0.52969210E-08    0.90042705E+00
  10- 8 to 10- 7      7172    0.20538339E-10    0.90042705E+00
  10- 9 to 10- 8      1026    0.32859892E-13    0.90042705E+00
  10-10 to 10- 9       112    0.36637535E-16    0.90042705E+00
  10-11 to 10-10        10    0.28767479E-19    0.90042705E+00
  Number of coefficients less than 10^-11 times norm is             0


 Linear response calculations for quadratic response
 - singlet property operator of symmetry    2


 Perturbation symmetry.     KSYMOP:       2
 Perturbation spin symmetry.TRPLET:       F
 Orbital variables.         KZWOPT:      32
 Configuration variables.   KZCONF:  105888
 Total number of variables. KZVAR :  105920


 QRLRVE -- linear response calculation for symmetry  2
 QRLRVE -- operator label : XDIPLEN 
 QRLRVE -- operator spin  :   0
 QRLRVE -- frequencies :  0.166449



 <<<  SOLVING SETS OF LINEAR EQUATIONS FOR LINEAR RESPONSE PROPERTIES >>>

 Operator symmetry =  2; triplet =   F


 *** THE REQUESTED    1 SOLUTION VECTORS CONVERGED

 Convergence of RSP solution vectors, threshold = 1.00D-03
 ---------------------------------------------------------------
 (dimension of paired reduced space:   34)
 RSP solution vector no.    1; norm of residual   8.49D-04

 *** RSPCTL MICROITERATIONS CONVERGED

 QRLRVE: SINGLET SOLUTION FOR SYMMETRY    2    LABEL   XDIPLEN     FREQUENCY   0.166449D+00

@ QRLRVE:  << XDIPLEN  ; XDIPLEN  >> (   0.16645):     15.2388050806    


 Linear response calculations for quadratic response
 - singlet property operator of symmetry    3


 Perturbation symmetry.     KSYMOP:       3
 Perturbation spin symmetry.TRPLET:       F
 Orbital variables.         KZWOPT:      58
 Configuration variables.   KZCONF:  107456
 Total number of variables. KZVAR :  107514


 QRLRVE -- linear response calculation for symmetry  3
 QRLRVE -- operator label : YDIPLEN 
 QRLRVE -- operator spin  :   0
 QRLRVE -- frequencies :  0.166449



 <<<  SOLVING SETS OF LINEAR EQUATIONS FOR LINEAR RESPONSE PROPERTIES >>>

 Operator symmetry =  3; triplet =   F


 *** THE REQUESTED    1 SOLUTION VECTORS CONVERGED

 Convergence of RSP solution vectors, threshold = 1.00D-03
 ---------------------------------------------------------------
 (dimension of paired reduced space:   32)
 RSP solution vector no.    1; norm of residual   9.01D-04

 *** RSPCTL MICROITERATIONS CONVERGED

 QRLRVE: SINGLET SOLUTION FOR SYMMETRY    3    LABEL   YDIPLEN     FREQUENCY   0.166449D+00

@ QRLRVE:  << YDIPLEN  ; YDIPLEN  >> (   0.16645):     20.7340201614    


 Linear response calculations for quadratic response
 - triplet property operator(s) of symmetry    6


 Perturbation symmetry.     KSYMOP:       6
 Perturbation spin symmetry.TRPLET:       T
 Orbital variables.         KZWOPT:      32
 Configuration variables.   KZCONF:  105888
 Total number of variables. KZVAR :  105920


 QRTRVE -- linear response calculation for symmetry  6
 QRTRVE -- operator label : Y1SPNSCA
 QRTRVE -- frequencies : -0.000000



 <<<  SOLVING SETS OF LINEAR EQUATIONS FOR LINEAR RESPONSE PROPERTIES >>>

 Operator symmetry =  6; triplet =   T


 *** THE REQUESTED    1 SOLUTION VECTORS CONVERGED

 Convergence of RSP solution vectors, threshold = 1.00D-03
 ---------------------------------------------------------------
 (dimension of paired reduced space:   24)
 RSP solution vector no.    1; norm of residual   5.62D-04

 *** RSPCTL MICROITERATIONS CONVERGED


 Linear response calculations for quadratic response
 - triplet property operator(s) of symmetry    7


 Perturbation symmetry.     KSYMOP:       7
 Perturbation spin symmetry.TRPLET:       T
 Orbital variables.         KZWOPT:      58
 Configuration variables.   KZCONF:  107456
 Total number of variables. KZVAR :  107514


 QRTRVE -- linear response calculation for symmetry  7
 QRTRVE -- operator label : X1SPNSCA
 QRTRVE -- frequencies : -0.000000



 <<<  SOLVING SETS OF LINEAR EQUATIONS FOR LINEAR RESPONSE PROPERTIES >>>

 Operator symmetry =  7; triplet =   T


 *** THE REQUESTED    1 SOLUTION VECTORS CONVERGED

 Convergence of RSP solution vectors, threshold = 1.00D-03
 ---------------------------------------------------------------
 (dimension of paired reduced space:   24)
 RSP solution vector no.    1; norm of residual   7.98D-04

 *** RSPCTL MICROITERATIONS CONVERGED

 Phosphorescence electric dipole transition rates
 from excited states of symmetry  1
 to the ground state of symmetry  1
 ----------------------------------

 (Effective charge spin-orbit integrals used.)

 No excited states calculated of this symmetry.

 Phosphorescence electric dipole transition rates
 from excited states of symmetry  2
 to the ground state of symmetry  1
 ----------------------------------

 (Effective charge spin-orbit integrals used.)

 No excited states calculated of this symmetry.

 Phosphorescence electric dipole transition rates
 from excited states of symmetry  3
 to the ground state of symmetry  1
 ----------------------------------

 (Effective charge spin-orbit integrals used.)

 No excited states calculated of this symmetry.

 Phosphorescence electric dipole transition rates
 from excited states of symmetry  4
 to the ground state of symmetry  1
 ----------------------------------

 (Effective charge spin-orbit integrals used.)

 No excited states calculated of this symmetry.

 E3             CONTRIBUTION TO SMOM         -0.00007942         -0.00007942

 E3+B2C         CONTRIBUTION TO SMOM          0.00001164         -0.00006779

 E3+B2C+A2B     CONTRIBUTION TO SMOM          0.00007795          0.00001016

 E3+B2C+A2B+A2C CONTRIBUTION TO SMOM          0.00004059          0.00005076


 Second order moment in a.u. for
 A operator label,  symmetry, spin:      XDIPLEN     2    0
 B operator label,  symmetry, spin:      Y1SPNSCA    6    1
 Excited state no., symmetry, spin:             1    5    1

 omega B, excitation energy, moment :    0.000000    0.166449    0.000051

 E3             CONTRIBUTION TO SMOM          0.00000211          0.00000211

 E3+B2C         CONTRIBUTION TO SMOM          0.00000197          0.00000408

 E3+B2C+A2B     CONTRIBUTION TO SMOM          0.00000137          0.00000545

 E3+B2C+A2B+A2C CONTRIBUTION TO SMOM         -0.00000008          0.00000537


 Second order moment in a.u. for
 A operator label,  symmetry, spin:      YDIPLEN     3    0
 B operator label,  symmetry, spin:      X1SPNSCA    7    1
 Excited state no., symmetry, spin:             1    5    1

 omega B, excitation energy, moment :    0.000000    0.166449    0.000005

 Phosphorescence electric dipole transition rates
 from excited states of symmetry  5
 to the ground state of symmetry  1
 ----------------------------------

 (Effective charge spin-orbit integrals used.)

 Phosphorescence transition rate from excited state no.  1
 (Triplet->singlet transition, high-temperature limit)


 Transition energy:  4.529 eV

 Partial rates (ECSO): X-polarization 0.25446     Transition moment : 5.076E-05
 Partial rates (ECSO): Y-polarization 2.84841E-03 Transition moment : 5.370E-06
 Partial rates (ECSO): Z-polarization  0.0000     Transition moment :  0.00    

 Oscillator strength            (ECSO)   2.891E-10
 Total transition       rate    (ECSO)   8.577E-02 s-1
 Total phosphorescence lifetime (ECSO)   1.166E+01 s

 Phosphorescence electric dipole transition rates
 from excited states of symmetry  6
 to the ground state of symmetry  1
 ----------------------------------

 (Effective charge spin-orbit integrals used.)

 No excited states calculated of this symmetry.

 Phosphorescence electric dipole transition rates
 from excited states of symmetry  7
 to the ground state of symmetry  1
 ----------------------------------

 (Effective charge spin-orbit integrals used.)

 No excited states calculated of this symmetry.

 Phosphorescence electric dipole transition rates
 from excited states of symmetry  8
 to the ground state of symmetry  1
 ----------------------------------

 (Effective charge spin-orbit integrals used.)

 No excited states calculated of this symmetry.

 >>>> Total CPU  time used in RESPONSE:  26.05 seconds
 >>>> Total wall time used in RESPONSE:  28.03 seconds


                   .-------------------------------------------.
                   | End of Dynamic Property Section (RESPONS) |
                   `-------------------------------------------'

 >>>> Total CPU  time used in DALTON:  35.84 seconds
 >>>> Total wall time used in DALTON:  38.46 seconds

 
     Date and time (Linux)  : Sun Sep  8 20:50:22 2013
     Host name              : lpqlx131.ups-tlse.fr                    
