

     ************************************************************************
     *************** Dalton - An Electronic Structure Program ***************
     ************************************************************************

    This is output from DALTON 2016.alpha
   ----------------------------------------------------------------------------
    NOTE:
     
    Dalton is an experimental code for the evaluation of molecular
    properties using (MC)SCF, DFT, CI, and CC wave functions.
    The authors accept no responsibility for the performance of
    the code or for the correctness of the results.
     
    The code (in whole or part) is provided under a licence and
    is not to be reproduced for further distribution without
    the written permission of the authors or their representatives.
     
    See the home page "http://daltonprogram.org" for further information.
     
    If results obtained with this code are published,
    the appropriate citations would be both of:
     
       K. Aidas, C. Angeli, K. L. Bak, V. Bakken, R. Bast,
       L. Boman, O. Christiansen, R. Cimiraglia, S. Coriani,
       J. Cukras, P. Dahle, E. K. Dalskov, U. Ekstroem,
       T. Enevoldsen, J. J. Eriksen, P. Ettenhuber, B. Fernandez,
       L. Ferrighi, H. Fliegl, L. Frediani, K. Hald, A. Halkier,
       C. Haettig, H. Heiberg, T. Helgaker, A. C. Hennum,
       H. Hettema, E. Hjertenaes, S. Hoest, I.-M. Hoeyvik,
       M. F. Iozzi, B. Jansik, H. J. Aa. Jensen, D. Jonsson,
       P. Joergensen, M. Kaminski, J. Kauczor, S. Kirpekar,
       T. Kjaergaard, W. Klopper, S. Knecht, R. Kobayashi, H. Koch,
       J. Kongsted, A. Krapp, K. Kristensen, A. Ligabue,
       O. B. Lutnaes, J. I. Melo, K. V. Mikkelsen, R. H. Myhre,
       C. Neiss, C. B. Nielsen, P. Norman, J. Olsen,
       J. M. H. Olsen, A. Osted, M. J. Packer, F. Pawlowski,
       T. B. Pedersen, P. F. Provasi, S. Reine, Z. Rinkevicius,
       T. A. Ruden, K. Ruud, V. Rybkin, P. Salek, C. C. M. Samson,
       A. Sanchez de Meras, T. Saue, S. P. A. Sauer,
       B. Schimmelpfennig, K. Sneskov, A. H. Steindal,
       K. O. Sylvester-Hvid, P. R. Taylor, A. M. Teale,
       E. I. Tellgren, D. P. Tew, A. J. Thorvaldsen, L. Thoegersen,
       O. Vahtras, M. A. Watson, D. J. D. Wilson, M. Ziolkowski
       and H. Agren,
       "The Dalton quantum chemistry program system",
       WIREs Comput. Mol. Sci. 2013. (doi: 10.1002/wcms.1172)
    
    and
    
       Dalton, a Molecular Electronic Structure Program,
       Release DALTON2015.alpha (2015), see http://daltonprogram.org
   ----------------------------------------------------------------------------

    Authors in alphabetical order (major contribution(s) in parenthesis):

  Kestutis Aidas,           Vilnius University,           Lithuania   (QM/MM)
  Celestino Angeli,         University of Ferrara,        Italy       (NEVPT2)
  Keld L. Bak,              UNI-C,                        Denmark     (AOSOPPA, non-adiabatic coupling, magnetic properties)
  Vebjoern Bakken,          University of Oslo,           Norway      (DALTON; geometry optimizer, symmetry detection)
  Radovan Bast,             KTH Stockholm,                Sweden      (DALTON installation and execution frameworks)
  Pablo Baudin,             University of Valencia,       Spain       (Cholesky excitation energies)
  Linus Boman,              NTNU,                         Norway      (Cholesky decomposition and subsystems)
  Ove Christiansen,         Aarhus University,            Denmark     (CC module)
  Renzo Cimiraglia,         University of Ferrara,        Italy       (NEVPT2)
  Sonia Coriani,            University of Trieste,        Italy       (CC module, MCD in RESPONS)
  Janusz Cukras,            University of Trieste,        Italy       (MChD in RESPONS)
  Paal Dahle,               University of Oslo,           Norway      (Parallelization)
  Erik K. Dalskov,          UNI-C,                        Denmark     (SOPPA)
  Thomas Enevoldsen,        Univ. of Southern Denmark,    Denmark     (SOPPA)
  Janus J. Eriksen,         Aarhus University,            Denmark     (Polarizable embedding model, TDA)
  Berta Fernandez,          U. of Santiago de Compostela, Spain       (doublet spin, ESR in RESPONS)
  Lara Ferrighi,            Aarhus University,            Denmark     (PCM Cubic response)
  Heike Fliegl,             University of Oslo,           Norway      (CCSD(R12))
  Luca Frediani,            UiT The Arctic U. of Norway,  Norway      (PCM)
  Bin Gao,                  UiT The Arctic U. of Norway,  Norway      (Gen1Int library)
  Christof Haettig,         Ruhr-University Bochum,       Germany     (CC module)
  Kasper Hald,              Aarhus University,            Denmark     (CC module)
  Asger Halkier,            Aarhus University,            Denmark     (CC module)
  Erik D. Hedegaard,        Univ. of Southern Denmark,    Denmark     (Polarizable embedding model, QM/MM)
  Hanne Heiberg,            University of Oslo,           Norway      (geometry analysis, selected one-electron integrals)
  Trygve Helgaker,          University of Oslo,           Norway      (DALTON; ABACUS, ERI, DFT modules, London, and much more)
  Alf Christian Hennum,     University of Oslo,           Norway      (Parity violation)
  Hinne Hettema,            University of Auckland,       New Zealand (quadratic response in RESPONS; SIRIUS supersymmetry)
  Eirik Hjertenaes,         NTNU,                         Norway      (Cholesky decomposition)
  Maria Francesca Iozzi,    University of Oslo,           Norway      (RPA)
  Brano Jansik              Technical Univ. of Ostrava    Czech Rep.  (DFT cubic response)
  Hans Joergen Aa. Jensen,  Univ. of Southern Denmark,    Denmark     (DALTON; SIRIUS, RESPONS, ABACUS modules, London, and much more)
  Dan Jonsson,              UiT The Arctic U. of Norway,  Norway      (cubic response in RESPONS module)
  Poul Joergensen,          Aarhus University,            Denmark     (RESPONS, ABACUS, and CC modules)
  Maciej Kaminski,          University of Warsaw,         Poland      (CPPh in RESPONS)
  Joanna Kauczor,           Linkoeping University,        Sweden      (Complex polarization propagator (CPP) module)
  Sheela Kirpekar,          Univ. of Southern Denmark,    Denmark     (Mass-velocity & Darwin integrals)
  Wim Klopper,              KIT Karlsruhe,                Germany     (R12 code in CC, SIRIUS, and ABACUS modules)
  Stefan Knecht,            ETH Zurich,                   Switzerland (Parallel CI and MCSCF)
  Rika Kobayashi,           Australian National Univ.,    Australia   (DIIS in CC, London in MCSCF)
  Henrik Koch,              NTNU,                         Norway      (CC module, Cholesky decomposition)
  Jacob Kongsted,           Univ. of Southern Denmark,    Denmark     (Polarizable embedding model, QM/MM)
  Andrea Ligabue,           University of Modena,         Italy       (CTOCD, AOSOPPA)
  Nanna H. List             Univ. of Southern Denmark,    Denmark     (Polarizable embedding model)
  Ola B. Lutnaes,           University of Oslo,           Norway      (DFT Hessian)
  Juan I. Melo,             University of Buenos Aires,   Argentina   (LRESC, Relativistic Effects on NMR Shieldings)
  Kurt V. Mikkelsen,        University of Copenhagen,     Denmark     (MC-SCRF and QM/MM)
  Rolf H. Myhre,            NTNU,                         Norway      (Cholesky, subsystems and ECC2)
  Christian Neiss,          Univ. Erlangen-Nuernberg,     Germany     (CCSD(R12))
  Christian B. Nielsen,     University of Copenhagen,     Denmark     (QM/MM)
  Patrick Norman,           Linkoeping University,        Sweden      (Cubic response and complex response in RESPONS)
  Jeppe Olsen,              Aarhus University,            Denmark     (SIRIUS CI/density modules)
  Jogvan Magnus H. Olsen,   Univ. of Southern Denmark,    Denmark     (Polarizable embedding model, QM/MM)
  Anders Osted,             Copenhagen University,        Denmark     (QM/MM)
  Martin J. Packer,         University of Sheffield,      UK          (SOPPA)
  Filip Pawlowski,          Kazimierz Wielki University,  Poland      (CC3)
  Morten N. Pedersen,       Univ. of Southern Denmark,    Denmark     (Polarizable embedding model)
  Thomas B. Pedersen,       University of Oslo,           Norway      (Cholesky decomposition)
  Patricio F. Provasi,      University of Northeastern,   Argentina   (Analysis of coupling constants in localized orbitals)
  Zilvinas Rinkevicius,     KTH Stockholm,                Sweden      (open-shell DFT, ESR)
  Elias Rudberg,            KTH Stockholm,                Sweden      (DFT grid and basis info)
  Torgeir A. Ruden,         University of Oslo,           Norway      (Numerical derivatives in ABACUS)
  Kenneth Ruud,             UiT The Arctic U. of Norway,  Norway      (DALTON; ABACUS magnetic properties and much more)
  Pawel Salek,              KTH Stockholm,                Sweden      (DALTON; DFT code)
  Claire C. M. Samson       University of Karlsruhe       Germany     (Boys localization, r12 integrals in ERI)
  Alfredo Sanchez de Meras, University of Valencia,       Spain       (CC module, Cholesky decomposition)
  Trond Saue,               Paul Sabatier University,     France      (direct Fock matrix construction)
  Stephan P. A. Sauer,      University of Copenhagen,     Denmark     (SOPPA(CCSD), SOPPA prop., AOSOPPA, vibrational g-factors)
  Bernd Schimmelpfennig,    Forschungszentrum Karlsruhe,  Germany     (AMFI module)
  Kristian Sneskov,         Aarhus University,            Denmark     (Polarizable embedding model, QM/MM)
  Arnfinn H. Steindal,      UiT The Arctic U. of Norway,  Norway      (parallel QM/MM, Polarizable embedding model)
  Casper Steinmann,         Univ. of Southern Denmark,    Denmark     (QFIT, Polarizable embedding model)
  K. O. Sylvester-Hvid,     University of Copenhagen,     Denmark     (MC-SCRF)
  Peter R. Taylor,          VLSCI/Univ. of Melbourne,     Australia   (Symmetry handling ABACUS, integral transformation)
  Andrew M. Teale,          University of Nottingham,     England     (DFT-AC, DFT-D)
  David P. Tew,             University of Bristol,        England     (CCSD(R12))
  Olav Vahtras,             KTH Stockholm,                Sweden      (triplet response, spin-orbit, ESR, TDDFT, open-shell DFT)
  David J. Wilson,          La Trobe University,          Australia   (DFT Hessian and DFT magnetizabilities)
  Hans Agren,               KTH Stockholm,                Sweden      (SIRIUS module, RESPONS, MC-SCRF solvation model)
 --------------------------------------------------------------------------------

     Date and time (Linux)  : Mon Feb 23 15:15:07 2015
     Host name              : foeroyar                                

 * Work memory size             :    64000000 =  488.28 megabytes.

 * Directories for basis set searches:
   1) /home/magnus/Projects/dalton_devel/dalton/build_pelib/test/pemcscf
   2) /home/magnus/Projects/dalton_devel/dalton/build_pelib/basis


Compilation information
-----------------------

 Who compiled             | magnus
 Host                     | foeroyar
 System                   | Linux-3.18.6-200.fc21.x86_64
 CMake generator          | Unix Makefiles
 Processor                | x86_64
 64-bit integers          | OFF
 MPI                      | ON
 Fortran compiler         | /usr/local/bin/mpif90
 Fortran compiler version | GNU Fortran (GCC) 4.9.2 20150212 (Red Hat 4.9.2-6)
 C compiler               | /usr/local/bin/mpicc
 C compiler version       | gcc (GCC) 4.9.2 20150212 (Red Hat 4.9.2-6)
 C++ compiler             | /usr/local/bin/mpicxx
 C++ compiler version     | unknown
 BLAS                     | /lib64/libblas.so
 LAPACK                   | /lib64/liblapack.so
 Static linking           | OFF
 Last Git revision        | 5238537d2eab9c23858149b88466e4eda8e39bfc
 Git branch               | [32mpe/develop[m
 Configuration time       | 2015-02-23 15:06:18.814013

 * Sequential calculation.


   Content of the .dal input file
 ----------------------------------

**DALTON                                          
.RUN PROPERTIES                                   
.PEQM                                             
**WAVE FUNCTIONS                                  
.HF                                               
.MCSCF                                            
*SCF INPUT                                        
.NODIIS                                           
*CONFIGURATION INPUT                              
.SYMMETRY                                         
 1                                                
.SPIN MUL                                         
 1                                                
.INACTIVE                                         
 6                                                
.ELECTRONS                                        
 4                                                
.CAS SPACE                                        
 4                                                
**PROPERTIES                                      
.EXCITA                                           
*EXCITA                                           
.NEXCIT                                           
 2                                                
.DIPSTR                                           
**END OF                                          


   Content of the .mol file
 ----------------------------

BASIS                                                                          
3-21G                                                                          
Formaldehyde                                                                   
------------------------                                                       
AtomTypes=3 NoSymmetry Angstrom                                                
Charge=6.0 Atoms=1                                                             
C           -1.588367    -.770650     .029109                                  
Charge=8.0 Atoms=1                                                             
O           -1.657083     .436069    -.009750                                  
Charge=1.0 Atoms=2                                                             
H           -.620668   -1.294822      .054251                                  
H           -2.508043   -1.382001     .040282                                  


       *******************************************************************
       *********** Output from DALTON general input processing ***********
       *******************************************************************

 --------------------------------------------------------------------------------
   Overall default print level:    0
   Print level for DALTON.STAT:    1

    HERMIT 1- and 2-electron integral sections will be executed
    "Old" integral transformation used (limited to max 255 basis functions)
    Wave function sections will be executed (SIRIUS module)
    Static molecular property section will be executed (ABACUS module)
    Environment is modeled using polarizable embedding scheme (PE library)
 --------------------------------------------------------------------------------


   ****************************************************************************
   *************** Output of molecule and basis set information ***************
   ****************************************************************************


    The two title cards from your ".mol" input:
    ------------------------------------------------------------------------
 1: Formaldehyde                                                            
 2: ------------------------                                                
    ------------------------------------------------------------------------

  Coordinates are entered in Angstrom and converted to atomic units.
          - Conversion factor : 1 bohr = 0.52917721 A

  Atomic type no.    1
  --------------------
  Nuclear charge:   6.00000
  Number of symmetry independent centers:    1
  Number of basis sets to read;    2
  Basis set file used for this atomic type with Z =   6 :
     "/home/magnus/Projects/dalton_devel/dalton/build_pelib/basis/3-21G"

  Info about the basis set file: your basis has no documentation.
  Basis set: 3-21G                                                                           

  Atomic type no.    2
  --------------------
  Nuclear charge:   8.00000
  Number of symmetry independent centers:    1
  Number of basis sets to read;    2
  Basis set file used for this atomic type with Z =   8 :
     "/home/magnus/Projects/dalton_devel/dalton/build_pelib/basis/3-21G"

  Info about the basis set file: your basis has no documentation.
  Basis set: 3-21G                                                                           

  Atomic type no.    3
  --------------------
  Nuclear charge:   1.00000
  Number of symmetry independent centers:    2
  Number of basis sets to read;    2
  Basis set file used for this atomic type with Z =   1 :
     "/home/magnus/Projects/dalton_devel/dalton/build_pelib/basis/3-21G"

  Info about the basis set file: your basis has no documentation.
  Basis set: 3-21G                                                                           


                         SYMGRP: Point group information
                         -------------------------------

@    Point group: C1 


                                 Isotopic Masses
                                 ---------------

                           C          12.000000
                           O          15.994915
                           H           1.007825
                           H           1.007825

                       Total mass:    30.010565 amu
                       Natural abundance:  98.633 %

 Center-of-mass coordinates (a.u.):   -3.067740   -0.312997    0.018175


  Atoms and basis sets
  --------------------

  Number of atom types :    3
  Total number of atoms:    4

  Basis set used is "3-21G" from the basis set library.

  label    atoms   charge   prim   cont     basis
  ----------------------------------------------------------------------
  C           1    6.0000    15     9      [6s3p|3s2p]                                        
  O           1    8.0000    15     9      [6s3p|3s2p]                                        
  H           2    1.0000     3     2      [3s|2s]                                            
  ----------------------------------------------------------------------
  total:      4   16.0000    36    22
  ----------------------------------------------------------------------

  Threshold for neglecting AO integrals:  1.00D-12


  Cartesian Coordinates (a.u.)
  ----------------------------

  Total number of coordinates:   12
  C       :     1  x  -3.0015786160    2  y  -1.4563174382    3  z   0.0550080378
  O       :     4  x  -3.1314330364    5  y   0.8240509816    6  z  -0.0184248297
  H       :     7  x  -1.1728925345    8  y  -2.4468589606    9  z   0.1025195320
  H       :    10  x  -4.7395143797   11  y  -2.6116033945   12  z   0.0761219478


   Interatomic separations (in Angstrom):
   --------------------------------------

            C           O           H           H     
            ------      ------      ------      ------
 C     :    0.000000
 O     :    1.209298    0.000000
 H     :    1.100831    2.018474    0.000000
 H     :    1.104391    2.007988    1.889439    0.000000


  Max    interatomic separation is    2.0185 Angstrom (    3.8144 Bohr)
  between atoms    3 and    2, "H     " and "O     ".

  Min HX interatomic separation is    1.1008 Angstrom (    2.0803 Bohr)

  Min YX interatomic separation is    1.2093 Angstrom (    2.2852 Bohr)


  Bond distances (Angstrom):
  --------------------------

                  atom 1     atom 2       distance
                  ------     ------       --------
  bond distance:  O          C            1.209298
  bond distance:  H          C            1.100831
  bond distance:  H          C            1.104391


  Bond angles (degrees):
  ----------------------

                  atom 1     atom 2     atom 3         angle
                  ------     ------     ------         -----
  bond angle:     O          C          H            121.724
  bond angle:     O          C          H            120.357
  bond angle:     H          C          H            117.919




 Principal moments of inertia (u*A**2) and principal axes
 --------------------------------------------------------

   IA       1.798871         -0.056827    0.997867   -0.032124
   IB      13.009178          0.998345    0.057081    0.007042
   IC      14.808049         -0.008861    0.031671    0.999459


 Rotational constants
 --------------------

@    The molecule is planar.

               A                   B                   C

         280942.3015          38847.8806          34128.6681 MHz
            9.371226            1.295826            1.138410 cm-1


@  Nuclear repulsion energy :   31.249215315972 Hartree

  Reading potential input file for polarizable embedding calculation

    .------------------------------------------------.
    | Information from polarizable embedding library |
    `------------------------------------------------´

      Number of classical sites:      6

      Multipole moments upto 2nd order.

      Dipole-dipole polarizabilities.

      Iterative solver for induced moments will be used
      with convergence threshold: 1.0E-08


                     .---------------------------------------.
                     | Starting in Integral Section (HERMIT) |
                     `---------------------------------------'



 ***************************************************************************************
 ****************** Output from **INTEGRALS input processing (HERMIT) ******************
 ***************************************************************************************


 - Using defaults, no **INTEGRALS input found

 Default print level:        1

 * Nuclear model: Point charge

 Calculation of one- and two-electron Hamiltonian integrals.

 Center of mass  (bohr):     -3.067740315293     -0.312997395263      0.018174673399
 Operator center (bohr):      0.000000000000      0.000000000000      0.000000000000
 Gauge origin    (bohr):      0.000000000000      0.000000000000      0.000000000000
 Dipole origin   (bohr):      0.000000000000      0.000000000000      0.000000000000


     ************************************************************************
     ************************** Output from HERINT **************************
     ************************************************************************


 Threshold for neglecting two-electron integrals:  1.00D-12
 HERMIT - Number of two-electron integrals written:       30470 ( 94.8% )
 HERMIT - Megabytes written:                              0.350

 >>>> Total CPU  time used in HERMIT:   0.09 seconds
 >>>> Total wall time used in HERMIT:   0.09 seconds


                        .----------------------------------.
                        | End of Integral Section (HERMIT) |
                        `----------------------------------'



                   .--------------------------------------------.
                   | Starting in Wave Function Section (SIRIUS) |
                   `--------------------------------------------'


 *** Output from Huckel module :

     Using EWMO model:          T
     Using EHT  model:          F
     Number of Huckel orbitals each symmetry:   12

 EWMO - Energy Weighted Maximum Overlap - is a Huckel type method,
        which normally is better than Extended Huckel Theory.
 Reference: Linderberg and Ohrn, Propagators in Quantum Chemistry (Wiley, 1973)

 Huckel EWMO eigenvalues for symmetry :  1
          -20.684762     -11.351957      -1.632119      -1.046130      -0.813248
           -0.702067      -0.605910      -0.491826      -0.321033      -0.161573
           -0.131670      -0.108806

 **********************************************************************
 *SIRIUS* a direct, restricted step, second order MCSCF program       *
 **********************************************************************

 
     Date and time (Linux)  : Mon Feb 23 15:15:07 2015
     Host name              : foeroyar                                

 Title lines from ".mol" input file:
     Formaldehyde                                                            
     ------------------------                                                

 Print level on unit LUPRI =   2 is   0
 Print level on unit LUW4  =   2 is   5

@    MC-SCF optimization.
@              Type: complete active space calculation (CAS).

@    This is a combination run starting with
@              a restricted, closed shell Hartree-Fock calculation


 Initial molecular orbitals are obtained according to
 ".MOSTART EWMO  " input option

@    QM part is embedded in an environment :

@         Model: PE

     Wave function specification
     ============================

     Wave function environment is modeled using the
     polarizable embedding model (PE library).

@    Wave function type        >>> PE-MC-SCF <<<
@    Number of closed shell electrons          12
@    Number of electrons in active shells       4
@    Total charge of the molecule               0

@    Spin multiplicity and 2 M_S                1         0
@    Total number of symmetries                 1 (point group: C1 )
@    Reference state symmetry                   1 (irrep name : A  )

     Orbital specifications
     ======================
@    Abelian symmetry species          All |    1
@                                          |  A  
                                       --- |  ---
@    Inactive orbitals                   6 |    6
@    Active orbitals                     4 |    4
@    Secondary orbitals                 12 |   12
@    Total number of orbitals           22 |   22
@    Number of basis functions          22 |   22

      -- Initial occupation of symmetries is determined from total charge (only one symmetry!)
      -- Initial occupation of symmetries is :
@    Occupied SCF orbitals               8 |    8

     Optimization information
     ========================
@    Number of configurations                20
@    Number of orbital rotations            144
     ------------------------------------------
@    Total number of variables              164

     Maximum number of macro iterations      25
     Maximum number of micro iterations     600
     Threshold for MCSCF gradient      1.00D-05
     Number of initial trial vectors          1
     Number of initial CI iterations          3
     Number of simultaneous trial vectors     1

@    This calculation converges to the lowest state for the specified symmetry and spin species.

     Maximum number of NEO/NR iterations  24


        SIRIUS QC-HF optimization (SIROPT)
 ================================================


   <<< OUTPUT FROM SIRCNO     Keyword = ONLYFD

     (Precalculated two-electron integrals are transformed to P-supermatrix elements.
      Threshold for discarding integrals :  1.00D-12 )


 <<< MACRO ITERATION  1 >>>
 --------------------------

 Total QC-HF energy       :          -112.861663729167105  (MACRO    1)

 - Nuclear repulsion      :            31.249215315972382
 - Inactive energy        :          -144.078112564774642
 - Active energy          :             0.000000000000000
 - Embedding energy       :            -0.032766480364848

 Norm of total gradient   :             2.493589011253
 -    of CI gradient      :             0.000000000000
 -    of orbital gradient :             2.493589011253
      Virial theorem: -V/T =      2.000510
@      MULPOP C       1.01; O      -0.72; H      -0.15; H      -0.15; 

 Residual norm when dim(red L) =   3
 NEO root     CSF        orbital          total
    1     0.00000000     0.29031462     0.29031462 converged

 (NEONEX) NEO vector is converged.

   <<< OUTPUT FROM SIRCNO     Keyword = FD+NO 



 <<< MACRO ITERATION  2 >>>
 --------------------------

 Total QC-HF energy       :          -113.228746190093503  (MACRO    2)

 - Nuclear repulsion      :            31.249215315972382
 - Inactive energy        :          -144.454198311224076
 - Active energy          :             0.000000000000000
 - Embedding energy       :            -0.023763194841809

 Norm of total gradient   :             0.585464317078
 -    of CI gradient      :             0.000000000000
 -    of orbital gradient :             0.585464317078
      Virial theorem: -V/T =      2.001133
@      MULPOP C      -0.03; O      -0.37; H       0.23; H       0.16; 

 Residual norm when dim(red L) =   3
 NEO root     CSF        orbital          total
    1     0.00000000     0.04382535     0.04382535 converged

 (NEONEX) NEO vector is converged.

   <<< OUTPUT FROM SIRCNO     Keyword = FD+NO 



 <<< MACRO ITERATION  3 >>>
 --------------------------

 Total QC-HF energy       :          -113.247088338363966  (MACRO    3)

 - Nuclear repulsion      :            31.249215315972382
 - Inactive energy        :          -144.467591508693204
 - Active energy          :             0.000000000000000
 - Embedding energy       :            -0.028712145643144

 Norm of total gradient   :             0.045379803529
 -    of CI gradient      :             0.000000000000
 -    of orbital gradient :             0.045379803529
      Virial theorem: -V/T =      2.003691
@      MULPOP C       0.13; O      -0.56; H       0.26; H       0.17; 

 Residual norm when dim(red L) =   3
 NEO root     CSF        orbital          total
    1     0.00000000     0.00582754     0.00582754 converged

 (NEONEX) NEO vector is converged.

   <<< OUTPUT FROM SIRCNO     Keyword = FD+NO 



 <<< MACRO ITERATION  4 >>>
 --------------------------

 Total QC-HF energy       :          -113.247236056477973  (MACRO    4)

 - Nuclear repulsion      :            31.249215315972382
 - Inactive energy        :          -144.467133595000973
 - Active energy          :             0.000000000000000
 - Embedding energy       :            -0.029317777449380

 Norm of total gradient   :             0.005816875025
 -    of CI gradient      :             0.000000000000
 -    of orbital gradient :             0.005816875025
      Virial theorem: -V/T =      2.003113
@      MULPOP C       0.12; O      -0.57; H       0.27; H       0.18; 

 Residual norm when dim(red L) =   4
 NEO root     CSF        orbital          total
    1     0.00000000     0.00019365     0.00019365 converged

 (NEONEX) NEO vector is converged.

   <<< OUTPUT FROM SIRCNO     Keyword = FD+NO 



 <<< MACRO ITERATION  5 >>>
 --------------------------

 Total QC-HF energy       :          -113.247238748809778  (MACRO    5)

 - Nuclear repulsion      :            31.249215315972382
 - Inactive energy        :          -144.467149787459647
 - Active energy          :             0.000000000000000
 - Embedding energy       :            -0.029304277322505

 Norm of total gradient   :             0.000193638224
 -    of CI gradient      :             0.000000000000
 -    of orbital gradient :             0.000193638224
      Virial theorem: -V/T =      2.003164
@      MULPOP C       0.12; O      -0.57; H       0.27; H       0.18; 

 Residual norm when dim(red L) =   5
 NEO root     CSF        orbital          total
    1     0.00000000     0.00000842     0.00000842 converged

 (NEONEX) NEO vector is converged.

   <<< OUTPUT FROM SIRCNO     Keyword = FD+NO 



 <<< MACRO ITERATION  6 >>>
 --------------------------

 Total QC-HF energy       :          -113.247238753707578  (MACRO    6)

 - Nuclear repulsion      :            31.249215315972382
 - Inactive energy        :          -144.467151140726685
 - Active energy          :             0.000000000000000
 - Embedding energy       :            -0.029302928953265

 Norm of total gradient   :             0.000008418308
 -    of CI gradient      :             0.000000000000
 -    of orbital gradient :             0.000008418308
      Virial theorem: -V/T =      2.003164
@      MULPOP C       0.12; O      -0.57; H       0.27; H       0.18; 

 (SIRSTP) Energy difference;
 actual, predicted and ratio:  -0.000000004897799  -0.000000004897336    1.000095
 Close to convergence, ratio set to one.

 *** Optimization control: QC-HF converged ***
     Number of macro iterations used            6
     Number of micro iterations used           13
     Total number of CPU seconds used         0.41

    .--------------------------------------------------.
    | Final results from polarizable embedding library |
    `--------------------------------------------------´

        Polarizable embedding energy contributions:
       ---------------------------------------------

       Electrostatic contributions:
            Electronic                -0.216139251311
            Nuclear                    0.196501001970
            Multipole                  0.000000000000
            Total                     -0.019638249341

       Polarization contributions:
            Electronic                -0.066611330320
            Nuclear                    0.062514712241
            Multipole                 -0.005568061531
            Total                     -0.009664679610

       Total PE energy:            -0.029302928951


 *** SCF orbital energy analysis ***
    (incl. contribution from polarizable embedding potential)

 Number of electrons :   16
 Orbital occupations :    8

 Sym       Hartree-Fock orbital energies

1 A     -20.49039585   -11.29029948    -1.42742771    -0.86339914    -0.70285903
         -0.65087471    -0.53906177    -0.44689909     0.13888456     0.29022897
          0.37915831     0.44751620     0.92871910     1.02602810     1.03294539
          1.14637627     1.27593329     1.56688226     1.85258653     1.87940146
          1.95617604     3.31244276

    E(LUMO) :     0.13888456 au (symmetry 1)
  - E(HOMO) :    -0.44689909 au (symmetry 1)
  ------------------------------------------
    gap     :     0.58578365 au

 NOTE: MOLECULAR ORBITALS ARE NOT CANONICAL HARTREE-FOCK ORBITALS

 Largest off-diagonal Fock matrix element is  2.44D-02

 >>>> CPU and wall time for SCF :       0.442       0.445


        SIRIUS MCSCF optimization (SIROPT)
 ================================================



 <<<<< Output from SIRIUS CI module (CICTL) >>>>>




 Integral transformation: Total CPU and WALL times (sec)       0.009       0.010

 (CIST1)  4 lowest diagonal elements:

 Element no. Config.no.    Active energy      Total energy

         1 :          1     -4.9835232036   -113.2179358248
         2 :          7     -4.8330887130   -113.0675013341
         3 :         10     -4.6560993958   -112.8905120169
         4 :          8     -4.5650998620   -112.7995124831


 Convergence threshold for CI optimization :     0.00000500



 *** Reached maximum number of CI iterations:    3
              1 CI roots are not converged.


@ Final CI energies and residuals in symmetry 1 (irrep A  )
@    1     -113.251691408931237       2.21D-03

   <<< OUTPUT FROM SIRCNO     Keyword = FD+NO 


 Occupations of CAS natural orbitals:

 Symmetry  1 ( irrep A   in C1  )

   1.916440953   1.998252587   0.084699341   0.000607119


 <<< MACRO ITERATION  1 >>>
 --------------------------

 Integral transformation: Total CPU and WALL times (sec)       0.029       0.029

 Total MCSCF energy       :          -113.275965923881301  (MACRO    1)

 - Nuclear repulsion      :            31.249215315972382
 - Inactive energy        :          -139.483627937081508
 - Active energy          :            -5.017278787821994
 - Embedding energy       :            -0.024274514950177

 Norm of total gradient   :             0.193959953304
 -    of CI gradient      :             0.046705632722
 -    of orbital gradient :             0.188252615806
      Virial theorem: -V/T =      2.004569
@      MULPOP C      -0.01; O      -0.44; H       0.25; H       0.20; 

 (SIRNEO) iteration (  1,  4)
 Micro iteration termination criterion met, EVAL(ISTATE+1) = -9.86D-03

   <<< OUTPUT FROM SIRCNO     Keyword = FD+NO 


 Occupations of CAS natural orbitals:

 Symmetry  1 ( irrep A   in C1  )

   1.861525170   1.988988960   0.140435988   0.009049883


 <<< MACRO ITERATION  2 >>>
 --------------------------

 Integral transformation: Total CPU and WALL times (sec)       0.027       0.027

 Total MCSCF energy       :          -113.287092163534325  (MACRO    2)

 - Nuclear repulsion      :            31.249215315972382
 - Inactive energy        :          -139.682066634879135
 - Active energy          :            -4.828235668337492
 - Embedding energy       :            -0.026005176290073

 Norm of total gradient   :             0.157625253719
 -    of CI gradient      :             0.139739146433
 -    of orbital gradient :             0.072929360096
      Virial theorem: -V/T =      2.001164
@      MULPOP C       0.06; O      -0.49; H       0.26; H       0.17; 

 (SIRNEO) iteration (  2,  2)
 Micro iteration termination criterion met, EVAL(ISTATE+1) = -1.97D-03

   <<< OUTPUT FROM SIRCNO     Keyword = FD+NO 


 Occupations of CAS natural orbitals:

 Symmetry  1 ( irrep A   in C1  )

   1.911285594   1.993834885   0.089782063   0.005097459


 <<< MACRO ITERATION  3 >>>
 --------------------------

 Integral transformation: Total CPU and WALL times (sec)       0.025       0.025

 Total MCSCF energy       :          -113.299687628823406  (MACRO    3)

 - Nuclear repulsion      :            31.249215315972382
 - Inactive energy        :          -139.238411129381234
 - Active energy          :            -5.284199238335499
 - Embedding energy       :            -0.026292577079052

 Norm of total gradient   :             0.120553139148
 -    of CI gradient      :             0.111940965778
 -    of orbital gradient :             0.044746838313
      Virial theorem: -V/T =      2.002051
@      MULPOP C       0.05; O      -0.49; H       0.27; H       0.18; 

 Residual norm when dim(red L) =   7
 NEO root     CSF        orbital          total
    1     0.02035781     0.00858402     0.02209357 converged

 (NEONEX) NEO vector is converged.

   <<< OUTPUT FROM SIRCNO     Keyword = FD+NO 


 Occupations of CAS natural orbitals:

 Symmetry  1 ( irrep A   in C1  )

   1.923941462   1.980279598   0.076661551   0.019117389


 <<< MACRO ITERATION  4 >>>
 --------------------------

 Integral transformation: Total CPU and WALL times (sec)       0.020       0.020

 Total MCSCF energy       :          -113.305926654414193  (MACRO    4)

 - Nuclear repulsion      :            31.249215315972382
 - Inactive energy        :          -138.828584159067987
 - Active energy          :            -5.700526889552657
 - Embedding energy       :            -0.026030921765929

 Norm of total gradient   :             0.134750000962
 -    of CI gradient      :             0.124573653248
 -    of orbital gradient :             0.051370883540
      Virial theorem: -V/T =      2.002421
@      MULPOP C       0.05; O      -0.49; H       0.26; H       0.18; 

 (SIRNEO) iteration (  4,  4)
 Micro iteration termination criterion met, EVAL(ISTATE+1) = -2.29D-03

   <<< OUTPUT FROM SIRCNO     Keyword = FD+NO 


 Occupations of CAS natural orbitals:

 Symmetry  1 ( irrep A   in C1  )

   1.925115318   1.984312618   0.075488631   0.015083433


 <<< MACRO ITERATION  5 >>>
 --------------------------

 Integral transformation: Total CPU and WALL times (sec)       0.019       0.020

 Total MCSCF energy       :          -113.312060879107605  (MACRO    5)

 - Nuclear repulsion      :            31.249215315972382
 - Inactive energy        :          -138.557053366300863
 - Active energy          :            -5.977922310968042
 - Embedding energy       :            -0.026300517811087

 Norm of total gradient   :             0.053502780341
 -    of CI gradient      :             0.031967528100
 -    of orbital gradient :             0.042902501692
      Virial theorem: -V/T =      2.002224
@      MULPOP C       0.08; O      -0.49; H       0.26; H       0.15; 

 Residual norm when dim(red L) =   9
 NEO root     CSF        orbital          total
    1     0.00602061     0.00145627     0.00619423 converged

 (NEONEX) NEO vector is converged.

   <<< OUTPUT FROM SIRCNO     Keyword = FD+NO 


 Occupations of CAS natural orbitals:

 Symmetry  1 ( irrep A   in C1  )

   1.925553549   1.980141355   0.074339693   0.019965403


 <<< MACRO ITERATION  6 >>>
 --------------------------

 Integral transformation: Total CPU and WALL times (sec)       0.019       0.019

 Total MCSCF energy       :          -113.319633991221764  (MACRO    6)

 - Nuclear repulsion      :            31.249215315972382
 - Inactive energy        :          -138.151248733325531
 - Active energy          :            -6.390832424263993
 - Embedding energy       :            -0.026768149604627

 Norm of total gradient   :             0.030430890430
 -    of CI gradient      :             0.021432799604
 -    of orbital gradient :             0.021602643206
      Virial theorem: -V/T =      2.002038
@      MULPOP C       0.06; O      -0.49; H       0.26; H       0.17; 

 Residual norm when dim(red L) =  10
 NEO root     CSF        orbital          total
    1     0.00288835     0.00104704     0.00307227 converged

 (NEONEX) NEO vector is converged.

   <<< OUTPUT FROM SIRCNO     Keyword = FD+NO 


 Occupations of CAS natural orbitals:

 Symmetry  1 ( irrep A   in C1  )

   1.927245946   1.978582919   0.072639628   0.021531506


 <<< MACRO ITERATION  7 >>>
 --------------------------

 Integral transformation: Total CPU and WALL times (sec)       0.033       0.033

 Total MCSCF energy       :          -113.322339144224557  (MACRO    7)

 - Nuclear repulsion      :            31.249215315972382
 - Inactive energy        :          -138.030498835967848
 - Active energy          :            -6.514145340525807
 - Embedding energy       :            -0.026910283703289

 Norm of total gradient   :             0.034893670122
 -    of CI gradient      :             0.028425713157
 -    of orbital gradient :             0.020237268741
      Virial theorem: -V/T =      2.001917
@      MULPOP C       0.07; O      -0.50; H       0.26; H       0.17; 

 Residual norm when dim(red L) =   7
 NEO root     CSF        orbital          total
    1     0.00405437     0.00255284     0.00479113 converged

 (NEONEX) NEO vector is converged.

   <<< OUTPUT FROM SIRCNO     Keyword = FD+NO 


 Occupations of CAS natural orbitals:

 Symmetry  1 ( irrep A   in C1  )

   1.927109341   1.979830214   0.072857447   0.020202999


 <<< MACRO ITERATION  8 >>>
 --------------------------

 Integral transformation: Total CPU and WALL times (sec)       0.024       0.023

 Total MCSCF energy       :          -113.322687516366713  (MACRO    8)

 - Nuclear repulsion      :            31.249215315972382
 - Inactive energy        :          -137.995010937589996
 - Active energy          :            -6.550129434012391
 - Embedding energy       :            -0.026762460736711

 Norm of total gradient   :             0.004784461251
 -    of CI gradient      :             0.003983605562
 -    of orbital gradient :             0.002649897392
      Virial theorem: -V/T =      2.001965
@      MULPOP C       0.06; O      -0.49; H       0.26; H       0.17; 

 Residual norm when dim(red L) =  12
 NEO root     CSF        orbital          total
    1     0.00006188     0.00001454     0.00006357 converged

 (NEONEX) NEO vector is converged.

   <<< OUTPUT FROM SIRCNO     Keyword = FD+NO 


 Occupations of CAS natural orbitals:

 Symmetry  1 ( irrep A   in C1  )

   1.926346356   1.979892374   0.073617492   0.020143779


 <<< MACRO ITERATION  9 >>>
 --------------------------

 Integral transformation: Total CPU and WALL times (sec)       0.023       0.023

 Total MCSCF energy       :          -113.322692049265910  (MACRO    9)

 - Nuclear repulsion      :            31.249215315972382
 - Inactive energy        :          -137.999059871018602
 - Active energy          :            -6.546079358534495
 - Embedding energy       :            -0.026768135685191

 Norm of total gradient   :             0.000071108803
 -    of CI gradient      :             0.000068730119
 -    of orbital gradient :             0.000018238216
      Virial theorem: -V/T =      2.001962
@      MULPOP C       0.06; O      -0.49; H       0.26; H       0.17; 

 Residual norm when dim(red L) =   7
 NEO root     CSF        orbital          total
    1     0.00000773     0.00000343     0.00000846 converged

 (NEONEX) NEO vector is converged.

   <<< OUTPUT FROM SIRCNO     Keyword = FD+NO 


 Occupations of CAS natural orbitals:

 Symmetry  1 ( irrep A   in C1  )

   1.926359432   1.979892961   0.073604771   0.020142836


 <<< MACRO ITERATION 10 >>>
 --------------------------

 Integral transformation: Total CPU and WALL times (sec)       0.021       0.020

 Total MCSCF energy       :          -113.322692050239652  (MACRO   10)

 - Nuclear repulsion      :            31.249215315972382
 - Inactive energy        :          -137.999084267963326
 - Active energy          :            -6.546055040052672
 - Embedding energy       :            -0.026768058196022

 Norm of total gradient   :             0.000008455711
 -    of CI gradient      :             0.000007727546
 -    of orbital gradient :             0.000003432795
      Virial theorem: -V/T =      2.001962
@      MULPOP C       0.06; O      -0.49; H       0.26; H       0.17; 

 (SIRSTP) Energy difference;
 actual, predicted and ratio:  -0.000000000973742  -0.000000000969135    1.004754
 Close to convergence, ratio set to one.

 *** Optimization control: MCSCF converged ***
     Number of macro iterations used           10
     Number of micro iterations used           50
     Total number of CPU seconds used         1.50

    .--------------------------------------------------.
    | Final results from polarizable embedding library |
    `--------------------------------------------------´

        Polarizable embedding energy contributions:
       ---------------------------------------------

       Electrostatic contributions:
            Electronic                -0.214367272604
            Nuclear                    0.196501001970
            Multipole                  0.000000000000
            Total                     -0.017866270634

       Polarization contributions:
            Electronic                -0.062091661800
            Nuclear                    0.058587553992
            Multipole                 -0.005397679753
            Total                     -0.008901787560

       Total PE energy:            -0.026768058194

 Integral transformation: Total CPU and WALL times (sec)       0.027       0.027

 >>>> CPU and wall time for MCSCF :       1.558       1.557


                     .----------------------------------------.
                     | >>> SIRIUS OPTIMIZATION STATISTICS <<< |
                     `----------------------------------------'


 
     Date and time (Linux)  : Mon Feb 23 15:15:09 2015
     Host name              : foeroyar                                


  ITER ITMIC     EMCSCF           GRDNRM        RATIO      STPLNG
 ---------------------------------------------------------------------
    1    2   -112.861663729167   2.4935890113  0.000000   0.3734502065
    2    2   -113.228746190094   0.5854643171  0.872797   0.0681654963
    3    2   -113.247088338364   0.0453798035  1.013256   0.0082881605
    4    3   -113.247236056478   0.0058168750  1.000661   0.0012911434
    5    4   -113.247238748810   0.0001936382  1.000034   0.0000742501
    6    0   -113.247238753708   0.0000084183  1.000000   0.0000000000
    1    4   -113.275965923881   0.1939599533  0.000000   0.7435357234
    2    2   -113.287092163534   0.1576252537  0.498032   0.6931282457
    3    5   -113.299687628823   0.1205531391  0.749849   0.7071786865
    4    4   -113.305926654414   0.1347500010  0.451708   0.6989073923
    5    7   -113.312060879108   0.0535027803  0.796254   0.7235715707
    6    8   -113.319633991222   0.0304308904  0.786613   0.7117562923
    7    5   -113.322339144225   0.0348936701  0.671928   0.1093244716
    8   10   -113.322687516367   0.0047844613  1.023080   0.0103135536
    9    5   -113.322692049266   0.0000711088  1.001344   0.0000539092
   10    0   -113.322692050240   0.0000084557  1.000000   0.0000000000


  ITER  INDGCM  GCIMAX      GCINRM     INDGOM  GOBMAX      GOBNRM      GRDNRM
 ------------------------------------------------------------------------------
    1      0    0.000000    0.000000     76   -0.913290    2.493589    2.493589
    2      0    0.000000    0.000000     78   -0.240546    0.585464    0.585464
    3      0    0.000000    0.000000     32   -0.016168    0.045380    0.045380
    4      0    0.000000    0.000000     78   -0.002328    0.005817    0.005817
    5      0    0.000000    0.000000     65    0.000066    0.000194    0.000194
    6      0    0.000000    0.000000     36    0.000003    0.000008    0.000008
    1     10   -0.039483    0.046706    105    0.072707    0.188253    0.193960
    2      3   -0.097026    0.139739     95    0.027086    0.072929    0.157625
    3     19   -0.071865    0.111941     95    0.018836    0.044747    0.120553
    4      4    0.104952    0.124574     24   -0.029374    0.051371    0.134750
    5     20    0.020688    0.031968    117   -0.015803    0.042903    0.053503
    6     20    0.014012    0.021433    119    0.011179    0.021603    0.030431
    7      4    0.016392    0.028426     95   -0.008774    0.020237    0.034894
    8      6    0.002358    0.003984     24   -0.000824    0.002650    0.004784
    9      8    0.000042    0.000069     68    0.000006    0.000018    0.000071
   10      6   -0.000005    0.000008    105    0.000002    0.000003    0.000008


  ITER ITMIC NCLIN NOLIN   TIMMAC    TIMITR    TIMMIC    TIMLIN    TIMMIC/ITMIC
 ------------------------------------------------------------------------------

    1     2     0     2      0.08      0.00      0.05      0.04      0.02
    2     2     0     2      0.06      0.00      0.05      0.05      0.02
    3     2     0     2      0.08      0.00      0.06      0.06      0.03
    4     3     0     3      0.08      0.00      0.07      0.07      0.02
    5     4     0     4      0.09      0.00      0.08      0.08      0.02
    6     0     0     0      0.01      0.00      0.00      0.00
    1     4     1     3      0.14      0.03      0.10      0.10      0.03
    2     2     1     2      0.11      0.03      0.07      0.07      0.04
    3     5     3     3      0.15      0.03      0.11      0.11      0.02
    4     4     2     3      0.11      0.02      0.08      0.08      0.02
    5     7     3     5      0.16      0.02      0.13      0.13      0.02
    6     8     4     5      0.19      0.02      0.17      0.16      0.02
    7     5     2     4      0.20      0.03      0.15      0.15      0.03
    8    10     4     7      0.25      0.02      0.22      0.21      0.02
    9     5     3     3      0.14      0.02      0.11      0.11      0.02
   10     0     0     0      0.03      0.02      0.00      0.00


 ITER         EMY                 EACTIV              EMCSCF

    1   -144.078112564775      0.000000000000   -112.861663729167
    2   -144.454198311224      0.000000000000   -113.228746190094
    3   -144.467591508693      0.000000000000   -113.247088338364
    4   -144.467133595001      0.000000000000   -113.247236056478
    5   -144.467149787460      0.000000000000   -113.247238748810
    6   -144.467151140727      0.000000000000   -113.247238753708
    1   -139.483627937082     -5.017278787822   -113.275965923881
    2   -139.682066634879     -4.828235668337   -113.287092163534
    3   -139.238411129381     -5.284199238335   -113.299687628823
    4   -138.828584159068     -5.700526889553   -113.305926654414
    5   -138.557053366301     -5.977922310968   -113.312060879108
    6   -138.151248733326     -6.390832424264   -113.319633991222
    7   -138.030498835968     -6.514145340526   -113.322339144225
    8   -137.995010937590     -6.550129434012   -113.322687516367
    9   -137.999059871019     -6.546079358534   -113.322692049266
   10   -137.999084267963     -6.546055040053   -113.322692050240


 ITER         DEPRED              DEACT               RATIO

    1      0.000000000000      0.000000000000      0.000000000000
    2     -0.420581575218     -0.367082460926      0.872797294403
    3     -0.018102179449     -0.018342148270      1.013256349697
    4     -0.000147620541     -0.000147718114      1.000660969233
    5     -0.000002692239     -0.000002692332      1.000034320524
    6     -0.000000004897     -0.000000004898      1.000000000000
    1      0.000000000000      0.000000000000      0.000000000000
    2     -0.022340432248     -0.011126239653      0.498031529987
    3     -0.016797324517     -0.012595465289      0.749849493964
    4     -0.013812089705     -0.006239025591      0.451707578209
    5     -0.007703857937     -0.006134224693      0.796253610063
    6     -0.009627490541     -0.007573112114      0.786613300892
    7     -0.004025955249     -0.002705153003      0.671928234596
    8     -0.000340513256     -0.000348372142      1.023079531240
    9     -0.000004526817     -0.000004532899      1.001343564231
   10     -0.000000000969     -0.000000000974      1.000000000000


 ITER    BETA           GAMMA             STPLNG              RTRUST

    1      0.20000000  1.00000000      0.373450206519      0.700000000000
    2      0.20000000  1.00000000      0.068165496260      0.700000000000
    3      0.20000000  1.00000000      0.008288160505      0.700000000000
    4      0.20000000  1.00000000      0.001291143360      0.700000000000
    5      0.20000000  1.00000000      0.000074250073      0.700000000000
    6      0.00000000  0.00000000      0.000000000000      0.700000000000
    1      1.27772127  1.00000000      0.743535723411      0.700000000000
    2      1.49501142  1.00000000      0.693128245692      0.700000000000
    3      1.17402858  1.00000000      0.707178686506      0.700000000000
    4      1.57665264  1.00000000      0.698907392342      0.700000000000
    5      1.57085788  1.00000000      0.723571570707      0.700000000000
    6      0.48727086  1.00000000      0.711756292262      0.700000000000
    7      0.20000000  1.00000000      0.109324471605      0.700000000000
    8      0.20000000  1.00000000      0.010313553613      0.700000000000
    9      0.20000000  1.00000000      0.000053909211      0.700000000000
   10      0.00000000  0.00000000      0.000000000000      0.700000000000


 Reduced L root no.  1
 ITER         EVAL              EVEC(1)           EVEC(2)           EVEC(3)
 ----------------------------------------------------------------------------
    1   -0.033459866729    0.997222315176   -0.066905423497   -0.032731000914
    2   -0.001447905246    0.999907082255   -0.013020182301   -0.004037537618
    3   -0.000011809611    0.999998626131   -0.001524689259   -0.000650430086
    4   -0.000000215379    0.999999966659   -0.000208604072   -0.000148425869
    5   -0.000000000392    0.999999999890   -0.000013869089   -0.000004631044
    6    0.000000000000    0.000000000000    0.000000000000    0.000000000000
    1   -0.038340301747    0.724988064122   -0.588830845946   -0.178600113968
    2   -0.036207286619   -0.694413930440    0.060655456556    0.662009711242
    3   -0.022539118552    0.769387457615   -0.054366976520   -0.610784998740
    4   -0.017297442528   -0.672025567720    0.011421753883    0.381913735650
    5   -0.020730834244   -0.660541253224    0.025213828928    0.627773533994
    6   -0.001706523025    0.944791912299   -0.001706010400   -0.296637029989
    7   -0.000027228043    0.999761048872   -0.001008392034   -0.017469459298
    8   -0.000000362144    0.999997872619   -0.000308601379   -0.001654645047
    9   -0.000000000078    0.999999999942   -0.000005892625   -0.000006844883
   10    0.000000000000    0.000000000000    0.000000000000    0.000000000000


                       .-----------------------------------.
                       | >>> Final results from SIRIUS <<< |
                       `-----------------------------------'


@    Spin multiplicity:           1
@    Spatial symmetry:            1 ( irrep  A   in C1  )
@    Total charge of molecule:    0
@    State number:                1

@    Final MCSCF energy:         -113.322692050240                 
@    Nuclear repulsion:            31.249215315972
@    Electronic energy:          -144.545139308016
@    Embedding energy:             -0.026768058196

@    Final gradient norm:           0.000008455711

 
     Date and time (Linux)  : Mon Feb 23 15:15:09 2015
     Host name              : foeroyar                                

 Occupancies of natural orbitals
 -------------------------------

 Symmetry 1  ( A  ) -- Total occupation in this symmetry is  16.000000000

   2.000000000   2.000000000   2.000000000   2.000000000   2.000000000
   2.000000000   1.926359432   1.979892961   0.073604771   0.020142836

File label for MO orbitals:  23Feb15   (CNOORB)

 (Only coefficients >0.0100 are printed.)

 Molecular orbitals for symmetry species 1  (A  )
 ------------------------------------------------

    Orbital         1        2        3        4        5        6        7
   1 C   :1s     0.0000  -0.9860  -0.0712   0.1731   0.0020  -0.0017  -0.0001
   2 C   :1s    -0.0006  -0.0940   0.0610  -0.1951  -0.0044   0.0004   0.0006
   3 C   :1s    -0.0182   0.0442   0.1106  -0.5202   0.0098   0.0224  -0.0006
   4 C   :2px    0.0002   0.0003   0.0039  -0.0216   0.3538   0.1860   0.0027
   5 C   :2py   -0.0031  -0.0030  -0.0551   0.1801   0.0184   0.0117  -0.0101
   6 C   :2pz    0.0001   0.0001   0.0019  -0.0063   0.0024   0.0014  -0.3080
   7 C   :2px    0.0010   0.0003  -0.0015  -0.0246   0.2897   0.0710   0.0024
   8 C   :2py   -0.0137  -0.0072  -0.0721   0.1333   0.0140  -0.0117  -0.0102
   9 C   :2pz    0.0004   0.0002   0.0026  -0.0055   0.0021   0.0011  -0.3048
  10 O   :1s    -0.9834   0.0002  -0.2299  -0.0837  -0.0017  -0.0004  -0.0001
  11 O   :1s    -0.0982  -0.0008   0.2165   0.0803  -0.0005   0.0028   0.0000
  12 O   :1s     0.0475  -0.0002   0.7670   0.3280   0.0088   0.0025   0.0006
  13 O   :2px   -0.0004  -0.0001  -0.0146  -0.0068   0.2673  -0.4500   0.0023
  14 O   :2py    0.0050   0.0009   0.1402   0.0653   0.0171  -0.0272  -0.0127
  15 O   :2pz   -0.0002  -0.0000  -0.0044  -0.0023   0.0013  -0.0022  -0.3969
  16 O   :2px    0.0007   0.0002  -0.0071  -0.0001   0.2444  -0.5553   0.0026
  17 O   :2py   -0.0124  -0.0030   0.1475   0.0458   0.0181  -0.0407  -0.0136
  18 O   :2pz    0.0004   0.0001  -0.0047  -0.0013   0.0008  -0.0022  -0.4230
  19 H   :1s     0.0008   0.0020   0.0580  -0.1805   0.1641   0.1727   0.0006
  20 H   :1s    -0.0004  -0.0126   0.0349  -0.0560   0.0865   0.2116   0.0007
  21 H   :1s     0.0009   0.0020   0.0533  -0.1716  -0.1757  -0.1803   0.0002
  22 H   :1s    -0.0001  -0.0126   0.0278  -0.0707  -0.1145  -0.2602  -0.0003

    Orbital         8        9       10       11       12       13       14
   1 C   :1s     0.1017   0.0001   0.1217  -0.1264   0.0056   0.0267   0.0001
   2 C   :1s    -0.1351  -0.0007  -0.3874   0.0472  -0.0049   0.2126   0.0008
   3 C   :1s    -0.0462   0.0006  -0.5132   1.6361  -0.0536  -0.9380  -0.0019
   4 C   :2px    0.0209  -0.0044   0.0380   0.0179   0.3895  -0.0274   0.0091
   5 C   :2py   -0.3499   0.0169  -0.6936  -0.2251   0.0233   0.6067  -0.0319
   6 C   :2pz    0.0113   0.5197   0.0225   0.0072   0.0025  -0.0196  -1.0021
   7 C   :2px   -0.0021  -0.0032   0.0086   0.0872   1.4680   0.1090  -0.0105
   8 C   :2py   -0.0377   0.0143  -0.2370  -0.9098   0.0977  -1.7489   0.0367
   9 C   :2pz    0.0014   0.4391   0.0076   0.0298   0.0094   0.0568   1.1301
  10 O   :1s     0.0518   0.0000  -0.1005  -0.0172  -0.0008  -0.0640  -0.0000
  11 O   :1s    -0.0554   0.0001   0.1945  -0.0041   0.0013  -0.0370   0.0000
  12 O   :1s    -0.0748  -0.0005   0.5387   0.2699   0.0030   1.2829   0.0000
  13 O   :2px   -0.0309   0.0036   0.0464   0.0012  -0.1256  -0.0091   0.0004
  14 O   :2py    0.4237  -0.0175  -0.7070   0.0031  -0.0093   0.1419  -0.0009
  15 O   :2pz   -0.0136  -0.5501   0.0228  -0.0002  -0.0007  -0.0046  -0.0262
  16 O   :2px   -0.0265   0.0024   0.0093  -0.0023  -0.3576   0.0278   0.0021
  17 O   :2py    0.4240  -0.0093  -0.2163  -0.0320  -0.0227  -0.4396  -0.0079
  18 O   :2pz   -0.0137  -0.2998   0.0070   0.0009  -0.0021   0.0142  -0.2446
  19 H   :1s     0.0420  -0.0005   0.0492  -0.0528   0.0171  -0.1148   0.0009
  20 H   :1s     0.0746  -0.0005   0.1028  -1.3860  -1.5131  -0.0423   0.0001
  21 H   :1s     0.0373  -0.0002   0.0434  -0.0488  -0.0126  -0.1129   0.0003
  22 H   :1s     0.0700   0.0004   0.0990  -1.2629   1.5890  -0.0083   0.0004

    Orbital        15       16       17       18       19       20
   1 C   :1s     0.0022  -0.0555   0.0013   0.0349   0.0000  -0.0115
   2 C   :1s     0.0259  -0.4224   0.0147  -1.3722  -0.0005   0.9456
   3 C   :1s    -0.0343   0.6635  -0.0243   2.8554   0.0008  -0.3425
   4 C   :2px    0.7770   0.0686   0.7947  -0.0303  -0.0013  -0.0232
   5 C   :2py    0.0547  -0.1543   0.0389   0.6385   0.0048   0.3660
   6 C   :2pz    0.0059   0.0045   0.0055  -0.0211   0.1412  -0.0117
   7 C   :2px   -1.9497  -0.1227  -0.9628   0.0181  -0.0017   0.0034
   8 C   :2py   -0.0778  -0.0440  -0.0434  -0.4802   0.0114   0.2714
   9 C   :2pz   -0.0151   0.0009  -0.0072   0.0154   0.3620  -0.0086
  10 O   :1s     0.0006   0.0196  -0.0012   0.0462   0.0000   0.0770
  11 O   :1s     0.0003  -0.0512   0.0035  -0.0539  -0.0002  -0.1840
  12 O   :1s    -0.0113  -0.1607   0.0038  -0.5155   0.0000  -0.2872
  13 O   :2px    0.2349   0.0111  -0.1245   0.0158  -0.0076   0.0528
  14 O   :2py    0.0159  -0.0289  -0.0078  -0.2728   0.0299  -0.7670
  15 O   :2pz    0.0016   0.0009  -0.0009   0.0085   0.9473   0.0246
  16 O   :2px    0.2719   0.0119   0.1332  -0.0410   0.0087  -0.0932
  17 O   :2py    0.0189   0.0820   0.0031   0.6751  -0.0367   1.3393
  18 O   :2pz    0.0016  -0.0026   0.0013  -0.0214  -1.1639  -0.0431
  19 H   :1s     0.5198  -0.8808  -0.7649   0.1827  -0.0005  -0.1064
  20 H   :1s     0.5363   0.4856   1.1440  -0.9849  -0.0007   0.2557
  21 H   :1s    -0.4313  -0.8886   0.8075   0.1851   0.0004  -0.0990
  22 H   :1s    -0.5666   0.3752  -1.1627  -0.9879   0.0002   0.2674

 Printout of CI-coefficients abs greater than 0.05000 for root  1
 *** NOTE: this root is the reference state ***

 Printout of coefficients in interval  3.1623E-01 to  1.0000E+00
 ===============================================================

  Coefficient of CSF no.         1 is     -0.97651782   -9.76517822E-01
  Orbital          1   2
  Spin coupling    2   2

 Printout of coefficients in interval  1.0000E-01 to  3.1623E-01
 ===============================================================

  Coefficient of CSF no.         3 is      0.17513812    1.75138120E-01
  Orbital          2   3
  Spin coupling    2   2

 Printout of coefficients in interval  5.0000E-02 to  1.0000E-01
 ===============================================================

  Coefficient of CSF no.         4 is      0.06288612    6.28861172E-02
  Orbital          1   4
  Spin coupling    2   2

  Coefficient of CSF no.        19 is      0.06964290    6.96429016E-02
  Orbital          1   2   3   4
  Spin coupling    1   1  -1  -1

  Coefficient of CSF no.        20 is      0.07846533    7.84653283E-02
  Orbital          1   2   3   4
  Spin coupling    1  -1   1  -1

 Norm of printed CI vector ..      0.99922202

 Magnitude of CI coefficients
 ============================
 ( Ranges are relative to norm of vector :  1.00E+00 )

  10- 1 to 10- 0         2    0.98426042E+00      0.9842604184
  10- 2 to 10- 1         6    0.15671101E-01      0.9999315192
  10- 3 to 10- 2         4    0.68480719E-04      0.9999999999
  10- 6 to 10- 5         5    0.10657566E-09      1.0000000000
  10- 7 to 10- 6         3    0.23194682E-12      1.0000000000
  Number of coefficients less than 10^-11 times norm is            0



 >>>> Total CPU  time used in SIRIUS :      2.01 seconds
 >>>> Total wall time used in SIRIUS :      2.01 seconds

 
     Date and time (Linux)  : Mon Feb 23 15:15:09 2015
     Host name              : foeroyar                                


                     .---------------------------------------.
                     | End of Wave Function Section (SIRIUS) |
                     `---------------------------------------'



        *****************************************************************
        ******** Output from **PROPE input processing for ABACUS ********
        *****************************************************************



 The following molecular properties will be calculated in this run:
 ------------------------------------------------------------------

 Default print level:        0

      Electronic excitation energies 
      Natural orbital connection is used
      for perturbation dependent basis sets.
      Environment is modeled using the polarizable embedding scheme (PE library).


 Changes of defaults for .EXCITA:
 --------------------------------

 Number of excitation energies:    2
 Print level          :    0
 Integral print level :    0
 Convergence threshold: 1.00E-04
 Maximum iterations   :   60
 Dipole strength

 Center of mass dipole origin  :   -3.067740   -0.312997    0.018175

 Center of mass gauge origin   :   -3.067740   -0.312997    0.018175


                 .------------------------------------------------.
                 | Starting in Static Property Section (ABACUS) - |
                 `------------------------------------------------'


 
     Date and time (Linux)  : Mon Feb 23 15:15:09 2015
     Host name              : foeroyar                                


                  **********************************************
                  *** ABACUS - Excitation energies (.EXCITA) ***
                  **********************************************


 TRACTL_1: Integral transformation abandoned,
           the required MO integrals are already available.
 >>>  Time used in EXCITA     is   0.48 seconds


   ***************************************************************************
   ************************ FINAL RESULTS from ABACUS ************************
   ***************************************************************************


 
     Date and time (Linux)  : Mon Feb 23 15:15:09 2015
     Host name              : foeroyar                                


                             Molecular geometry (au)
                             -----------------------

 C         -3.0015786160           -1.4563174382            0.0550080378
 O         -3.1314330364            0.8240509816           -0.0184248297
 H         -1.1728925345           -2.4468589606            0.1025195320
 H         -4.7395143797           -2.6116033945            0.0761219478





                        Molecular wave function and energy
                        ----------------------------------

     Spatial symmetry   1 ( A   )
     Spin multiplicity  1
     2 * M_S            0
     State number       1
     Total charge       0

     Total energy       -113.3226920502 au (Hartrees)
                         -3083.66731309 eV
                           -297528.6821 kJ/mol
                            -71111.0617 kcal/mol


                   Scalar Breit-Pauli relativistic corrections
                   -------------------------------------------

     Darwin correction:                          0.2036644734 au
     Mass-velocity correction:                  -0.2626525405 au

     Total relativistic correction:             -0.0589880671 au (0.0521%)
     Non-relativistic + relativistic energy:  -113.3816801174 au



      (Note that these corrections are NOT included in the results below.)


                                  Dipole moment
                                  -------------

                 au               Debye          C m (/(10**-30)
              1.132234           2.877853           9.599483


                             Dipole moment components
                             ------------------------

                 au               Debye          C m (/(10**-30)

      x      0.14789065         0.37590051         1.25386913
      y     -1.12204834        -2.85196223        -9.51312201
      z      0.03302366         0.08393778         0.27998628


   Units:   1 a.u. =   2.54175 Debye 
            1 a.u. =   8.47835 (10**-30) C m (SI)




@               Singlet electronic excitation energies
                --------------------------------------

               ========================================
                 Sym.   Mode   Frequency    Frequency
                ex. st.  No.      (au)         (eV)
               ----------------------------------------
                   1      1     0.154768     4.211443
                   1      2     0.358736     9.761693
               ========================================


@               Electric transition dipole moments (au)
                ---------------------------------------

@        Mode    Frequency       Velocity/Frequency              Length
@         No.      (au)          x       y       z         x       y       z
@==============================================================================
@           1     0.154768     0.0013 -0.0024 -0.0622   -0.0008  0.0004 -0.0128
@           2     0.358736    -0.0021  0.0082  0.2811   -0.0007  0.0034  0.1466
@------------------------------------------------------------------------------


@                              Oscillator strengths
                               --------------------

@  Oscillator strengths are dimensionless.

@  Sym.   Mode        Frequency     Oscillator-strength
@ ex. st.  No.           (eV)        velocity   length
@ -------------------------------------------------------
@  1        1         4.211443        0.0004   0.0000
@  1        2         9.761693        0.0189   0.0051


   Interatomic separations (in Angstrom):
   --------------------------------------

            C           O           H           H     
            ------      ------      ------      ------
 C     :    0.000000
 O     :    1.209298    0.000000
 H     :    1.100831    2.018474    0.000000
 H     :    1.104391    2.007988    1.889439    0.000000


  Max    interatomic separation is    2.0185 Angstrom (    3.8144 Bohr)
  between atoms    3 and    2, "H     " and "O     ".

  Min HX interatomic separation is    1.1008 Angstrom (    2.0803 Bohr)

  Min YX interatomic separation is    1.2093 Angstrom (    2.2852 Bohr)


  Bond distances (Angstrom):
  --------------------------

                  atom 1     atom 2       distance
                  ------     ------       --------
  bond distance:  O          C            1.209298
  bond distance:  H          C            1.100831
  bond distance:  H          C            1.104391


  Bond angles (degrees):
  ----------------------

                  atom 1     atom 2     atom 3         angle
                  ------     ------     ------         -----
  bond angle:     O          C          H            121.724
  bond angle:     O          C          H            120.357
  bond angle:     H          C          H            117.919




 CPU time statistics for ABACUS
 ------------------------------




 >>>> Total CPU  time used in ABACUS:   0.50 seconds
 >>>> Total wall time used in ABACUS:   0.50 seconds


                   .-------------------------------------------.
                   | End of Static Property Section (ABACUS) - |
                   `-------------------------------------------'

 >>>> Total CPU  time used in DALTON:   2.61 seconds
 >>>> Total wall time used in DALTON:   2.61 seconds

 
     Date and time (Linux)  : Mon Feb 23 15:15:09 2015
     Host name              : foeroyar                                
