

     ************************************************************************
     *************** Dalton - An Electronic Structure Program ***************
     ************************************************************************

    This is output from DALTON (Release Dalton2013 patch 0)
   ----------------------------------------------------------------------------
    NOTE:
     
    Dalton is an experimental code for the evaluation of molecular
    properties using (MC)SCF, DFT, CI, and CC wave functions.
    The authors accept no responsibility for the performance of
    the code or for the correctness of the results.
     
    The code (in whole or part) is provided under a licence and
    is not to be reproduced for further distribution without
    the written permission of the authors or their representatives.
     
    See the home page "http://daltonprogram.org" for further information.
     
    If results obtained with this code are published,
    the appropriate citations would be both of:
     
       K. Aidas, C. Angeli, K. L. Bak, V. Bakken, R. Bast,
       L. Boman, O. Christiansen, R. Cimiraglia, S. Coriani,
       P. Dahle, E. K. Dalskov, U. Ekstroem, T. Enevoldsen,
       J. J. Eriksen, P. Ettenhuber, B. Fernandez, L. Ferrighi,
       H. Fliegl, L. Frediani, K. Hald, A. Halkier, C. Haettig,
       H. Heiberg, T. Helgaker, A. C. Hennum, H. Hettema,
       E. Hjertenaes, S. Hoest, I.-M. Hoeyvik, M. F. Iozzi,
       B. Jansik, H. J. Aa. Jensen, D. Jonsson, P. Joergensen,
       J. Kauczor, S. Kirpekar, T. Kjaergaard, W. Klopper,
       S. Knecht, R. Kobayashi, H. Koch, J. Kongsted, A. Krapp,
       K. Kristensen, A. Ligabue, O. B. Lutnaes, J. I. Melo,
       K. V. Mikkelsen, R. H. Myhre, C. Neiss, C. B. Nielsen,
       P. Norman, J. Olsen, J. M. H. Olsen, A. Osted,
       M. J. Packer, F. Pawlowski, T. B. Pedersen, P. F. Provasi,
       S. Reine, Z. Rinkevicius, T. A. Ruden, K. Ruud, V. Rybkin,
       P. Salek, C. C. M. Samson, A. Sanchez de Meras, T. Saue,
       S. P. A. Sauer, B. Schimmelpfennig, K. Sneskov,
       A. H. Steindal, K. O. Sylvester-Hvid, P. R. Taylor,
       A. M. Teale, E. I. Tellgren, D. P. Tew, A. J. Thorvaldsen,
       L. Thoegersen, O. Vahtras, M. A. Watson, D. J. D. Wilson,
       M. Ziolkowski and H. Agren.
       The Dalton quantum chemistry program system.
       WIREs Comput. Mol. Sci. 2013. doi: 10.1002/wcms.1172
    
    and
    
       Dalton, a Molecular Electronic Structure Program,
       Release DALTON2013.0 (2013), see http://daltonprogram.org
   ----------------------------------------------------------------------------

    Authors in alphabetical order (major contribution(s) in parenthesis):

  Kestutis Aidas,           Vilnius University,           Lithuania   (QM/MM)
  Celestino Angeli,         University of Ferrara,        Italy       (NEVPT2)
  Keld L. Bak,              UNI-C,                        Denmark     (AOSOPPA, non-adiabatic coupling, magnetic properties)
  Vebjoern Bakken,          University of Oslo,           Norway      (DALTON; geometry optimizer, symmetry detection)
  Radovan Bast,             KTH Stockholm                 Sweden      (DALTON installation and execution frameworks)
  Linus Boman,              NTNU,                         Norway      (Cholesky decomposition and subsystems)
  Ove Christiansen,         Aarhus University,            Denmark     (CC module)
  Renzo Cimiraglia,         University of Ferrara,        Italy       (NEVPT2)
  Sonia Coriani,            University of Trieste,        Italy       (CC module, MCD in RESPONS)
  Paal Dahle,               University of Oslo,           Norway      (Parallelization)
  Erik K. Dalskov,          UNI-C,                        Denmark     (SOPPA)
  Thomas Enevoldsen,        Univ. of Southern Denmark,    Denmark     (SOPPA)
  Janus J. Eriksen,         Aarhus University,            Denmark     (PE-MP2/SOPPA, TDA)
  Berta Fernandez,          U. of Santiago de Compostela, Spain       (doublet spin, ESR in RESPONS)
  Lara Ferrighi,            Aarhus University,            Denmark     (PCM Cubic response)
  Heike Fliegl,             University of Oslo,           Norway      (CCSD(R12))
  Luca Frediani,            UiT The Arctic U. of Norway,  Norway      (PCM)
  Bin Gao,                  UiT The Arctic U. of Norway,  Norway      (Gen1Int library)
  Christof Haettig,         Ruhr-University Bochum,       Germany     (CC module)
  Kasper Hald,              Aarhus University,            Denmark     (CC module)
  Asger Halkier,            Aarhus University,            Denmark     (CC module)
  Hanne Heiberg,            University of Oslo,           Norway      (geometry analysis, selected one-electron integrals)
  Trygve Helgaker,          University of Oslo,           Norway      (DALTON; ABACUS, ERI, DFT modules, London, and much more)
  Alf Christian Hennum,     University of Oslo,           Norway      (Parity violation)
  Hinne Hettema,            University of Auckland,       New Zealand (quadratic response in RESPONS; SIRIUS supersymmetry)
  Eirik Hjertenaes,         NTNU,                         Norway      (Cholesky decomposition)
  Maria Francesca Iozzi,    University of Oslo,           Norway      (RPA)
  Brano Jansik              Technical Univ. of Ostrava    Czech Rep.  (DFT cubic response)
  Hans Joergen Aa. Jensen,  Univ. of Southern Denmark,    Denmark     (DALTON; SIRIUS, RESPONS, ABACUS modules, London, and much more)
  Dan Jonsson,              UiT The Arctic U. of Norway,  Norway      (cubic response in RESPONS module)
  Poul Joergensen,          Aarhus University,            Denmark     (RESPONS, ABACUS, and CC modules)
  Joanna Kauczor,           Linkoeping University,        Sweden      (Complex polarization propagator (CPP) module)
  Sheela Kirpekar,          Univ. of Southern Denmark,    Denmark     (Mass-velocity & Darwin integrals)
  Wim Klopper,              KIT Karlsruhe,                Germany     (R12 code in CC, SIRIUS, and ABACUS modules)
  Stefan Knecht,            ETH Zurich,                   Switzerland (Parallel CI and MCSCF)
  Rika Kobayashi,           Australian National Univ.,    Australia   (DIIS in CC, London in MCSCF)
  Henrik Koch,              NTNU,                         Norway      (CC module, Cholesky decomposition)
  Jacob Kongsted,           Univ. of Southern Denmark,    Denmark     (Polarizable embedding, QM/MM)
  Andrea Ligabue,           University of Modena,         Italy       (CTOCD, AOSOPPA)
  Ola B. Lutnaes,           University of Oslo,           Norway      (DFT Hessian)
  Juan I. Melo,             University of Buenos Aires,   Argentina   (LRESC, Relativistic Effects on NMR Shieldings)
  Kurt V. Mikkelsen,        University of Copenhagen,     Denmark     (MC-SCRF and QM/MM)
  Rolf H. Myhre,            NTNU,                         Norway      (Cholesky, subsystems and ECC2)
  Christian Neiss,          Univ. Erlangen-Nuernberg,     Germany     (CCSD(R12))
  Christian B. Nielsen,     University of Copenhagen,     Denmark     (QM/MM)
  Patrick Norman,           Linkoeping University,        Sweden      (Cubic response and complex response in RESPONS)
  Jeppe Olsen,              Aarhus University,            Denmark     (SIRIUS CI/density modules)
  Jogvan Magnus H. Olsen,   Univ. of Southern Denmark,    Denmark     (Polarizable embedding, PE library, QM/MM)
  Anders Osted,             Copenhagen University,        Denmark     (QM/MM)
  Martin J. Packer,         University of Sheffield,      UK          (SOPPA)
  Filip Pawlowski,          Kazimierz Wielki University   Poland      (CC3)
  Thomas B. Pedersen,       University of Oslo,           Norway      (Cholesky decomposition)
  Patricio F. Provasi,      University of Northeastern,   Argentina   (Analysis of coupling constants in localized orbitals)
  Zilvinas Rinkevicius,     KTH Stockholm,                Sweden      (open-shell DFT, ESR)
  Elias Rudberg,            KTH Stockholm,                Sweden      (DFT grid and basis info)
  Torgeir A. Ruden,         University of Oslo,           Norway      (Numerical derivatives in ABACUS)
  Kenneth Ruud,             UiT The Arctic U. of Norway,  Norway      (DALTON; ABACUS magnetic properties and  much more)
  Pawel Salek,              KTH Stockholm,                Sweden      (DALTON; DFT code)
  Claire C. M. Samson       University of Karlsruhe       Germany     (Boys localization, r12 integrals in ERI)
  Alfredo Sanchez de Meras, University of Valencia,       Spain       (CC module, Cholesky decomposition)
  Trond Saue,               Paul Sabatier University,     France      (direct Fock matrix construction)
  Stephan P. A. Sauer,      University of Copenhagen,     Denmark     (SOPPA(CCSD), SOPPA prop., AOSOPPA, vibrational g-factors)
  Bernd Schimmelpfennig,    Forschungszentrum Karlsruhe,  Germany     (AMFI module)
  Kristian Sneskov,         Aarhus University,            Denmark     (QM/MM, PE-CC)
  Arnfinn H. Steindal,      UiT The Arctic U. of Norway,  Norway      (parallel QM/MM)
  K. O. Sylvester-Hvid,     University of Copenhagen,     Denmark     (MC-SCRF)
  Peter R. Taylor,          VLSCI/Univ. of Melbourne,     Australia   (Symmetry handling ABACUS, integral transformation)
  Andrew M. Teale,          University of Nottingham,     England     (DFT-AC, DFT-D)
  David P. Tew,             University of Bristol,        England     (CCSD(R12))
  Olav Vahtras,             KTH Stockholm,                Sweden      (triplet response, spin-orbit, ESR, TDDFT, open-shell DFT)
  David J. Wilson,          La Trobe University,          Australia   (DFT Hessian and DFT magnetizabilities)
  Hans Agren,               KTH Stockholm,                Sweden      (SIRIUS module, RESPONS, MC-SCRF solvation model)
 --------------------------------------------------------------------------------

     Date and time (Linux)  : Sun Sep  8 21:01:30 2013
     Host name              : lpqlx131.ups-tlse.fr                    

 * Work memory size             :    64000000 =  488.28 megabytes.

 * Directories for basis set searches:
   1) /home/bast/DALTON-2013.0-Source/build/test_dft_stex
   2) /home/bast/DALTON-2013.0-Source/build/basis


Compilation information
-----------------------

 Who compiled             | bast
 Host                     | lpqlx131.ups-tlse.fr
 System                   | Linux-3.8.5-201.fc18.x86_64
 CMake generator          | Unix Makefiles
 Processor                | x86_64
 64-bit integers          | OFF
 MPI                      | OFF
 Fortran compiler         | /usr/bin/gfortran
 Fortran compiler version | GNU Fortran (GCC) 4.7.2 20121109 (Red Hat 4.7.2-8)
 C compiler               | /usr/bin/gcc
 C compiler version       | gcc (GCC) 4.7.2 20121109 (Red Hat 4.7.2-8)
 C++ compiler             | /usr/bin/g++
 C++ compiler version     | g++ (GCC) 4.7.2 20121109 (Red Hat 4.7.2-8)
 Static linking           | OFF
 Last Git revision        | f34203295a86316e27f9e7b44f9b6769c4a046c0
 Configuration time       | 2013-09-08 20:31:27.952056


   Content of the .dal input file
 ----------------------------------

**DALTON                                          
.RUN WAVE FUNCTIONS                               
**WAVE FUNCTION                                   
.DFT                                              
 B3LYP                                            
*SCF INPUT                                        
.DOUBLY OCCUPIED                                  
 8 2 3 0                                          
.SINGLY OCCUPIED                                  
 1 1 0 0                                          
*ORBITAL INPUT                                    
.MOSTART                                          
 NEWORB                                           
.NOSUPS                                           
.FREEZE                                           
 1 1 0 0                                          
 9                                                
 3                                                
**END OF DALTON INPUT                             


   Content of the .mol file
 ----------------------------

BASIS                                                                          
aug-cc-pCVTZ                                                                   
OCS                                                                            
===========                                                                    
Atomtypes=3 Angstrom Generators=2 X Y                                          
Charge=8.0 Atoms=1                                                             
O 0.000 0.000 -1.1239                                                          
Charge=6.0 Atoms=1                                                             
C 0.000 0.000 0.000                                                            
Charge=16.0 Atoms=1                                                            
S 0.0 0.0 1.5640                                                               


       *******************************************************************
       *********** Output from DALTON general input processing ***********
       *******************************************************************

 --------------------------------------------------------------------------------
   Overall default print level:    0
   Print level for DALTON.STAT:    1

    HERMIT 1- and 2-electron integral sections will be executed
    "Old" integral transformation used (limited to max 255 basis functions)
    Wave function sections will be executed (SIRIUS module)
 --------------------------------------------------------------------------------


   ****************************************************************************
   *************** Output of molecule and basis set information ***************
   ****************************************************************************


    The two title cards from your ".mol" input:
    ------------------------------------------------------------------------
 1: OCS                                                                     
 2: ===========                                                             
    ------------------------------------------------------------------------

  Coordinates are entered in Angstrom and converted to atomic units.
          - Conversion factor : 1 bohr = 0.52917721 A

  Atomic type no.    1
  --------------------
  Nuclear charge:   8.00000
  Number of symmetry independent centers:    1
  Number of basis sets to read;    1
  Basis set file used for this atomic type with Z =   8 :
     "/home/bast/DALTON-2013.0-Source/build/basis/aug-cc-pCVTZ"

  Atomic type no.    2
  --------------------
  Nuclear charge:   6.00000
  Number of symmetry independent centers:    1
  Number of basis sets to read;    1
  Basis set file used for this atomic type with Z =   6 :
     "/home/bast/DALTON-2013.0-Source/build/basis/aug-cc-pCVTZ"

  Atomic type no.    3
  --------------------
  Nuclear charge:  16.00000
  Number of symmetry independent centers:    1
  Number of basis sets to read;    1
  Basis set file used for this atomic type with Z =  16 :
     "/home/bast/DALTON-2013.0-Source/build/basis/aug-cc-pCVTZ"


                         SYMGRP: Point group information
                         -------------------------------

Point group: C2v

   * The point group was generated by:

      Reflection in the yz-plane
      Reflection in the xz-plane

   * Group multiplication table

        |  E   C2z  Oxz  Oyz
   -----+--------------------
     E  |  E   C2z  Oxz  Oyz
    C2z | C2z   E   Oyz  Oxz
    Oxz | Oxz  Oyz   E   C2z
    Oyz | Oyz  Oxz  C2z   E 

   * Character table

        |  E   C2z  Oxz  Oyz
   -----+--------------------
    A1  |   1    1    1    1
    B1  |   1   -1    1   -1
    B2  |   1   -1   -1    1
    A2  |   1    1   -1   -1

   * Direct product table

        | A1   B1   B2   A2 
   -----+--------------------
    A1  | A1   B1   B2   A2 
    B1  | B1   A1   A2   B2 
    B2  | B2   A2   A1   B1 
    A2  | A2   B2   B1   A1 


                                 Isotopic Masses
                                 ---------------

                           O          15.994915
                           C          12.000000
                           S          31.972072

                       Total mass:    59.966987 amu
                       Natural abundance:  93.749 %

 Center-of-mass coordinates (a.u.):    0.000000    0.000000    1.009280


  Atoms and basis sets
  --------------------

  Number of atom types :    3
  Total number of atoms:    3

  Basis set used is "aug-cc-pCVTZ" from the basis set library.

  label    atoms   charge   prim   cont     basis
  ----------------------------------------------------------------------
  O           1    8.0000    71    59      [13s8p4d2f|7s6p4d2f]                               
  C           1    6.0000    71    59      [13s8p4d2f|7s6p4d2f]                               
  S           1   16.0000   100    75      [18s12p5d3f|8s7p5d3f]                              
  ----------------------------------------------------------------------
  total:      3   30.0000   242   193
  ----------------------------------------------------------------------
  Spherical harmonic basis used.

  Threshold for neglecting AO integrals:  1.00D-12


  Cartesian Coordinates (a.u.)
  ----------------------------

  Total number of coordinates:    9
  O       :     1  x   0.0000000000    2  y   0.0000000000    3  z  -2.1238631919
  C       :     4  x   0.0000000000    5  y   0.0000000000    6  z   0.0000000000
  S       :     7  x   0.0000000000    8  y   0.0000000000    9  z   2.9555316595


  Symmetry Coordinates
  --------------------

  Number of coordinates in each symmetry:     3    3    3    0

  Symmetry  A1  ( 1)

    1   O     z    3
    2   C     z    6
    3   S     z    9

  Symmetry  B1  ( 2)

    4   O     x    1
    5   C     x    4
    6   S     x    7

  Symmetry  B2  ( 3)

    7   O     y    2
    8   C     y    5
    9   S     y    8


   Interatomic separations (in Angstrom):
   --------------------------------------

            O           C           S     
            ------      ------      ------
 O     :    0.000000
 C     :    1.123900    0.000000
 S     :    2.687900    1.564000    0.000000


  Max    interatomic separation is    2.6879 Angstrom (    5.0794 Bohr)
  between atoms    3 and    1, "S     " and "O     ".

  Min YX interatomic separation is    1.1239 Angstrom (    2.1239 Bohr)


  Bond distances (Angstrom):
  --------------------------

                  atom 1     atom 2       distance
                  ------     ------       --------
  bond distance:  C          O            1.123900
  bond distance:  S          C            1.564000


  Bond angles (degrees):
  ----------------------

                  atom 1     atom 2     atom 3         angle
                  ------     ------     ------         -----
  bond angle:     O          C          S            180.000




 Principal moments of inertia (u*A**2) and principal axes
 --------------------------------------------------------

   IA       0.000000          0.000000    0.000000    1.000000
   IB      81.305184          0.000000    1.000000    0.000000
   IC      81.305184          1.000000    0.000000    0.000000


 Rotational constants
 --------------------

 The molecule is linear.

               B =         6215.83 MHz     (    0.207338 cm-1)


@  Nuclear repulsion energy :   80.281643676153 Hartree


  Symmetry Orbitals
  -----------------

  Number of orbitals in each symmetry:          81   46   46   20


  Symmetry  A1 ( 1)

    1     O        1s         1
    2     O        1s         2
    3     O        1s         3
    4     O        1s         4
    5     O        1s         5
    6     O        1s         6
    7     O        1s         7
    8     O        2pz       10
    9     O        2pz       13
   10     O        2pz       16
   11     O        2pz       19
   12     O        2pz       22
   13     O        2pz       25
   14     O        3d0       28
   15     O        3d2+      30
   16     O        3d0       33
   17     O        3d2+      35
   18     O        3d0       38
   19     O        3d2+      40
   20     O        3d0       43
   21     O        3d2+      45
   22     O        4f0       49
   23     O        4f2+      51
   24     O        4f0       56
   25     O        4f2+      58
   26     C        1s        60
   27     C        1s        61
   28     C        1s        62
   29     C        1s        63
   30     C        1s        64
   31     C        1s        65
   32     C        1s        66
   33     C        2pz       69
   34     C        2pz       72
   35     C        2pz       75
   36     C        2pz       78
   37     C        2pz       81
   38     C        2pz       84
   39     C        3d0       87
   40     C        3d2+      89
   41     C        3d0       92
   42     C        3d2+      94
   43     C        3d0       97
   44     C        3d2+      99
   45     C        3d0      102
   46     C        3d2+     104
   47     C        4f0      108
   48     C        4f2+     110
   49     C        4f0      115
   50     C        4f2+     117
   51     S        1s       119
   52     S        1s       120
   53     S        1s       121
   54     S        1s       122
   55     S        1s       123
   56     S        1s       124
   57     S        1s       125
   58     S        1s       126
   59     S        2pz      129
   60     S        2pz      132
   61     S        2pz      135
   62     S        2pz      138
   63     S        2pz      141
   64     S        2pz      144
   65     S        2pz      147
   66     S        3d0      150
   67     S        3d2+     152
   68     S        3d0      155
   69     S        3d2+     157
   70     S        3d0      160
   71     S        3d2+     162
   72     S        3d0      165
   73     S        3d2+     167
   74     S        3d0      170
   75     S        3d2+     172
   76     S        4f0      176
   77     S        4f2+     178
   78     S        4f0      183
   79     S        4f2+     185
   80     S        4f0      190
   81     S        4f2+     192


  Symmetry  B1 ( 2)

   82     O        2px        8
   83     O        2px       11
   84     O        2px       14
   85     O        2px       17
   86     O        2px       20
   87     O        2px       23
   88     O        3d1+      29
   89     O        3d1+      34
   90     O        3d1+      39
   91     O        3d1+      44
   92     O        4f1+      50
   93     O        4f3+      52
   94     O        4f1+      57
   95     O        4f3+      59
   96     C        2px       67
   97     C        2px       70
   98     C        2px       73
   99     C        2px       76
  100     C        2px       79
  101     C        2px       82
  102     C        3d1+      88
  103     C        3d1+      93
  104     C        3d1+      98
  105     C        3d1+     103
  106     C        4f1+     109
  107     C        4f3+     111
  108     C        4f1+     116
  109     C        4f3+     118
  110     S        2px      127
  111     S        2px      130
  112     S        2px      133
  113     S        2px      136
  114     S        2px      139
  115     S        2px      142
  116     S        2px      145
  117     S        3d1+     151
  118     S        3d1+     156
  119     S        3d1+     161
  120     S        3d1+     166
  121     S        3d1+     171
  122     S        4f1+     177
  123     S        4f3+     179
  124     S        4f1+     184
  125     S        4f3+     186
  126     S        4f1+     191
  127     S        4f3+     193


  Symmetry  B2 ( 3)

  128     O        2py        9
  129     O        2py       12
  130     O        2py       15
  131     O        2py       18
  132     O        2py       21
  133     O        2py       24
  134     O        3d1-      27
  135     O        3d1-      32
  136     O        3d1-      37
  137     O        3d1-      42
  138     O        4f3-      46
  139     O        4f1-      48
  140     O        4f3-      53
  141     O        4f1-      55
  142     C        2py       68
  143     C        2py       71
  144     C        2py       74
  145     C        2py       77
  146     C        2py       80
  147     C        2py       83
  148     C        3d1-      86
  149     C        3d1-      91
  150     C        3d1-      96
  151     C        3d1-     101
  152     C        4f3-     105
  153     C        4f1-     107
  154     C        4f3-     112
  155     C        4f1-     114
  156     S        2py      128
  157     S        2py      131
  158     S        2py      134
  159     S        2py      137
  160     S        2py      140
  161     S        2py      143
  162     S        2py      146
  163     S        3d1-     149
  164     S        3d1-     154
  165     S        3d1-     159
  166     S        3d1-     164
  167     S        3d1-     169
  168     S        4f3-     173
  169     S        4f1-     175
  170     S        4f3-     180
  171     S        4f1-     182
  172     S        4f3-     187
  173     S        4f1-     189


  Symmetry  A2 ( 4)

  174     O        3d2-      26
  175     O        3d2-      31
  176     O        3d2-      36
  177     O        3d2-      41
  178     O        4f2-      47
  179     O        4f2-      54
  180     C        3d2-      85
  181     C        3d2-      90
  182     C        3d2-      95
  183     C        3d2-     100
  184     C        4f2-     106
  185     C        4f2-     113
  186     S        3d2-     148
  187     S        3d2-     153
  188     S        3d2-     158
  189     S        3d2-     163
  190     S        3d2-     168
  191     S        4f2-     174
  192     S        4f2-     181
  193     S        4f2-     188

  Symmetries of electric field:  B1 (2)  B2 (3)  A1 (1)

  Symmetries of magnetic field:  B2 (3)  B1 (2)  A2 (4)


                     .---------------------------------------.
                     | Starting in Integral Section (HERMIT) |
                     `---------------------------------------'



    *************************************************************************
    ****************** Output from HERMIT input processing ******************
    *************************************************************************



     ************************************************************************
     ************************** Output from HERINT **************************
     ************************************************************************


 Threshold for neglecting two-electron integrals:  1.00D-12
 Number of two-electron integrals written:    31358623 ( 17.9% )
 Megabytes written:                            359.075

 >>>  Time used in TWOINT     is  13.46 seconds
 >>>> Total CPU  time used in HERMIT:  13.66 seconds
 >>>> Total wall time used in HERMIT:  13.78 seconds


                        .----------------------------------.
                        | End of Integral Section (HERMIT) |
                        `----------------------------------'



                   .--------------------------------------------.
                   | Starting in Wave Function Section (SIRIUS) |
                   `--------------------------------------------'


 **********************************************************************
 *SIRIUS* a direct, restricted step, second order MCSCF program       *
 **********************************************************************

 
     Date and time (Linux)  : Sun Sep  8 21:01:43 2013
     Host name              : lpqlx131.ups-tlse.fr                    

 Title lines from ".mol" input file:
     OCS                                                                     
     ===========                                                             

 Print level on unit LUPRI =   2 is   0
 Print level on unit LUW4  =   2 is   5

@    Restricted, high spin open shell Kohn-Sham DFT calculation.

 Initial molecular orbitals are obtained according to
 ".MOSTART NEWORB" input option

     Wave function specification
     ============================
@    For the wave function of type :      >>> KS-DFT <<<
@    Number of closed shell electrons          26
@    Number of electrons in active shells       2
@    Total charge of the molecule               2

@    Spin multiplicity and 2 M_S                3         2
     Total number of symmetries                 4
@    Reference state symmetry                   2
 
     This is a DFT calculation of type: B3LYP
 Weighted mixed functional:
               HF exchange:    0.20000
                       VWN:    0.19000
                       LYP:    0.81000
                     Becke:    0.72000
                    Slater:    0.80000

     Orbital specifications
     ======================
     Abelian symmetry species          All |    1    2    3    4
                                       --- |  ---  ---  ---  ---
@    Occupied SCF orbitals              13 |    8    2    3    0
@    Open shell SCF orbitals             2 |    1    1    0    0
     Secondary orbitals                178 |   72   43   43   20
     Total number of orbitals          193 |   81   46   46   20
     Number of basis functions         193 |   81   46   46   20

     Optimization information
     ========================
@    Number of configurations                 1
@    Number of orbital rotations            791
     ------------------------------------------
@    Total number of variables              792

     Maximum number of Fock   iterations      0
     Maximum number of DIIS   iterations     60
     Maximum number of QC-SCF iterations     60
     Threshold for SCF convergence     1.00D-05

@    Number of orbitals frozen with ".FREEZE"  2

     Orbital  Symmetry   No. in   Type
       no.              symmetry
         9         1         9   active   
        84         2         3   active   
 
     This is a DFT calculation of type: B3LYP
 Weighted mixed functional:
               HF exchange:    0.20000
                       VWN:    0.19000
                       LYP:    0.81000
                     Becke:    0.72000
                    Slater:    0.80000


 >>>>> DIIS optimization of Hartree-Fock <<<<<

 C1-DIIS algorithm; max error vectors =   10

 Iter      Total energy        Error norm    Delta(E)  DIIS dim.


                                  Start orbitals
                                  --------------


 Molecular orbitals for symmetry species  1
 ------------------------------------------

    Orbital         1        2        3        4        5        6        7
   1 O   :1s    -0.0002   0.0006   0.0005   0.0015   0.0703   0.0143  -0.0119
   2 O   :1s    -0.0006   0.0007   0.0021   0.0059  -0.7361  -0.1482   0.4932
   3 O   :1s     0.0002  -0.0010  -0.0005  -0.0016  -0.1089  -0.0266   0.0417
   4 O   :1s    -0.0002  -0.0081   0.0015   0.0006   0.1028  -0.0196   0.1632
   5 O   :1s    -0.0001   0.0002   0.0002   0.0006  -0.0030   0.0001   0.0107
   6 O   :1s     0.0000   0.0000   0.0000   0.0001   0.0109   0.0024  -0.0049
   7 O   :1s    -0.0006  -0.0031   0.0051  -0.0005  -0.0025  -0.0185   0.0400
   8 O   :2pz    0.0000  -0.0011   0.0000   0.0001  -0.3642   0.1119  -1.0172
   9 O   :2pz   -0.0002   0.0017   0.0003   0.0005   0.0655  -0.0108   0.1841
  10 O   :2pz    0.0003  -0.0038  -0.0035  -0.0026   0.1049  -0.0327   0.2898
  11 O   :2pz   -0.0000   0.0000  -0.0000  -0.0000  -0.0023   0.0010  -0.0075
  12 O   :2pz    0.0000  -0.0000   0.0000   0.0000  -0.0002   0.0001  -0.0005
  13 O   :2pz   -0.0001  -0.0009   0.0013  -0.0014   0.0051  -0.0053   0.0044
  14 O   :3d0    0.0000  -0.0000  -0.0000  -0.0000  -0.0005   0.0000  -0.0008
  16 O   :3d0   -0.0000  -0.0000   0.0000   0.0001  -0.0099   0.0016  -0.0133
  18 O   :3d0   -0.0000   0.0019  -0.0002  -0.0003  -0.0187   0.0014  -0.0094
  20 O   :3d0    0.0002  -0.0004  -0.0019  -0.0009   0.0012  -0.0018   0.0168
  22 O   :4f0   -0.0000   0.0001   0.0000  -0.0001  -0.0038   0.0002  -0.0033
  24 O   :4f0    0.0000   0.0012  -0.0002   0.0001  -0.0045  -0.0008  -0.0015
  26 C   :1s     0.0001  -0.9986   0.0007  -0.0009   0.0403  -0.0142  -0.0058
  27 C   :1s     0.0002   0.0282   0.0022  -0.0060  -0.3065   0.5150  -0.3521
  28 C   :1s    -0.0002  -0.0239  -0.0002   0.0016  -0.0221   0.0070  -0.0011
  29 C   :1s    -0.0009   0.0168   0.0160  -0.0245   0.0859  -0.0734   0.0468
  30 C   :1s     0.0000   0.0061   0.0002  -0.0006   0.0086   0.0010  -0.0040
  31 C   :1s     0.0000   0.0090   0.0000   0.0000   0.0010   0.0001  -0.0017
  32 C   :1s     0.0001   0.0061   0.0002  -0.0022  -0.0087   0.0425  -0.0123
  33 C   :2pz    0.0001   0.0055  -0.0008  -0.0014   0.3357   0.3335   0.3839
  34 C   :2pz    0.0001   0.0028  -0.0008  -0.0040  -0.0469  -0.0226   0.0230
  35 C   :2pz   -0.0017   0.0039   0.0175  -0.0062  -0.1320  -0.0835  -0.1386
  36 C   :2pz   -0.0000   0.0005   0.0000   0.0000   0.0018   0.0018   0.0013
  37 C   :2pz    0.0000  -0.0000  -0.0000   0.0000   0.0003   0.0002   0.0003
  38 C   :2pz    0.0000   0.0011  -0.0002   0.0006  -0.0038   0.0078  -0.0027
  39 C   :3d0   -0.0000   0.0000  -0.0000  -0.0000  -0.0006   0.0002  -0.0003
  41 C   :3d0    0.0000  -0.0021  -0.0000  -0.0000  -0.0281   0.0094  -0.0203
  43 C   :3d0    0.0002   0.0079  -0.0005  -0.0033  -0.0231   0.0103  -0.0115
  45 C   :3d0    0.0000  -0.0002   0.0000  -0.0031   0.0103   0.0045  -0.0167
  47 C   :4f0   -0.0000   0.0011   0.0001   0.0004   0.0149   0.0088   0.0188
  49 C   :4f0   -0.0002   0.0007   0.0013   0.0029   0.0050   0.0075  -0.0134
  51 S   :1s     0.9994  -0.0001   0.0082  -0.0003  -0.0006  -0.0011  -0.0002
  52 S   :1s     0.0016  -0.0030  -0.9642   0.0005  -0.0080  -0.0268  -0.0029
  53 S   :1s    -0.0026  -0.0090   0.0207  -0.0124  -0.0337   0.7197   0.2336
  54 S   :1s     0.0025   0.0040  -0.0302   0.0023   0.0069   0.0173   0.0101
  55 S   :1s     0.0030  -0.0133  -0.0322   0.0348   0.0242  -0.1346  -0.0154
  56 S   :1s     0.0025  -0.0000  -0.0011  -0.0001  -0.0001  -0.0021  -0.0006
  57 S   :1s    -0.0054  -0.0023  -0.0091  -0.0020  -0.0041   0.0006   0.0027
  58 S   :1s     0.0002  -0.0084  -0.0036   0.0027   0.0218  -0.0514  -0.0055
  59 S   :2pz   -0.0003   0.0046   0.0050   1.0055   0.0025   0.0392   0.0117
  60 S   :2pz    0.0003   0.0173   0.0010  -0.0174   0.0202  -0.1709   0.0083
  61 S   :2pz   -0.0001  -0.0050   0.0000   0.0174  -0.0001  -0.0273  -0.0108
  62 S   :2pz   -0.0009   0.0053   0.0119  -0.0084  -0.0281   0.0729   0.0089
  63 S   :2pz    0.0002   0.0001   0.0003  -0.0076   0.0006   0.0006   0.0006
  64 S   :2pz    0.0002   0.0002   0.0002  -0.0092  -0.0008  -0.0017  -0.0006
  65 S   :2pz   -0.0000   0.0011   0.0006  -0.0004  -0.0039   0.0093   0.0035
  66 S   :3d0    0.0000  -0.0000  -0.0000  -0.0002  -0.0001   0.0003  -0.0000
  68 S   :3d0    0.0000   0.0000  -0.0002  -0.0005   0.0000   0.0058   0.0011
  70 S   :3d0    0.0000  -0.0008  -0.0004  -0.0014  -0.0046   0.0333   0.0014
  72 S   :3d0   -0.0001  -0.0053  -0.0002   0.0060  -0.0016   0.0122  -0.0130
  74 S   :3d0    0.0002  -0.0027  -0.0030   0.0034   0.0065  -0.0071  -0.0069
  76 S   :4f0   -0.0000   0.0000   0.0000   0.0001  -0.0000  -0.0002  -0.0000
  78 S   :4f0    0.0000   0.0005   0.0001   0.0000   0.0016  -0.0100   0.0016
  80 S   :4f0    0.0000   0.0014  -0.0000  -0.0020  -0.0008   0.0055   0.0046

    Orbital         8        9       10       11       12       13       14
   1 O   :1s    -0.0078  -1.0617   0.0110   0.0008  -0.0106   0.0029  -0.0000
   2 O   :1s     0.0107  -0.0425   0.3149  -0.0916  -0.1963   0.0187  -0.0000
   3 O   :1s     0.0128   0.0286   0.0256  -0.0144  -0.0098   0.0043  -0.0000
   4 O   :1s    -0.0302   0.0115   0.1257  -0.3075  -0.0797  -0.7333   0.0000
   5 O   :1s    -0.0024   0.0516   0.0077  -0.0007  -0.0063   0.0007  -0.0000
   6 O   :1s    -0.0007  -0.0044  -0.0013   0.0008   0.0006   0.0004  -0.0000
   7 O   :1s    -0.0194  -0.0007   0.0786  -0.8767   0.4774  -2.4366   0.0000
   8 O   :2pz    0.2093   0.0011   0.3340   0.0384   0.0287   0.3128  -0.0000
   9 O   :2pz   -0.0427  -0.0014  -0.0331  -0.0131  -0.0063  -0.0900   0.0000
  10 O   :2pz   -0.0531   0.0021  -0.0009  -0.1389   0.0641  -0.4690   0.0000
  11 O   :2pz    0.0013  -0.0007   0.0018   0.0001   0.0003   0.0008  -0.0000
  12 O   :2pz    0.0001  -0.0000   0.0001   0.0000   0.0000   0.0001  -0.0000
  13 O   :2pz   -0.0079   0.0001   0.0169  -0.2278   0.2096  -0.7142   0.0000
  14 O   :3d0    0.0002  -0.0001   0.0001  -0.0001   0.0000   0.0001  -0.0000
  15 O   :3d2+   0.0000  -0.0000  -0.0000  -0.0000  -0.0000   0.0000   0.0002
  16 O   :3d0    0.0022  -0.0004   0.0014  -0.0006   0.0003   0.0026  -0.0000
  17 O   :3d2+  -0.0000   0.0000  -0.0000  -0.0000  -0.0000   0.0000   0.0021
  18 O   :3d0    0.0011  -0.0006   0.0045  -0.0060  -0.0048  -0.0362   0.0000
  19 O   :3d2+   0.0000  -0.0000  -0.0000   0.0000  -0.0000   0.0000   0.0173
  20 O   :3d0   -0.0021   0.0013   0.0035  -0.0354   0.0358  -0.0622   0.0000
  21 O   :3d2+   0.0000  -0.0000   0.0000  -0.0000   0.0000   0.0000   0.0047
  22 O   :4f0    0.0007  -0.0003   0.0012   0.0004  -0.0007  -0.0022   0.0000
  23 O   :4f2+  -0.0000   0.0000  -0.0000   0.0000  -0.0000   0.0000   0.0011
  24 O   :4f0    0.0007   0.0002   0.0016  -0.0002   0.0001  -0.0077   0.0000
  25 O   :4f2+   0.0000   0.0000   0.0000  -0.0000   0.0000   0.0000   0.0055
  26 C   :1s     0.0022   0.0007  -0.0207  -0.0217  -0.0062   0.0744  -0.0000
  27 C   :1s    -0.4411   0.0000  -0.5641  -0.4189  -0.0123   0.2358  -0.0000
  28 C   :1s    -0.0023  -0.0009   0.0154  -0.0125   0.0100  -0.0546   0.0000
  29 C   :1s    -0.0020   0.0008  -0.4967   0.5966  -1.3022   0.9050  -0.0000
  30 C   :1s    -0.0031   0.0001  -0.0106  -0.0073  -0.0032   0.0290  -0.0000
  31 C   :1s    -0.0002   0.0001  -0.0011  -0.0024  -0.0002   0.0059  -0.0000
  32 C   :1s     0.0048  -0.0007  -0.6129   1.8635  -2.8499   2.6323  -0.0000
  33 C   :2pz   -0.3962   0.0048  -0.1278  -0.2943  -0.0581   0.0843  -0.0000
  34 C   :2pz    0.0185  -0.0041   0.0611   0.0048  -0.0322  -0.2056   0.0000
  35 C   :2pz    0.0557  -0.0058   0.0474  -0.0922  -0.7226  -0.8269   0.0000
  36 C   :2pz   -0.0015   0.0000   0.0006  -0.0001  -0.0005  -0.0006   0.0000
  37 C   :2pz   -0.0002  -0.0000  -0.0001  -0.0001  -0.0000  -0.0000   0.0000
  38 C   :2pz    0.0075  -0.0003   0.0353   0.2270  -1.3773  -1.1653   0.0000
  39 C   :3d0    0.0001  -0.0000   0.0010  -0.0002  -0.0002   0.0005  -0.0000
  40 C   :3d2+   0.0000  -0.0000  -0.0000  -0.0000   0.0000   0.0000   0.0004
  41 C   :3d0    0.0054   0.0003   0.0443  -0.0120  -0.0056   0.0380  -0.0000
  42 C   :3d2+   0.0000  -0.0000  -0.0000  -0.0000   0.0000   0.0000   0.0213
  43 C   :3d0    0.0084   0.0014   0.0781   0.0429  -0.0709   0.1329  -0.0000
  44 C   :3d2+   0.0000   0.0000  -0.0000   0.0000  -0.0000   0.0000   0.0495
  45 C   :3d0   -0.0079  -0.0001   0.0495   0.0994  -0.1387   0.1961  -0.0000
  46 C   :3d2+   0.0000   0.0000  -0.0000   0.0000   0.0000   0.0000   0.3507
  47 C   :4f0   -0.0112  -0.0005  -0.0007   0.0025  -0.0004  -0.0142   0.0000
  48 C   :4f2+  -0.0000  -0.0000   0.0000  -0.0000  -0.0000   0.0000   0.0059
  49 C   :4f0   -0.0064  -0.0012  -0.0135   0.0055  -0.0098  -0.0184   0.0000
  50 C   :4f2+   0.0000   0.0000  -0.0000   0.0000   0.0000   0.0000   0.0100
  51 S   :1s     0.0003   0.0001   0.0013  -0.0025   0.0005   0.0009  -0.0000
  52 S   :1s     0.0141   0.0007   0.0387  -0.0552   0.0216   0.0182  -0.0000
  53 S   :1s     0.6911   0.0015   0.4862  -0.2136   0.2750   0.1212  -0.0000
  54 S   :1s    -0.0022  -0.0003   0.0032   0.0391  -0.0081  -0.0089   0.0000
  55 S   :1s     0.1087   0.0009   0.1189  -0.1205   1.0048   0.1517  -0.0000
  56 S   :1s    -0.0013   0.0000  -0.0004  -0.0008  -0.0003   0.0001  -0.0000
  57 S   :1s     0.0145   0.0002   0.0190  -0.0346   0.0111   0.0086  -0.0000
  58 S   :1s     0.0059   0.0009   0.0673  -0.3889   2.4697  -0.2984   0.0000
  59 S   :2pz   -0.0467  -0.0001  -0.0021   0.0246  -0.0270  -0.0224   0.0000
  60 S   :2pz    0.5568  -0.0018  -0.6847  -0.1334   0.1142  -0.4070   0.0000
  61 S   :2pz    0.0392  -0.0001  -0.0100  -0.0290   0.0418   0.0116  -0.0000
  62 S   :2pz   -0.1490   0.0001  -0.1690  -0.1543  -0.8690  -0.0003   0.0000
  63 S   :2pz   -0.0005  -0.0001   0.0005   0.0012  -0.0005  -0.0008   0.0000
  64 S   :2pz    0.0053   0.0001  -0.0077  -0.0024   0.0005  -0.0035   0.0000
  65 S   :2pz   -0.0033  -0.0001  -0.1360  -0.0517  -1.0063   1.2704  -0.0000
  66 S   :3d0   -0.0003   0.0000  -0.0007  -0.0012   0.0000   0.0003  -0.0000
  67 S   :3d2+   0.0000   0.0000  -0.0000  -0.0000  -0.0000   0.0000   0.0014
  68 S   :3d0   -0.0076  -0.0000  -0.0138  -0.0222   0.0002   0.0036  -0.0000
  69 S   :3d2+   0.0000   0.0000  -0.0000  -0.0000  -0.0000   0.0000   0.0258
  70 S   :3d0   -0.0415   0.0003  -0.0803  -0.1365   0.0000   0.0276  -0.0000
  71 S   :3d2+   0.0000  -0.0000  -0.0000  -0.0000   0.0000   0.0000   0.1600
  72 S   :3d0   -0.0196   0.0001  -0.1133  -0.1847   0.0808   0.0318  -0.0000
  73 S   :3d2+  -0.0000   0.0000  -0.0000  -0.0000  -0.0000   0.0000   0.1649
  74 S   :3d0    0.0037  -0.0002  -0.0723  -0.1441   0.2314  -0.0212   0.0000
  75 S   :3d2+   0.0000   0.0000  -0.0000  -0.0000   0.0000   0.0000   0.5328
  76 S   :4f0    0.0002  -0.0000   0.0001   0.0002   0.0000  -0.0000   0.0000
  78 S   :4f0    0.0091  -0.0002   0.0060   0.0185  -0.0020  -0.0142   0.0000
  79 S   :4f2+  -0.0000  -0.0000   0.0000  -0.0000   0.0000  -0.0000  -0.0089
  80 S   :4f0   -0.0036   0.0001   0.0017   0.0007  -0.0234   0.0223  -0.0000
  81 S   :4f2+   0.0000   0.0000  -0.0000   0.0000  -0.0000   0.0000   0.0044

    Orbital        15       16       17       18       19       20       21
   1 O   :1s    -0.0213   0.0095  -0.0045   0.0000   0.0208   0.0431  -0.0246
   2 O   :1s    -0.2081   0.2036   0.1011   0.0000   0.1273   0.2975   0.1529
   3 O   :1s     0.0062   0.0148   0.0191  -0.0000   0.0030  -0.0053   0.0799
   4 O   :1s     0.6252  -1.4413   0.4662  -0.0000  -1.7453   0.9285   0.2230
   5 O   :1s    -0.0108   0.0060  -0.0004   0.0000   0.0077   0.0168  -0.0103
   6 O   :1s    -0.0002  -0.0009  -0.0014   0.0000   0.0016   0.0030  -0.0028
   7 O   :1s     3.5056  -5.5555   1.6857  -0.0000  -8.6129  -1.1331   0.8382
   8 O   :2pz   -0.1157   0.1042  -0.0403  -0.0000  -0.4093   0.0256   0.3713
   9 O   :2pz    0.0593  -0.0936   0.0272  -0.0000  -0.0964   0.0229  -0.0524
  10 O   :2pz    0.2597  -0.1943   0.7540  -0.0000  -1.6585  -0.5524  -0.4431
  11 O   :2pz    0.0003  -0.0011   0.0002  -0.0000  -0.0047   0.0003   0.0017
  13 O   :2pz   -0.9896  -1.6640   3.4377   0.0000  -1.5068  -2.9860  -1.1518
  14 O   :3d0    0.0003   0.0001  -0.0002  -0.0000   0.0002  -0.0002  -0.0010
  15 O   :3d2+  -0.0000   0.0000  -0.0000   0.0005  -0.0000   0.0000   0.0000
  16 O   :3d0    0.0061   0.0020  -0.0046   0.0000   0.0092   0.0029  -0.0168
  17 O   :3d2+   0.0000   0.0000   0.0000   0.0062  -0.0000   0.0000   0.0000
  18 O   :3d0    0.0201  -0.0186   0.0023  -0.0000  -0.0996  -0.0895  -0.1103
  19 O   :3d2+  -0.0000   0.0000  -0.0000   0.0400  -0.0000   0.0000   0.0000
  20 O   :3d0    0.0698   0.1770   0.2991  -0.0000  -0.2240  -0.2387  -0.4148
  21 O   :3d2+   0.0000  -0.0000   0.0000   0.0820  -0.0000  -0.0000   0.0000
  22 O   :4f0    0.0019  -0.0032  -0.0028  -0.0000  -0.0079  -0.0055  -0.0031
  23 O   :4f2+  -0.0000   0.0000  -0.0000  -0.0005   0.0000   0.0000   0.0000
  24 O   :4f0   -0.0169   0.0120   0.0272  -0.0000  -0.0223  -0.0570  -0.0838
  25 O   :4f2+   0.0000   0.0000   0.0000   0.0188  -0.0000  -0.0000   0.0000
  26 C   :1s     0.0572  -0.0118  -0.1606   0.0000   0.2541   0.2049   0.3495
  27 C   :1s     0.3919   0.0893  -0.8717   0.0000   1.3936   0.5896   1.2482
  28 C   :1s    -0.0004   0.0086   0.1266  -0.0000  -0.2154  -0.0835  -0.1888
  29 C   :1s    -3.7648  -0.8995  -5.7777   0.0000   6.6011 -10.6080   0.3807
  30 C   :1s     0.0218  -0.0073  -0.0679   0.0000   0.1051   0.0783   0.1395
  31 C   :1s     0.0045   0.0002  -0.0102   0.0000   0.0172   0.0173   0.0266
  32 C   :1s   -11.2664  -0.4052 -11.8096   0.0000   7.4408  -5.8213  -2.1423
  33 C   :2pz   -0.1960   0.2775   0.0448  -0.0000  -0.1657  -0.0948   0.7690
  34 C   :2pz    0.0061  -0.1846   0.0849  -0.0000  -0.6836  -0.5719  -0.3099
  35 C   :2pz   -1.8435  -3.9556  -1.7310   0.0000  -1.7179  -5.1300  -2.6641
  36 C   :2pz   -0.0004  -0.0021  -0.0007   0.0000  -0.0025  -0.0008  -0.0017
  37 C   :2pz   -0.0000   0.0001   0.0000  -0.0000  -0.0001  -0.0000   0.0001
  38 C   :2pz   -0.8983   0.0080  -6.1900  -0.0000  -1.3042   1.0474  -0.2762
  39 C   :3d0   -0.0004   0.0004   0.0001  -0.0000  -0.0008   0.0000   0.0007
  40 C   :3d2+  -0.0000   0.0000  -0.0000   0.0003  -0.0000   0.0000   0.0000
  41 C   :3d0   -0.0142   0.0285   0.0012  -0.0000  -0.0097   0.0406   0.0707
  42 C   :3d2+  -0.0000   0.0000  -0.0000   0.0268  -0.0000   0.0000   0.0000
  43 C   :3d0   -0.3632   0.1662  -0.1748   0.0000   0.2144  -0.4800  -0.2912
  44 C   :3d2+   0.0000   0.0000   0.0000  -0.0053   0.0000   0.0000   0.0000
  45 C   :3d0   -1.5079   0.7436   0.2874   0.0000  -0.2740  -2.8253  -2.9639
  46 C   :3d2+  -0.0000   0.0000  -0.0000   1.1850  -0.0000   0.0000   0.0000
  47 C   :4f0    0.0009  -0.0090   0.0002  -0.0000  -0.0415  -0.0292  -0.0319
  48 C   :4f2+  -0.0000  -0.0000  -0.0000  -0.0085   0.0000  -0.0000  -0.0000
  49 C   :4f0   -0.1013  -0.1674  -0.0440   0.0000   0.0433   0.1178  -0.3592
  50 C   :4f2+   0.0000   0.0000   0.0000   0.0459  -0.0000  -0.0000   0.0000
  51 S   :1s    -0.0018  -0.0007  -0.0042  -0.0000  -0.0030  -0.0231   0.0246
  52 S   :1s    -0.0256  -0.0357  -0.0719  -0.0000  -0.0728  -0.5185   0.5695
  53 S   :1s    -0.2915  -0.2197  -0.3553  -0.0000  -0.2303  -1.3593   1.6220
  54 S   :1s    -0.0594   0.0276  -0.0097  -0.0000   0.0375   0.3329  -0.5111
  55 S   :1s     3.3152   1.2689   0.9608  -0.0000   1.1096  10.4250   3.3800
  56 S   :1s     0.0001  -0.0002  -0.0009   0.0000  -0.0011  -0.0090   0.0093
  57 S   :1s     0.0019  -0.0276  -0.0296   0.0000  -0.0493  -0.3552   0.3980
  58 S   :1s     9.1144   5.0769  14.0560  -0.0000  -4.5877   7.2149  -1.1403
  59 S   :2pz   -0.1972  -0.0225  -0.0712   0.0000   0.0274  -0.2493  -0.4504
  60 S   :2pz   -0.7286  -0.0872  -0.5034   0.0000   0.4901  -1.0059  -1.5821
  61 S   :2pz    0.2266   0.0091   0.0692  -0.0000   0.0062   0.3198   0.4940
  62 S   :2pz   -2.1348  -2.2711  -2.8698   0.0000   0.5609  -7.1750   1.8350
  63 S   :2pz   -0.0039  -0.0021  -0.0014   0.0000   0.0003  -0.0030  -0.0125
  64 S   :2pz   -0.0100   0.0024  -0.0058   0.0000   0.0049  -0.0179  -0.0144
  65 S   :2pz   -1.9041  -2.5284  -1.4893   0.0000   2.1375  -1.8651   1.0406
  66 S   :3d0   -0.0005   0.0009  -0.0004  -0.0000  -0.0004   0.0003   0.0021
  67 S   :3d2+   0.0000  -0.0000   0.0000  -0.0010   0.0000  -0.0000   0.0000
  68 S   :3d0   -0.0123   0.0159  -0.0041  -0.0000  -0.0102   0.0022   0.0308
  69 S   :3d2+   0.0000   0.0000   0.0000  -0.0181   0.0000  -0.0000   0.0000
  70 S   :3d0   -0.0659   0.0980  -0.0377  -0.0000  -0.0568   0.0229   0.2373
  71 S   :3d2+   0.0000   0.0000   0.0000  -0.1121   0.0000  -0.0000   0.0000
  72 S   :3d0    0.1469   0.1758   0.1935  -0.0000  -0.0354   0.5137   0.5113
  73 S   :3d2+   0.0000   0.0000  -0.0000  -0.1194   0.0000  -0.0000   0.0000
  74 S   :3d0    0.0497   1.0110   0.9263  -0.0000  -1.0551   2.9020  -2.1616
  75 S   :3d2+   0.0000  -0.0000   0.0000  -0.9244   0.0000   0.0000  -0.0000
  76 S   :4f0    0.0000  -0.0001   0.0001   0.0000   0.0000   0.0003  -0.0003
  77 S   :4f2+   0.0000  -0.0000   0.0000  -0.0001   0.0000   0.0000  -0.0000
  78 S   :4f0   -0.0160  -0.0133  -0.0009   0.0000  -0.0345  -0.0117  -0.0870
  79 S   :4f2+   0.0000  -0.0000   0.0000  -0.0244  -0.0000   0.0000  -0.0000
  80 S   :4f0   -0.0225  -0.0562  -0.0947   0.0000   0.0925  -0.1385   0.2587
  81 S   :4f2+  -0.0000   0.0000  -0.0000   0.0572   0.0000  -0.0000  -0.0000

    Orbital        22       23       24       25       26       27       28
   1 O   :1s     0.0580  -0.0000  -0.0407   0.0000   0.1824   0.0000   0.2024
   2 O   :1s     0.4572  -0.0000  -0.1819   0.0000   0.6958   0.0000   1.0377
   3 O   :1s    -0.0036   0.0000   0.0368  -0.0000  -0.1661  -0.0000  -0.2065
   4 O   :1s     4.5164  -0.0000   2.1119  -0.0000  -3.8121  -0.0000   5.6328
   5 O   :1s     0.0233  -0.0000  -0.0171   0.0000   0.0752   0.0000   0.0902
   6 O   :1s     0.0034  -0.0000  -0.0026   0.0000   0.0131   0.0000   0.0103
   7 O   :1s     7.5064  -0.0000   6.7595  -0.0000  -6.4234  -0.0000   8.5226
   8 O   :2pz    0.1323   0.0000   0.0715  -0.0000   0.5234   0.0000  -0.2233
   9 O   :2pz    0.1078  -0.0000   0.0767   0.0000  -0.3319  -0.0000   0.4409
  10 O   :2pz   -0.5635   0.0000   2.5379  -0.0000  -3.5302  -0.0000   3.0549
  11 O   :2pz    0.0031  -0.0000   0.0023  -0.0000  -0.0024  -0.0000   0.0044
  12 O   :2pz   -0.0000   0.0000  -0.0000  -0.0000   0.0001   0.0000  -0.0001
  13 O   :2pz    1.5145  -0.0000   3.6378  -0.0000   0.0442  -0.0000   0.4469
  14 O   :3d0    0.0005  -0.0000   0.0007  -0.0000  -0.0010  -0.0000  -0.0009
  15 O   :3d2+  -0.0000  -0.0001   0.0000   0.0007  -0.0000   0.0005  -0.0000
  16 O   :3d0    0.0136  -0.0000   0.0112  -0.0000  -0.0085  -0.0000  -0.0265
  17 O   :3d2+  -0.0000  -0.0038   0.0000   0.0323  -0.0000   0.0195  -0.0000
  18 O   :3d0    0.0048  -0.0000   0.0587  -0.0000  -0.2977  -0.0000   0.1871
  19 O   :3d2+  -0.0000  -0.0040  -0.0000  -0.0179  -0.0000  -0.0099  -0.0000
  20 O   :3d0   -0.5156   0.0000   1.2124  -0.0000  -1.2687  -0.0000  -0.9705
  21 O   :3d2+  -0.0000  -0.1632   0.0000   1.4339  -0.0000   0.1937  -0.0000
  22 O   :4f0    0.0007   0.0000  -0.0075   0.0000  -0.0196   0.0000   0.0243
  23 O   :4f2+   0.0000   0.0021  -0.0000  -0.0168  -0.0000   0.0112  -0.0000
  24 O   :4f0   -0.0116   0.0000   0.0732  -0.0000  -0.0525  -0.0000  -0.0665
  25 O   :4f2+  -0.0000  -0.0159   0.0000   0.1156  -0.0000  -0.0469   0.0000
  26 C   :1s     0.1337  -0.0000  -0.3159   0.0000   0.2589   0.0000  -0.0616
  27 C   :1s     0.6449  -0.0000  -1.1240   0.0000   0.7471   0.0000  -0.0578
  28 C   :1s    -0.0616   0.0000   0.3793  -0.0000  -0.2247  -0.0000   0.2669
  29 C   :1s     5.8306  -0.0000 -22.1527   0.0000   9.4650   0.0000 -16.2728
  30 C   :1s     0.0530  -0.0000  -0.1455   0.0000   0.1020   0.0000  -0.0330
  31 C   :1s     0.0098  -0.0000  -0.0166   0.0000   0.0221   0.0000  -0.0028
  32 C   :1s     6.5751  -0.0000 -17.7030   0.0000   5.7536   0.0000  -5.3530
  33 C   :2pz   -0.0617   0.0000   0.0526  -0.0000   0.4255   0.0000   0.4941
  34 C   :2pz   -0.0964   0.0000   0.1017   0.0000  -1.8543  -0.0000   0.8087
  35 C   :2pz   15.0568  -0.0000  -6.4290   0.0000   3.1582   0.0000   5.0389
  36 C   :2pz    0.0050  -0.0000  -0.0038   0.0000  -0.0044   0.0000   0.0067
  37 C   :2pz   -0.0001   0.0000   0.0000  -0.0000  -0.0001  -0.0000   0.0002
  38 C   :2pz    1.8805  -0.0000  -5.0099   0.0000  -0.4512   0.0000   1.2786
  39 C   :3d0    0.0004   0.0000   0.0002  -0.0000  -0.0001  -0.0000  -0.0004
  40 C   :3d2+  -0.0000  -0.0005   0.0000   0.0001  -0.0000   0.0015  -0.0000
  41 C   :3d0    0.0194   0.0000   0.0212  -0.0000   0.0516   0.0000  -0.0664
  42 C   :3d2+  -0.0000  -0.0094   0.0000   0.0060  -0.0000   0.0327  -0.0000
  43 C   :3d0   -0.0054  -0.0000  -0.9958   0.0000   0.6366  -0.0000  -1.3298
  44 C   :3d2+  -0.0000  -0.1597   0.0000  -0.0765  -0.0000   0.6495  -0.0000
  45 C   :3d0   -0.3171  -0.0000   0.0472  -0.0000   3.5242   0.0000   0.2872
  46 C   :3d2+   0.0000  -0.0126  -0.0000  -0.8468   0.0000  -1.3113   0.0000
  47 C   :4f0   -0.0471   0.0000  -0.0286   0.0000  -0.1086  -0.0000   0.0966
  48 C   :4f2+   0.0000   0.0081  -0.0000  -0.0261  -0.0000   0.0053   0.0000
  49 C   :4f0    0.8344  -0.0000  -0.1157   0.0000   0.7626   0.0000   0.3391
  50 C   :4f2+  -0.0000  -0.1235   0.0000   0.3836   0.0000  -0.2722   0.0000
  51 S   :1s    -0.0169   0.0000   0.0003  -0.0000  -0.0418  -0.0000  -0.0319
  52 S   :1s    -0.3681   0.0000   0.1110  -0.0000  -0.9385  -0.0000  -0.6933
  53 S   :1s    -1.3967   0.0000   0.6155  -0.0000  -2.9804  -0.0000  -2.2456
  54 S   :1s     0.1915  -0.0000  -0.2549   0.0000   0.5946   0.0000   0.4111
  55 S   :1s    -8.7270   0.0000   7.3233  -0.0000  -4.5357   0.0000   2.7841
  56 S   :1s    -0.0052   0.0000   0.0002  -0.0000  -0.0147  -0.0000  -0.0108
  57 S   :1s    -0.2189   0.0000   0.1098  -0.0000  -0.6081  -0.0000  -0.4363
  58 S   :1s   -12.7731   0.0000  20.9754  -0.0000  -1.8653  -0.0000   4.7039
  59 S   :2pz    0.3551  -0.0000  -0.2764   0.0000   0.6178   0.0000   0.0735
  60 S   :2pz    1.3777  -0.0000  -0.5729   0.0000   2.6173   0.0000   0.7609
  61 S   :2pz   -0.3453   0.0000   0.3622  -0.0000  -0.6113  -0.0000  -0.0035
  62 S   :2pz    8.1802  -0.0000 -11.7470   0.0000  -0.7691  -0.0000  -5.4298
  63 S   :2pz    0.0104  -0.0000  -0.0082   0.0000   0.0127   0.0000   0.0039
  64 S   :2pz    0.0107  -0.0000  -0.0058   0.0000   0.0312   0.0000   0.0019
  65 S   :2pz    2.2638  -0.0000  -2.3104   0.0000   0.3492   0.0000  -1.4613
  66 S   :3d0    0.0005   0.0000   0.0006  -0.0000   0.0006  -0.0000  -0.0014
  67 S   :3d2+  -0.0000  -0.0018   0.0000   0.0002   0.0000  -0.0010   0.0000
  68 S   :3d0    0.0115   0.0000   0.0178  -0.0000   0.0168  -0.0000  -0.0233
  69 S   :3d2+  -0.0000  -0.0574  -0.0000  -0.0022   0.0000  -0.0215   0.0000
  70 S   :3d0    0.0537   0.0000   0.0715  -0.0000   0.0560  -0.0000  -0.1626
  71 S   :3d2+  -0.0000  -0.2535   0.0000   0.0118   0.0000  -0.1199   0.0000
  72 S   :3d0   -0.1709   0.0000   1.3005  -0.0000   0.2894   0.0000   0.1480
  73 S   :3d2+  -0.0000  -0.9073  -0.0000  -0.2146   0.0000  -0.2249   0.0000
  74 S   :3d0   -1.8421   0.0000   2.4986  -0.0000   0.4223   0.0000   2.6259
  75 S   :3d2+   0.0000   1.0675   0.0000   0.4214  -0.0000   0.9029  -0.0000
  76 S   :4f0    0.0001  -0.0000  -0.0001   0.0000   0.0003   0.0000  -0.0004
  77 S   :4f2+  -0.0000   0.0002   0.0000   0.0003   0.0000  -0.0005   0.0000
  78 S   :4f0    0.0050  -0.0000  -0.0813   0.0000  -0.0527  -0.0000   0.0038
  79 S   :4f2+  -0.0000   0.0016   0.0000  -0.0098  -0.0000   0.0380   0.0000
  80 S   :4f0    0.0779  -0.0000  -0.2722   0.0000   0.1601  -0.0000  -0.5728
  81 S   :4f2+   0.0000   0.0343   0.0000   0.5113   0.0000  -0.8528   0.0000

    Orbital        29       30       31       32       33       34       35
   1 O   :1s    -0.0286  -0.0916   0.0000  -0.2788  -0.0971  -0.0359  -0.0000
   2 O   :1s    -0.0659  -0.0785   0.0000  -0.8636  -0.5821  -0.1554  -0.0000
   3 O   :1s     0.0722   0.0970  -0.0000   0.2409   0.0341   0.0669   0.0000
   4 O   :1s    -2.2870  -0.6737   0.0000  -4.9150   8.1823  -0.6279   0.0000
   5 O   :1s    -0.0162  -0.0316   0.0000  -0.1060  -0.0394  -0.0198  -0.0000
   6 O   :1s    -0.0003  -0.0110   0.0000  -0.0256  -0.0055  -0.0003  -0.0000
   7 O   :1s    -5.5262   3.2563   0.0000  -4.1081   6.0041  -1.9915   0.0000
   8 O   :2pz    0.6730   0.1853  -0.0000   0.0288  -0.1442   0.3563  -0.0000
   9 O   :2pz   -0.2154  -0.0882  -0.0000   0.0217   0.4481   0.0200  -0.0000
  10 O   :2pz   -2.0365   1.9947  -0.0000   7.3663   4.2952  -3.8222   0.0000
  11 O   :2pz    0.0012   0.0006  -0.0000   0.0014   0.0090   0.0020  -0.0000
  12 O   :2pz    0.0001   0.0001  -0.0000   0.0000  -0.0001  -0.0000   0.0000
  13 O   :2pz   -1.0405   1.9818  -0.0000   0.0010   2.0671  -1.1732   0.0000
  14 O   :3d0   -0.0008  -0.0006   0.0000   0.0005  -0.0015  -0.0002  -0.0000
  15 O   :3d2+   0.0000  -0.0000   0.0003   0.0000  -0.0000   0.0000   0.0016
  16 O   :3d0    0.0063  -0.0253   0.0000  -0.0148  -0.0267   0.0065  -0.0000
  17 O   :3d2+   0.0000   0.0000  -0.0060  -0.0000  -0.0000   0.0000   0.0225
  18 O   :3d0   -0.2453   0.1925  -0.0000   0.4400   0.0734  -0.1452  -0.0000
  19 O   :3d2+   0.0000  -0.0000   0.0540   0.0000   0.0000   0.0000   0.1329
  20 O   :3d0    0.5556   1.1576  -0.0000   4.4438   1.7978  -1.4837   0.0000
  21 O   :3d2+   0.0000  -0.0000  -1.0674  -0.0000   0.0000  -0.0000  -1.3140
  22 O   :4f0   -0.0215   0.0068  -0.0000   0.0147  -0.0175   0.0022  -0.0000
  23 O   :4f2+   0.0000   0.0000   0.0140  -0.0000  -0.0000   0.0000   0.0380
  24 O   :4f0    0.0319   0.2127  -0.0000   0.2821   0.1997  -0.1479   0.0000
  25 O   :4f2+  -0.0000  -0.0000  -0.0424   0.0000   0.0000  -0.0000  -0.1934
  26 C   :1s    -0.0072  -1.4205   0.0000  -1.3062  -0.7889   1.6713  -0.0000
  27 C   :1s     0.0043  -6.7769   0.0000  -5.8682  -3.6030   7.7887  -0.0000
  28 C   :1s    -0.0807   0.6533  -0.0000   0.7371   0.4766  -1.1650   0.0000
  29 C   :1s    -3.9536  23.7227  -0.0000 -13.6695  -3.6069  15.1302  -0.0000
  30 C   :1s    -0.0037  -0.5538   0.0000  -0.5164  -0.3122   0.6884  -0.0000
  31 C   :1s     0.0000  -0.1082   0.0000  -0.0991  -0.0595   0.1130  -0.0000
  32 C   :1s    -0.4758   4.4064  -0.0000  -5.9934  -0.8973   6.3445  -0.0000
  33 C   :2pz    1.0288   0.4230  -0.0000   0.2191   0.4385   0.5505   0.0000
  34 C   :2pz   -0.9337   1.7325  -0.0000   3.8485   2.6482  -0.1280   0.0000
  35 C   :2pz   -7.3094  11.7721   0.0000 -27.0109   5.9247   5.7314  -0.0000
  36 C   :2pz   -0.0020   0.0020  -0.0000  -0.0009   0.0125   0.0046  -0.0000
  37 C   :2pz   -0.0002   0.0001  -0.0000   0.0002  -0.0002  -0.0002   0.0000
  38 C   :2pz   -0.5135   0.4728   0.0000  -1.7435  -0.5880   1.0876  -0.0000
  39 C   :3d0    0.0002   0.0001  -0.0000   0.0001  -0.0002  -0.0006  -0.0000
  40 C   :3d2+  -0.0000   0.0000   0.0018   0.0000   0.0000  -0.0000  -0.0005
  41 C   :3d0    0.0464  -0.1185   0.0000  -0.1067  -0.0902   0.0213   0.0000
  42 C   :3d2+  -0.0000   0.0000   0.0038  -0.0000   0.0000   0.0000  -0.0071
  43 C   :3d0    0.6258   1.8090  -0.0000   0.1045  -0.2822   0.0667  -0.0000
  44 C   :3d2+   0.0000   0.0000   1.2660   0.0000   0.0000  -0.0000  -0.1837
  45 C   :3d0   -0.6874   3.5123  -0.0000  -0.2362   0.3587  -1.9646   0.0000
  46 C   :3d2+   0.0000  -0.0000   0.5306   0.0000   0.0000  -0.0000  -0.0394
  47 C   :4f0   -0.0554   0.0775  -0.0000   0.1391   0.0472  -0.0438  -0.0000
  48 C   :4f2+  -0.0000   0.0000   0.0074  -0.0000  -0.0000   0.0000   0.0794
  49 C   :4f0    0.2005  -0.1391   0.0000  -2.6552   1.6007  -0.3773  -0.0000
  50 C   :4f2+   0.0000  -0.0000  -0.2819   0.0000   0.0000  -0.0000  -2.1682
  51 S   :1s    -0.0572   0.0607  -0.0000   0.0224  -0.0354   0.1018  -0.0000
  52 S   :1s    -1.3227   1.3114  -0.0000   0.3023  -0.7905   2.2244  -0.0000
  53 S   :1s    -4.2087   4.1105  -0.0000   0.4133  -2.2110   6.6659  -0.0000
  54 S   :1s     0.9154  -0.5633   0.0000   0.0268   0.6846  -1.5102  -0.0000
  55 S   :1s    10.6736 -24.5047   0.0000  21.1132  -2.5503 -14.2069   0.0000
  56 S   :1s    -0.0203   0.0212  -0.0000   0.0080  -0.0132   0.0362  -0.0000
  57 S   :1s    -0.8769   0.8155  -0.0000   0.1433  -0.5456   1.4457  -0.0000
  58 S   :1s     3.6754  -6.1127   0.0000   9.6452  -1.0489 -10.5590   0.0000
  59 S   :2pz    0.1257   1.2054  -0.0000  -0.8207   0.5763  -0.2722  -0.0000
  60 S   :2pz    0.7427   4.9454  -0.0000  -2.9333   2.0158  -0.5589  -0.0000
  61 S   :2pz   -0.0433  -1.3746   0.0000   0.7169  -0.6340   0.3429   0.0000
  62 S   :2pz   -6.4789   9.8205  -0.0000  -9.4165   1.2659  12.9320  -0.0000
  63 S   :2pz    0.0063   0.0238  -0.0000  -0.0285   0.0174  -0.0107  -0.0000
  64 S   :2pz   -0.0005   0.0659  -0.0000  -0.0116   0.0159   0.0006  -0.0000
  65 S   :2pz   -0.6040   0.4843  -0.0000  -1.0737   0.5640   1.7487  -0.0000
  66 S   :3d0   -0.0010  -0.0010   0.0000  -0.0003  -0.0012  -0.0030   0.0000
  67 S   :3d2+   0.0000  -0.0000  -0.0005   0.0000  -0.0000  -0.0000   0.0021
  68 S   :3d0   -0.0216  -0.0047  -0.0000  -0.0155  -0.0082  -0.0794   0.0000
  69 S   :3d2+   0.0000  -0.0000  -0.0093   0.0000  -0.0000  -0.0000   0.0417
  70 S   :3d0   -0.1381  -0.0875   0.0000  -0.0109  -0.1200  -0.3876   0.0000
  71 S   :3d2+   0.0000  -0.0000  -0.0633   0.0000  -0.0000  -0.0000   0.2594
  72 S   :3d0   -0.1637  -1.7003   0.0000  -0.6093  -0.6417  -1.3474   0.0000
  73 S   :3d2+  -0.0000   0.0000   0.0025  -0.0000   0.0000   0.0000   0.7171
  74 S   :3d0    2.3286  -2.1510   0.0000   0.7998  -0.7891  -4.1691   0.0000
  75 S   :3d2+  -0.0000  -0.0000  -0.4883  -0.0000  -0.0000   0.0000   0.3315
  76 S   :4f0   -0.0008   0.0000  -0.0000   0.0004  -0.0002  -0.0000   0.0000
  77 S   :4f2+  -0.0000  -0.0000   0.0004   0.0000   0.0000  -0.0000   0.0006
  78 S   :4f0   -0.0430   0.2109  -0.0000   0.0700  -0.0359  -0.1032  -0.0000
  79 S   :4f2+  -0.0000  -0.0000  -0.0612  -0.0000   0.0000  -0.0000   0.1119
  80 S   :4f0   -0.8138  -0.1125  -0.0000   1.4537   1.0023   1.4667  -0.0000
  81 S   :4f2+   0.0000   0.0000   0.9807   0.0000   0.0000  -0.0000  -1.1148

    Orbital        36       37       38       39       40       41       42
   1 O   :1s    -0.2383  -0.0000   1.0474  -0.0000  -0.8371  -0.0000  -0.1805
   2 O   :1s    -1.0432  -0.0000   4.7762  -0.0000  -3.6394  -0.0000  -0.7700
   3 O   :1s     0.2375   0.0000  -0.8168   0.0000   0.8320   0.0000   0.1192
   4 O   :1s     7.9931  -0.0000 -10.6812  -0.0000  -8.7934  -0.0000   1.0993
   5 O   :1s    -0.1023  -0.0000   0.4277  -0.0000  -0.3497  -0.0000  -0.0696
   6 O   :1s    -0.0144  -0.0000   0.0712  -0.0000  -0.0560  -0.0000  -0.0146
   7 O   :1s     5.8706  -0.0000  -3.8092  -0.0000  -4.7407  -0.0000  -0.7777
   8 O   :2pz    0.2543  -0.0000  -0.0399  -0.0000  -0.5419  -0.0000  -0.0721
   9 O   :2pz    0.2968  -0.0000  -0.7320  -0.0000  -1.4378  -0.0000   0.3275
  10 O   :2pz    3.9696  -0.0000  -6.4507  -0.0000  -2.0403  -0.0000   4.3344
  11 O   :2pz    0.0068  -0.0000  -0.0146  -0.0000  -0.0147  -0.0000   0.0060
  12 O   :2pz   -0.0001   0.0000   0.0002   0.0000   0.0001   0.0000  -0.0001
  13 O   :2pz    1.2762  -0.0000   0.3821   0.0000   0.3513  -0.0000   0.3928
  14 O   :3d0   -0.0017   0.0000   0.0006  -0.0000  -0.0040  -0.0000  -0.0022
  15 O   :3d2+  -0.0000  -0.0008  -0.0000   0.0079  -0.0000  -0.0009  -0.0000
  16 O   :3d0   -0.0195   0.0000   0.0284  -0.0000  -0.0371  -0.0000  -0.0297
  17 O   :3d2+  -0.0000  -0.0078   0.0000   0.0289  -0.0000  -0.0006  -0.0000
  18 O   :3d0   -0.1901  -0.0000  -0.5107  -0.0000  -1.1292  -0.0000  -0.1032
  19 O   :3d2+  -0.0000  -0.0901  -0.0000   1.2284  -0.0000  -0.1577  -0.0000
  20 O   :3d0    0.8380  -0.0000  -2.0571   0.0000   1.2207   0.0000   2.6814
  21 O   :3d2+   0.0000   0.3918  -0.0000  -0.7517  -0.0000   0.1813   0.0000
  22 O   :4f0   -0.0109  -0.0000  -0.0498  -0.0000  -0.0802  -0.0000  -0.0540
  23 O   :4f2+  -0.0000  -0.0087   0.0000   0.0474   0.0000   0.0258  -0.0000
  24 O   :4f0   -0.0836   0.0000  -0.1438   0.0000   0.4591   0.0000   1.0287
  25 O   :4f2+   0.0000   0.0740  -0.0000  -0.3553  -0.0000  -0.4241   0.0000
  26 C   :1s    -0.9619   0.0000   0.8329   0.0000  -0.0887   0.0000  -0.8128
  27 C   :1s    -4.8016   0.0000   3.8794   0.0000   0.0462   0.0000  -3.6303
  28 C   :1s     0.9749  -0.0000  -0.3098  -0.0000  -0.5248  -0.0000   0.1950
  29 C   :1s   -30.6393   0.0000   4.7760   0.0000  15.4922   0.0000  -2.7397
  30 C   :1s    -0.4104   0.0000   0.3000   0.0000  -0.0319   0.0000  -0.3095
  31 C   :1s    -0.0561   0.0000   0.0742   0.0000  -0.0123   0.0000  -0.0664
  32 C   :1s   -11.3688   0.0000   1.0841  -0.0000   1.8850   0.0000  -1.1986
  33 C   :2pz    0.3034  -0.0000   0.6681   0.0000   0.2658   0.0000  -0.6323
  34 C   :2pz   -1.4995   0.0000  -5.4392  -0.0000  -3.5926  -0.0000   3.0280
  35 C   :2pz   -8.7870   0.0000   2.7864  -0.0000  -2.2408   0.0000  -8.6403
  36 C   :2pz   -0.0121   0.0000  -0.0172  -0.0000  -0.0249  -0.0000  -0.0030
  37 C   :2pz   -0.0000  -0.0000  -0.0005  -0.0000  -0.0004  -0.0000   0.0003
  38 C   :2pz   -2.0990   0.0000  -0.9772  -0.0000  -0.8951   0.0000  -0.7585
  39 C   :3d0   -0.0016   0.0000   0.0002  -0.0000  -0.0009   0.0000  -0.0002
  40 C   :3d2+   0.0000   0.0005  -0.0000   0.0004  -0.0000  -0.0003   0.0000
  41 C   :3d0   -0.0101   0.0000   0.1599   0.0000  -0.0263   0.0000  -0.0124
  42 C   :3d2+   0.0000   0.0245  -0.0000   0.0617  -0.0000  -0.0678  -0.0000
  43 C   :3d0   -4.1114   0.0000   0.3540   0.0000   5.0358   0.0000  -0.8663
  44 C   :3d2+   0.0000   0.2281   0.0000   0.1614   0.0000   0.4200  -0.0000
  45 C   :3d0   -2.2660   0.0000   2.7718   0.0000   2.0966   0.0000  -0.3730
  46 C   :3d2+   0.0000  -0.1547  -0.0000   0.6724  -0.0000  -0.4350  -0.0000
  47 C   :4f0   -0.0952   0.0000  -0.2555  -0.0000  -0.2841  -0.0000   0.0964
  48 C   :4f2+   0.0000   0.0373   0.0000  -0.1105   0.0000  -0.1525   0.0000
  49 C   :4f0   -0.9210   0.0000   2.1974  -0.0000  -0.3021   0.0000  -1.1654
  50 C   :4f2+   0.0000   0.6022  -0.0000   0.6736  -0.0000   0.2611   0.0000
  51 S   :1s     0.0131   0.0000  -0.0809  -0.0000  -0.0397  -0.0000   0.0478
  52 S   :1s     0.6201   0.0000  -1.5791  -0.0000  -0.7231  -0.0000   0.8145
  53 S   :1s     1.8896   0.0000  -4.4600  -0.0000  -2.2620  -0.0000   2.4717
  54 S   :1s    -1.2931   0.0000   0.6516   0.0000   0.2363   0.0000   0.0128
  55 S   :1s    19.0435  -0.0000  -0.1563  -0.0000  -4.2152  -0.0000   3.9729
  56 S   :1s     0.0073   0.0000  -0.0283  -0.0000  -0.0124  -0.0000   0.0148
  57 S   :1s     0.6045   0.0000  -0.9437  -0.0000  -0.3578  -0.0000   0.3673
  58 S   :1s    12.5280  -0.0000   2.1196   0.0000   0.2680  -0.0000   1.4870
  59 S   :2pz   -2.1022   0.0000   0.5947   0.0000   1.0996   0.0000  -0.0271
  60 S   :2pz   -8.3577   0.0000   1.5832   0.0000   4.1756   0.0000  -0.7124
  61 S   :2pz    2.3023  -0.0000  -0.7421  -0.0000  -1.1133  -0.0000  -0.5472
  62 S   :2pz  -10.2380   0.0000  -3.8009  -0.0000  -0.5792   0.0000  -0.4995
  63 S   :2pz   -0.0484   0.0000   0.0105   0.0000   0.0292   0.0000  -0.0183
  64 S   :2pz   -0.0977   0.0000   0.0283  -0.0000   0.0387   0.0000   0.0427
  65 S   :2pz   -1.2929   0.0000  -0.0890  -0.0000   0.0976   0.0000   0.0746
  66 S   :3d0   -0.0034   0.0000  -0.0044  -0.0000  -0.0034  -0.0000   0.0030
  67 S   :3d2+   0.0000   0.0098   0.0000   0.0007  -0.0000   0.0012  -0.0000
  68 S   :3d0   -0.0553   0.0000  -0.0600  -0.0000  -0.0394  -0.0000   0.0429
  69 S   :3d2+   0.0000   0.1237   0.0000   0.0072  -0.0000   0.0176  -0.0000
  70 S   :3d0   -0.4602   0.0000  -0.6080  -0.0000  -0.4724  -0.0000   0.4348
  71 S   :3d2+   0.0000   1.1728   0.0000   0.0892  -0.0000   0.1583  -0.0000
  72 S   :3d0    3.9624  -0.0000   2.1930   0.0000   0.1166  -0.0000  -1.1136
  73 S   :3d2+  -0.0000  -1.6875  -0.0000  -0.3748   0.0000  -0.3886   0.0000
  74 S   :3d0    2.4328  -0.0000   1.0080   0.0000  -0.0804  -0.0000  -0.8039
  75 S   :3d2+   0.0000   0.6217   0.0000  -0.3654   0.0000   0.3180  -0.0000
  76 S   :4f0    0.0005  -0.0000  -0.0015  -0.0000   0.0010  -0.0000  -0.0037
  77 S   :4f2+   0.0000  -0.0008  -0.0000  -0.0004  -0.0000   0.0056   0.0000
  78 S   :4f0   -0.1951   0.0000  -0.5515  -0.0000   0.1925   0.0000  -0.7640
  79 S   :4f2+   0.0000  -0.1553  -0.0000  -0.0865  -0.0000   1.2096   0.0000
  80 S   :4f0   -1.1284   0.0000  -0.4841  -0.0000  -0.5154   0.0000   1.4173
  81 S   :4f2+   0.0000   0.4146   0.0000   0.5262  -0.0000  -0.6383  -0.0000

    Orbital        43       44       45       46       47       48       49
   1 O   :1s    -0.9408   0.0544   0.0000   0.0371  -0.2163   0.0000   0.0564
   2 O   :1s    -4.3378   0.1810   0.0000   0.2631  -1.0605   0.0000   0.4248
   3 O   :1s     0.6050  -0.2537  -0.0000   0.1110  -0.0794  -0.0000   0.0136
   4 O   :1s     5.4700   9.8721  -0.0000   1.3451   2.3224  -0.0000  -0.4967
   5 O   :1s    -0.3650   0.0425   0.0000   0.0060  -0.0645   0.0000   0.0200
   6 O   :1s    -0.0710  -0.0037   0.0000   0.0047  -0.0228   0.0000   0.0023
   7 O   :1s     2.8315   6.7278  -0.0000   0.2828  -0.7910   0.0000  -0.0055
   8 O   :2pz   -0.1352   0.2334  -0.0000  -0.2409   0.2390  -0.0000   0.3875
   9 O   :2pz    0.1316   1.0168  -0.0000  -0.4208   0.5785  -0.0000  -0.1108
  10 O   :2pz    6.1421   6.8881  -0.0000   0.4842   6.6331  -0.0000  -2.5131
  11 O   :2pz    0.0039   0.0159  -0.0000   0.0012   0.0043  -0.0000   0.0024
  12 O   :2pz    0.0000  -0.0002   0.0000  -0.0001   0.0000   0.0000  -0.0002
  13 O   :2pz    0.8716   2.0664  -0.0000   0.3473   0.0300  -0.0000  -0.1547
  14 O   :3d0    0.0032   0.0038  -0.0000   0.0013   0.0005  -0.0000  -0.0027
  15 O   :3d2+   0.0000   0.0000   0.0026  -0.0000   0.0000   0.0014  -0.0000
  16 O   :3d0    0.0101  -0.0047   0.0000  -0.0006   0.0023   0.0000  -0.0684
  17 O   :3d2+   0.0000   0.0000   0.0117   0.0000   0.0000   0.0213   0.0000
  18 O   :3d0    0.9371   1.5178  -0.0000  -0.2707   0.9475  -0.0000  -0.1651
  19 O   :3d2+   0.0000   0.0000   0.4764  -0.0000  -0.0000   0.1977  -0.0000
  20 O   :3d0    1.6277   2.1197  -0.0000   0.5437   2.5864  -0.0000  -1.3371
  21 O   :3d2+   0.0000   0.0000   1.5618  -0.0000  -0.0000   0.3125   0.0000
  22 O   :4f0    0.0896   0.0440  -0.0000  -0.0395   0.0799  -0.0000   0.1190
  23 O   :4f2+  -0.0000  -0.0000  -0.0902   0.0000  -0.0000  -0.0542  -0.0000
  24 O   :4f0   -0.2411   1.2274  -0.0000   0.3649   0.3506  -0.0000  -0.8722
  25 O   :4f2+   0.0000   0.0000   1.5683  -0.0000  -0.0000   0.4339  -0.0000
  26 C   :1s    -2.2470  -3.0356   0.0000  -0.8386  -2.6620   0.0000   1.2599
  27 C   :1s    -9.8744 -13.0887   0.0000  -3.8905 -11.2444   0.0000   5.5461
  28 C   :1s     2.0090   1.9907  -0.0000   0.5275   2.4891  -0.0000  -0.9262
  29 C   :1s     3.8219   7.5996   0.0000 -12.5456  -7.7166   0.0000  13.8002
  30 C   :1s    -0.9298  -1.2150   0.0000  -0.3333  -1.1324   0.0000   0.5303
  31 C   :1s    -0.1587  -0.2346   0.0000  -0.0608  -0.1866   0.0000   0.0849
  32 C   :1s    -1.5223  -1.1177   0.0000  -2.1058  -2.4630   0.0000   4.7596
  33 C   :2pz   -0.5036  -0.9118   0.0000  -1.1909   0.5306   0.0000  -2.8866
  34 C   :2pz    3.1779   7.9885  -0.0000  -1.9319   4.4679  -0.0000   4.4110
  35 C   :2pz   -0.8218  10.8681   0.0000  -3.1212 -10.9004   0.0000  11.1733
  36 C   :2pz    0.0078   0.0273  -0.0000   0.0050   0.0039  -0.0000   0.0806
  37 C   :2pz    0.0005   0.0007  -0.0000   0.0002   0.0001  -0.0000   0.0019
  38 C   :2pz   -0.2023  -0.1079   0.0000  -0.6475  -0.1952   0.0000   1.0211
  39 C   :3d0    0.0036   0.0020  -0.0000   0.0017  -0.0001   0.0000  -0.0056
  40 C   :3d2+   0.0000   0.0000   0.0019  -0.0000  -0.0000  -0.0090  -0.0000
  41 C   :3d0   -0.0750  -0.2934   0.0000   0.0831  -0.2955   0.0000  -0.6895
  42 C   :3d2+   0.0000   0.0000   0.2417  -0.0000  -0.0000  -1.2120  -0.0000
  43 C   :3d0    1.4387   1.2551   0.0000  -0.8113   1.0158  -0.0000   2.3126
  44 C   :3d2+  -0.0000  -0.0000  -1.3652   0.0000   0.0000   0.6979   0.0000
  45 C   :3d0    1.0914   2.2616   0.0000  -0.0876   1.1601  -0.0000   0.8977
  46 C   :3d2+  -0.0000   0.0000  -0.1272   0.0000  -0.0000  -0.1710  -0.0000
  47 C   :4f0    0.1708   0.2573   0.0000  -0.7029   0.6138  -0.0000  -0.4529
  48 C   :4f2+  -0.0000  -0.0000  -0.1166   0.0000  -0.0000  -0.1385  -0.0000
  49 C   :4f0   -1.8757   1.5815   0.0000   1.9381  -1.4771   0.0000   0.8761
  50 C   :4f2+   0.0000   0.0000   2.0048  -0.0000   0.0000   0.7968   0.0000
  51 S   :1s     0.0426  -0.0454  -0.0000  -0.1317  -0.1584   0.0000  -0.0292
  52 S   :1s     0.9999  -0.7165  -0.0000  -2.9705  -4.5866   0.0000  -0.7836
  53 S   :1s     2.6501  -2.4413  -0.0000  -8.3082 -12.5263   0.0000  -2.1319
  54 S   :1s    -0.8921   0.0129   0.0000   2.4894   7.7563  -0.0000   1.4793
  55 S   :1s    -4.3726 -11.9277  -0.0000  17.3311  17.8923  -0.0000 -13.8684
  56 S   :1s     0.0172  -0.0120  -0.0000  -0.0500  -0.0692   0.0000  -0.0122
  57 S   :1s     0.7591  -0.2301  -0.0000  -2.1118  -4.0986   0.0000  -0.6852
  58 S   :1s     1.2239   0.1971  -0.0000   3.4863   5.2733  -0.0000  -6.4091
  59 S   :2pz    0.5665   2.4474  -0.0000  -2.2187   0.9616  -0.0000   2.4361
  60 S   :2pz    2.0170   9.0036   0.0000  -6.9927   3.4219  -0.0000   8.4862
  61 S   :2pz   -0.9070  -2.9918   0.0000   3.9556  -1.4179   0.0000  -3.3150
  62 S   :2pz    0.0644  -0.0172   0.0000  -5.5438 -10.0469   0.0000   5.0535
  63 S   :2pz    0.0036   0.0582   0.0000  -0.0217   0.0237  -0.0000   0.0623
  64 S   :2pz    0.0495   0.1106  -0.0000  -0.1839   0.0470  -0.0000   0.1045
  65 S   :2pz   -0.1834  -0.1972   0.0000  -0.2115  -0.9589   0.0000   0.7326
  66 S   :3d0   -0.0033  -0.0054  -0.0000  -0.0009  -0.0036   0.0000   0.0001
  67 S   :3d2+   0.0000   0.0000   0.0008  -0.0000   0.0000   0.0005   0.0000
  68 S   :3d0   -0.0387  -0.0509  -0.0000  -0.0228  -0.0476   0.0000   0.0146
  69 S   :3d2+   0.0000   0.0000   0.0090   0.0000   0.0000   0.0115   0.0000
  70 S   :3d0   -0.3930  -0.6362  -0.0000  -0.2627  -0.4449   0.0000   0.0266
  71 S   :3d2+   0.0000   0.0000   0.1098   0.0000   0.0000   0.0832   0.0000
  72 S   :3d0   -0.0815  -1.5000   0.0000   3.0259  -0.3042   0.0000  -2.3296
  73 S   :3d2+  -0.0000  -0.0000  -0.7623   0.0000  -0.0000  -0.4730  -0.0000
  74 S   :3d0   -0.5428  -0.0486  -0.0000   1.8426   2.4374  -0.0000  -1.4443
  75 S   :3d2+   0.0000   0.0000   0.0721  -0.0000  -0.0000  -0.0162   0.0000
  76 S   :4f0   -0.0039   0.0022  -0.0000  -0.0021   0.0013  -0.0000  -0.0001
  77 S   :4f2+   0.0000   0.0000   0.0020   0.0000  -0.0000  -0.0003  -0.0000
  78 S   :4f0   -0.6628   0.8832   0.0000  -0.7476   0.5840  -0.0000   0.1169
  79 S   :4f2+   0.0000   0.0000   0.4696   0.0000  -0.0000  -0.0267  -0.0000
  80 S   :4f0    0.4055  -0.1924  -0.0000  -0.5039  -0.4018   0.0000   0.4912
  81 S   :4f2+  -0.0000   0.0000   0.1309  -0.0000   0.0000   0.4316   0.0000

    Orbital        50       51       52       53       54       55       56
   1 O   :1s     0.0000  -0.9472   0.2673  -1.6084   1.4732  -2.6994   0.0000
   2 O   :1s     0.0000  -4.0496   1.1809  -6.6137   4.9490 -10.0840   0.0000
   3 O   :1s    -0.0000   0.7325  -0.1806   1.8253  -2.6443   4.6001  -0.0000
   4 O   :1s     0.0000  -6.8563   3.6706   1.9835 -17.2614  -2.2788  -0.0000
   5 O   :1s     0.0000  -0.3571   0.1032  -0.6744   0.7138  -1.2630   0.0000
   6 O   :1s     0.0000  -0.0807   0.0207  -0.1133   0.0919  -0.1702   0.0000
   7 O   :1s     0.0000  -2.7459   2.7468  -0.0339  -5.3564  -2.8194   0.0000
   8 O   :2pz   -0.0000   1.7361   0.6783  -1.3172   2.1308   1.8854   0.0000
   9 O   :2pz    0.0000  -3.7782  -0.5118  -0.9023  -5.2426  -4.3167  -0.0000
  10 O   :2pz    0.0000  -0.2430   1.4607   0.7727 -10.8234  -3.3747   0.0000
  11 O   :2pz    0.0000  -0.0404  -0.0116   0.0124  -0.0771  -0.0566  -0.0000
  12 O   :2pz   -0.0000  -0.0006  -0.0002   0.0006  -0.0010  -0.0016  -0.0000
  13 O   :2pz   -0.0000   0.3210   0.6636   0.2451  -1.0210  -0.6572   0.0000
  14 O   :3d0    0.0000   0.0051  -0.0032   0.0089   0.0003   0.0058  -0.0000
  15 O   :3d2+  -0.0022   0.0000  -0.0000  -0.0000   0.0000  -0.0000  -0.0092
  16 O   :3d0    0.0000  -0.0597  -0.0512   0.2429   0.0903   0.4557  -0.0000
  17 O   :3d2+  -0.0022   0.0000   0.0000  -0.0000   0.0000  -0.0000  -0.5845
  18 O   :3d0    0.0000   0.4652  -0.5643  -0.4705  -2.5144  -1.6247  -0.0000
  19 O   :3d2+  -0.4870   0.0000  -0.0000   0.0000  -0.0000   0.0000   0.4283
  20 O   :3d0   -0.0000   1.3566  -0.0476   0.6470  -2.9090  -0.4411   0.0000
  21 O   :3d2+   0.0152   0.0000   0.0000   0.0000   0.0000   0.0000  -0.7332
  22 O   :4f0   -0.0000  -0.1367   0.1355  -0.2276  -0.0575   0.4932  -0.0000
  23 O   :4f2+   0.0769   0.0000  -0.0000   0.0000   0.0000  -0.0000   1.1198
  24 O   :4f0    0.0000   1.1654  -0.5864   0.3681  -0.8122  -0.7418   0.0000
  25 O   :4f2+  -0.6995   0.0000  -0.0000  -0.0000   0.0000   0.0000  -0.7706
  26 C   :1s     0.0000  -0.4637  -3.6880  -0.1788   4.4085   2.4802  -0.0000
  27 C   :1s     0.0000  -2.5820 -14.6508  -0.6331  19.5578  10.8862   0.0000
  28 C   :1s    -0.0000  -1.7020   7.3614   0.1531  -3.4884  -2.5436   0.0000
  29 C   :1s    -0.0000   9.1540 -14.3412  -2.8973   2.5071   3.0526  -0.0000
  30 C   :1s     0.0000  -0.0595  -1.8542  -0.1118   1.7435   0.9987  -0.0000
  31 C   :1s     0.0000  -0.0633  -0.1955  -0.0029   0.3467   0.1968  -0.0000
  32 C   :1s    -0.0000   1.0157  -5.2695  -1.1063   2.9823   1.5143  -0.0000
  33 C   :2pz    0.0000   3.1993   0.7833   3.0962  -0.2217  -0.1312  -0.0000
  34 C   :2pz   -0.0000  -7.6761  -5.4127  -7.5386  -9.4215  -4.7768   0.0000
  35 C   :2pz   -0.0000  -4.4003  -5.0045  -3.7239   0.3662  -2.1845  -0.0000
  36 C   :2pz   -0.0000  -0.1111  -0.0338  -0.0704  -0.0141  -0.0044  -0.0000
  37 C   :2pz   -0.0000  -0.0029  -0.0003  -0.0044   0.0000  -0.0000   0.0000
  38 C   :2pz   -0.0000  -0.4763  -0.9780  -0.5186   0.1399   0.1268  -0.0000
  39 C   :3d0    0.0000  -0.0064  -0.0026   0.0015   0.0060   0.0034   0.0000
  40 C   :3d2+   0.0008   0.0000   0.0000  -0.0000   0.0000   0.0000  -0.0014
  41 C   :3d0    0.0000  -0.8443  -0.1395   0.4644   1.4544   0.8032   0.0000
  42 C   :3d2+   0.1172   0.0000   0.0000  -0.0000  -0.0000  -0.0000  -0.0889
  43 C   :3d0   -0.0000   4.3476  -4.9751  -0.1163   0.4644   2.5278  -0.0000
  44 C   :3d2+   0.4717  -0.0000  -0.0000   0.0000  -0.0000  -0.0000   0.3889
  45 C   :3d0   -0.0000   2.2326  -0.7155  -0.4250   0.4120  -0.4068  -0.0000
  46 C   :3d2+   0.1103  -0.0000   0.0000  -0.0000  -0.0000   0.0000   0.1903
  47 C   :4f0    0.0000  -0.6882  -0.4371  -1.8633  -1.2342  -0.3121  -0.0000
  48 C   :4f2+  -1.3869   0.0000  -0.0000  -0.0000  -0.0000  -0.0000   0.2465
  49 C   :4f0   -0.0000   0.2188  -0.2121  -0.3600   1.1597  -1.4421   0.0000
  50 C   :4f2+   0.4679   0.0000   0.0000   0.0000   0.0000   0.0000  -0.5544
  51 S   :1s     0.0000  -0.0513   0.0896   0.0463   0.0089   0.0302  -0.0000
  52 S   :1s     0.0000  -0.6825   2.4747   1.2924   0.1576   0.5633  -0.0000
  53 S   :1s     0.0000  -1.8424   7.1890   4.1368   0.5224   1.6588  -0.0000
  54 S   :1s    -0.0000  -0.4533  -4.2102  -1.4651  -0.4996  -0.0606   0.0000
  55 S   :1s     0.0000   0.8139  10.7091   2.0181  -1.3084  -2.1029   0.0000
  56 S   :1s     0.0000  -0.0158   0.0354   0.0161   0.0017   0.0098  -0.0000
  57 S   :1s     0.0000  -0.1819   2.0857   0.9226   0.0733   0.2822  -0.0000
  58 S   :1s     0.0000   0.8449   6.2744   1.2291  -1.7666  -1.5205   0.0000
  59 S   :2pz   -0.0000  -0.3797  -3.7900  -1.1724  -0.4174   0.2177  -0.0000
  60 S   :2pz   -0.0000  -1.3257 -14.1382  -5.1584  -1.7887   0.6262  -0.0000
  61 S   :2pz    0.0000   1.0524   4.8313   0.9467   0.3024  -0.5111   0.0000
  62 S   :2pz   -0.0000  -1.0161  -3.1235   0.4675   1.2825   1.7020  -0.0000
  63 S   :2pz   -0.0000   0.0128  -0.0900  -0.0165  -0.0253   0.0111  -0.0000
  64 S   :2pz   -0.0000  -0.0798  -0.1832  -0.0790   0.0166  -0.0003   0.0000
  65 S   :2pz   -0.0000  -0.0552  -0.6603   0.0315   0.2426   0.2209  -0.0000
  66 S   :3d0   -0.0000   0.0012   0.0043   0.0062   0.0035   0.0009  -0.0000
  67 S   :3d2+   0.0001   0.0000  -0.0000   0.0000  -0.0000  -0.0000  -0.0000
  68 S   :3d0    0.0000   0.0639   0.1249   0.1367   0.0264  -0.0211  -0.0000
  69 S   :3d2+   0.0177  -0.0000  -0.0000  -0.0000  -0.0000  -0.0000  -0.0183
  70 S   :3d0    0.0000   0.0964   0.5988   0.8161   0.3971   0.1152  -0.0000
  71 S   :3d2+   0.0468  -0.0000  -0.0000  -0.0000  -0.0000  -0.0000  -0.0124
  72 S   :3d0    0.0000   1.4140   4.2966   1.1625   0.6762  -0.4510   0.0000
  73 S   :3d2+  -0.0854  -0.0000   0.0000   0.0000  -0.0000  -0.0000   0.1599
  74 S   :3d0    0.0000   0.2739   1.5351  -0.0315   0.0019  -0.5736   0.0000
  75 S   :3d2+  -0.1772   0.0000  -0.0000  -0.0000  -0.0000  -0.0000  -0.0682
  76 S   :4f0   -0.0000  -0.0023  -0.0010   0.0019   0.0026   0.0010   0.0000
  77 S   :4f2+  -0.0021   0.0000  -0.0000  -0.0000  -0.0000   0.0000   0.0000
  78 S   :4f0   -0.0000  -0.8195  -0.9365  -0.5933  -0.1241   0.0436   0.0000
[...]
     124      -0.00015524    -0.00000000     0.00000000     0.00000000     0.00000000
     126       0.99977323    -0.00000000     0.00000000     0.00000000     0.00000000
     127       0.00000000     1.00000000     0.00000000     0.00000000     0.00000000
     128       0.00000000     0.00000000     1.00000000     0.00000000     0.00000000
     129       0.00000000     0.00000000     0.00000000     1.00000000     0.00000000
     130       0.00000000     0.00000000     0.00000000     0.00000000     1.00000000

               Column 131     Column 132     Column 133     Column 134     Column 135
     131       1.00000000     0.00000000     0.00000000     0.00000000     0.00000000
     132       0.00000000     1.00000000     0.00000000     0.00000000     0.00000000
     133       0.00000000     0.00000000     1.00000000     0.00000000     0.00000000
     134       0.00000000     0.00000000     0.00000000     1.00000000     0.00000000
     135       0.00000000     0.00000000     0.00000000     0.00000000     1.00000000

               Column 136     Column 137     Column 138     Column 139     Column 140
     136       1.00000000     0.00000000     0.00000000     0.00000000     0.00000000
     137       0.00000000     1.00000000     0.00000000     0.00000000     0.00000000
     138       0.00000000     0.00000000     1.00000000     0.00000000     0.00000000
     139       0.00000000     0.00000000     0.00000000     1.00000000     0.00000000
     140       0.00000000     0.00000000     0.00000000     0.00000000     1.00000000

               Column 141     Column 142     Column 143     Column 144     Column 145
     141       1.00000000     0.00000000     0.00000000     0.00000000     0.00000000
     142       0.00000000     1.00000000     0.00000000     0.00000000     0.00000000
     143       0.00000000     0.00000000     1.00000000     0.00000000     0.00000000
     144       0.00000000     0.00000000     0.00000000     1.00000000     0.00000000
     145       0.00000000     0.00000000     0.00000000     0.00000000     1.00000000

               Column 146     Column 147     Column 148     Column 149     Column 150
     146       1.00000000     0.00000000     0.00000000     0.00000000     0.00000000
     147       0.00000000     1.00000000     0.00000000     0.00000000     0.00000000
     148       0.00000000     0.00000000     1.00000000     0.00000000     0.00000000
     149       0.00000000     0.00000000     0.00000000     1.00000000     0.00000000
     150       0.00000000     0.00000000     0.00000000     0.00000000     1.00000000

               Column 151     Column 152     Column 153     Column 154     Column 155
     151       1.00000000     0.00000000     0.00000000     0.00000000     0.00000000
     152       0.00000000     1.00000000     0.00000000     0.00000000     0.00000000
     153       0.00000000     0.00000000     1.00000000     0.00000000     0.00000000
     154       0.00000000     0.00000000     0.00000000     1.00000000     0.00000000
     155       0.00000000     0.00000000     0.00000000     0.00000000     1.00000000

               Column 156     Column 157     Column 158     Column 159     Column 160
     156       1.00000000     0.00000000     0.00000000     0.00000000     0.00000000
     157       0.00000000     1.00000000     0.00000000     0.00000000     0.00000000
     158       0.00000000     0.00000000     1.00000000     0.00000000     0.00000000
     159       0.00000000     0.00000000     0.00000000     1.00000000     0.00000000
     160       0.00000000     0.00000000     0.00000000     0.00000000     1.00000000

               Column 161     Column 162     Column 163     Column 164     Column 165
     161       1.00000000     0.00000000     0.00000000     0.00000000     0.00000000
     162       0.00000000     1.00000000     0.00000000     0.00000000     0.00000000
     163       0.00000000     0.00000000     1.00000000     0.00000000     0.00000000
     164       0.00000000     0.00000000     0.00000000     1.00000000     0.00000000
     165       0.00000000     0.00000000     0.00000000     0.00000000     1.00000000

               Column 166     Column 167     Column 168     Column 169     Column 170
     166       1.00000000     0.00000000     0.00000000     0.00000000     0.00000000
     167       0.00000000     1.00000000     0.00000000     0.00000000     0.00000000
     168       0.00000000     0.00000000     1.00000000     0.00000000     0.00000000
     169       0.00000000     0.00000000     0.00000000     1.00000000     0.00000000
     170       0.00000000     0.00000000     0.00000000     0.00000000     1.00000000

               Column 171     Column 172     Column 173     Column 174     Column 175
     171       1.00000000     0.00000000     0.00000000     0.00000000     0.00000000
     172       0.00000000     1.00000000     0.00000000     0.00000000     0.00000000
     173       0.00000000     0.00000000     1.00000000     0.00000000     0.00000000
     174       0.00000000     0.00000000     0.00000000     1.00000000     0.00000000
     175       0.00000000     0.00000000     0.00000000     0.00000000     1.00000000

               Column 176     Column 177     Column 178     Column 179     Column 180
     176       1.00000000     0.00000000     0.00000000     0.00000000     0.00000000
     177       0.00000000     1.00000000     0.00000000     0.00000000     0.00000000
     178       0.00000000     0.00000000     1.00000000     0.00000000     0.00000000
     179       0.00000000     0.00000000     0.00000000     1.00000000     0.00000000
     180       0.00000000     0.00000000     0.00000000     0.00000000     1.00000000

               Column 181     Column 182     Column 183     Column 184     Column 185
     181       1.00000000     0.00000000     0.00000000     0.00000000     0.00000000
     182       0.00000000     1.00000000     0.00000000     0.00000000     0.00000000
     183       0.00000000     0.00000000     1.00000000     0.00000000     0.00000000
     184       0.00000000     0.00000000     0.00000000     1.00000000     0.00000000
     185       0.00000000     0.00000000     0.00000000     0.00000000     1.00000000

               Column 186     Column 187     Column 188     Column 189     Column 190
     186       1.00000000     0.00000000     0.00000000     0.00000000     0.00000000
     187       0.00000000     1.00000000     0.00000000     0.00000000     0.00000000
     188       0.00000000     0.00000000     1.00000000     0.00000000     0.00000000
     189       0.00000000     0.00000000     0.00000000     1.00000000     0.00000000
     190       0.00000000     0.00000000     0.00000000     0.00000000     1.00000000

               Column 191     Column 192     Column 193
     191       1.00000000     0.00000000     0.00000000
     192       0.00000000     1.00000000     0.00000000
     193       0.00000000     0.00000000     1.00000000
    ==== End of matrix output ====
 -----------------------------------------------------------------------------
@  1    -490.906948309        5.80952D-01   -4.91D+02    1
      Virial theorem: -V/T =      1.949826
@      MULPOP O       0.09; C       0.58; S       1.33; 
 -----------------------------------------------------------------------------
@  2    -490.924065512        4.38213D-01   -1.71D-02    2
      Virial theorem: -V/T =      1.946987
@      MULPOP O       0.23; C       0.46; S       1.31; 
 -----------------------------------------------------------------------------
@  3    -490.931329524        2.17206D-01   -7.26D-03    3
      Virial theorem: -V/T =      1.947438
@      MULPOP O       0.13; C       0.57; S       1.30; 
 -----------------------------------------------------------------------------
@  4    -490.932935479        2.63796D-02   -1.61D-03    4
      Virial theorem: -V/T =      1.947989
@      MULPOP O       0.16; C       0.54; S       1.30; 
 -----------------------------------------------------------------------------
@  5    -490.932958589        4.36477D-03   -2.31D-05    5
      Virial theorem: -V/T =      1.947927
@      MULPOP O       0.16; C       0.54; S       1.30; 
 -----------------------------------------------------------------------------
@  6    -490.932959114        1.75764D-03   -5.25D-07    6
      Virial theorem: -V/T =      1.947935
@      MULPOP O       0.16; C       0.54; S       1.30; 
 -----------------------------------------------------------------------------
@  7    -490.932959315        5.18414D-04   -2.01D-07    7
      Virial theorem: -V/T =      1.947934
@      MULPOP O       0.16; C       0.54; S       1.30; 
 -----------------------------------------------------------------------------
@  8    -490.932959334        4.19925D-05   -1.87D-08    8
      Virial theorem: -V/T =      1.947934
@      MULPOP O       0.16; C       0.54; S       1.30; 
 -----------------------------------------------------------------------------
@  9    -490.932959334        3.74690D-06   -8.92D-11    9

@ *** DIIS converged in   9 iterations !
@     Converged SCF energy, gradient:   -490.932959334080    3.75D-06
    - total time used in SIRFCK :              0.00 seconds


 *** SCF orbital energy analysis ***

 Orbital energy analysis for an open-shell system.
 Orbital energies are not well-defined for open-shell systems
   here is used block diagonalization of the FD=FC+FV Fock matrix.
 NOTE that Koopmans' theorem is not fulfilled for this case.

 Only the five lowest virtual orbital energies printed in each symmetry.

 Number of electrons :   26
 Orbital occupations :    8    2    3    0

 Sym       Kohn-Sham orbital energies

  1    -89.61786856   -11.03071367    -8.68494769    -6.64526017    -1.93044513
        -1.47745771    -1.27968959    -1.10944032   -21.56834925    -0.55449644
        -0.43252927    -0.34430201    -0.30061571    -0.25038740

  2     -6.64923144    -1.20968400    -0.91427413    -0.67178854    -0.30085922
        -0.26024675    -0.19939743    -0.11232918

  3     -6.63862066    -1.20981804    -0.94104431    -0.66869595    -0.29562832
        -0.25393316    -0.19455689    -0.11012429

  4     -0.34588652    -0.16234028     0.01016460     0.16787969     0.24813154


    E(LUMO) :    -0.67178854 au (symmetry 2)
  - E(HOMO) :    -0.94104431 au (symmetry 3)
  ------------------------------------------
    gap     :     0.26925576 au

and energy and symmetry of HSROHF open shell orbitals:
   -21.56834925         1
    -0.91427413         2

 NOTE: MOLECULAR ORBITALS ARE NOT CANONICAL HARTREE-FOCK ORBITALS

 Largest off-diagonal Fock matrix element is  2.99D-01

 >>> Writing SIRIFC interface file <<<

 >>>> CPU and wall time for SCF :      89.427      93.943


                       .-----------------------------------.
                       | >>> Final results from SIRIUS <<< |
                       `-----------------------------------'


@    Spin multiplicity:           3
@    Spatial symmetry:            2
@    Total charge of molecule:    2

@    Final DFT energy:           -490.932959334080                 
@    Nuclear repulsion:            80.281643676153
@    Electronic energy:          -571.214603010233

@    Final gradient norm:           0.000003746905

 
     Date and time (Linux)  : Sun Sep  8 21:03:17 2013
     Host name              : lpqlx131.ups-tlse.fr                    

 (Only coefficients >0.0100 are printed.)

 Molecular orbitals for symmetry species  1
 ------------------------------------------

    Orbital         5        6        7        8        9       10       11
   1 O   :1s     0.0673   0.0141  -0.0117  -0.0080  -1.0617   0.0111  -0.0046
   2 O   :1s    -0.7329  -0.1050   0.5450  -0.0173  -0.0425   0.2733  -0.2175
   3 O   :1s    -0.1059  -0.0237   0.0464   0.0107   0.0286   0.0203  -0.0257
   4 O   :1s     0.1182  -0.0010   0.1416  -0.0360   0.0115   0.0321  -0.0514
   5 O   :1s    -0.0024   0.0014   0.0112  -0.0032   0.0516   0.0072  -0.0039
   6 O   :1s     0.0103   0.0020  -0.0051  -0.0005  -0.0044  -0.0009   0.0012
   7 O   :1s    -0.0005  -0.0139   0.0292  -0.0205  -0.0007  -0.0191   0.1374
   8 O   :2pz   -0.3817   0.0264  -1.0154   0.2323   0.0011   0.3792  -0.1852
   9 O   :2pz    0.0676   0.0052   0.1848  -0.0467  -0.0014  -0.0405   0.0323
  10 O   :2pz    0.1109  -0.0092   0.3039  -0.0605   0.0021  -0.0386  -0.0562
  13 O   :2pz    0.0051  -0.0041   0.0050  -0.0087   0.0001   0.0189   0.0174
  16 O   :3d0   -0.0103   0.0004  -0.0140   0.0027  -0.0004   0.0015  -0.0004
  18 O   :3d0   -0.0202   0.0005  -0.0126   0.0028  -0.0006   0.0047   0.0027
  20 O   :3d0    0.0010  -0.0005   0.0148  -0.0008   0.0013  -0.0012  -0.0411
  26 C   :1s     0.0394  -0.0137  -0.0067  -0.0003   0.0007  -0.0376  -0.0284
  27 C   :1s    -0.3282   0.4884  -0.4181  -0.4376   0.0000  -0.7591  -0.2740
  28 C   :1s    -0.0233   0.0077  -0.0027  -0.0019  -0.0009   0.0170  -0.0110
  29 C   :1s     0.0934  -0.0848   0.0655   0.0180   0.0008  -0.4049   0.6033
  30 C   :1s     0.0083   0.0009  -0.0047  -0.0038   0.0001  -0.0169  -0.0082
  32 C   :1s    -0.0097   0.0418  -0.0110   0.0137  -0.0007  -0.1442   0.3159
  33 C   :2pz    0.3491   0.3785   0.3466  -0.4153   0.0048  -0.2263  -0.3644
  34 C   :2pz   -0.0507  -0.0175   0.0193   0.0198  -0.0041   0.0661   0.0327
  35 C   :2pz   -0.1372  -0.0975  -0.1291   0.0569  -0.0058   0.0450   0.3195
  38 C   :2pz   -0.0037   0.0071  -0.0040   0.0092  -0.0003  -0.0253   0.0408
  41 C   :3d0   -0.0281   0.0099  -0.0191   0.0037   0.0003   0.0438  -0.0425
  43 C   :3d0   -0.0239   0.0148  -0.0088   0.0026   0.0014   0.0907  -0.0465
  45 C   :3d0    0.0094   0.0046  -0.0182  -0.0071  -0.0001   0.0668  -0.0846
  46 C   :3d2+   0.0000  -0.0000   0.0000  -0.0002   0.0000  -0.0020   0.0138
  47 C   :4f0    0.0150   0.0114   0.0176  -0.0113  -0.0005   0.0021   0.0062
  49 C   :4f0    0.0047   0.0090  -0.0137  -0.0096  -0.0012  -0.0073   0.0288
  52 S   :1s    -0.0075  -0.0221   0.0022   0.0307   0.0007   0.0296  -0.1192
  53 S   :1s    -0.0352   0.7537   0.2042   0.7897   0.0015   0.4169  -0.5320
  54 S   :1s     0.0064   0.0246   0.0098   0.0011  -0.0003   0.0148   0.0630
  55 S   :1s     0.0257  -0.1782  -0.0178   0.0262   0.0009   0.0201   0.0703
  57 S   :1s    -0.0038   0.0013   0.0039   0.0221   0.0002   0.0116  -0.0702
  58 S   :1s     0.0216  -0.0542  -0.0046  -0.0100   0.0009   0.1274   0.2824
  59 S   :2pz    0.0020   0.0420   0.0071  -0.0492  -0.0001  -0.0029   0.0265
  60 S   :2pz    0.0204  -0.2000   0.0300   0.5495  -0.0018  -0.8551   0.0745
  61 S   :2pz    0.0003  -0.0304  -0.0071   0.0481  -0.0001  -0.0231  -0.0216
  62 S   :2pz   -0.0279   0.0845   0.0010  -0.1777   0.0001  -0.1040  -0.1354
  65 S   :2pz   -0.0038   0.0099   0.0034  -0.0030  -0.0001  -0.0300  -0.0729
  68 S   :3d0    0.0000   0.0064   0.0004  -0.0087  -0.0000  -0.0195  -0.0268
  70 S   :3d0   -0.0047   0.0361  -0.0026  -0.0492   0.0003  -0.1156  -0.1683
  72 S   :3d0   -0.0017   0.0146  -0.0146  -0.0298   0.0001  -0.1539  -0.2075
  73 S   :3d2+   0.0001   0.0019   0.0008   0.0044   0.0000   0.0070   0.0194
  74 S   :3d0    0.0062  -0.0071  -0.0063   0.0049  -0.0002  -0.0222  -0.1408
  75 S   :3d2+   0.0000  -0.0004  -0.0000   0.0002   0.0000   0.0019   0.0203
  78 S   :4f0    0.0016  -0.0108   0.0024   0.0101  -0.0002   0.0157   0.0260

 Molecular orbitals for symmetry species  2
 ------------------------------------------

    Orbital         1        2        3        4        5
   1 O   :2px   -0.0002   1.1262   0.4120  -0.5180   0.1352
   2 O   :2px    0.0005  -0.1550  -0.0495   0.0613  -0.0071
   3 O   :2px    0.0022  -0.2099  -0.0565   0.0727   0.0866
   6 O   :2px    0.0004   0.0114   0.0130  -0.0027  -0.0292
   8 O   :3d1+  -0.0001   0.0141  -0.0010   0.0056   0.0027
   9 O   :3d1+   0.0008   0.0282  -0.0002   0.0171   0.0128
  10 O   :3d1+   0.0014   0.0070  -0.0060   0.0173   0.0514
  15 C   :2px   -0.0004   0.4508  -0.4782   0.9026   0.2718
  16 C   :2px   -0.0000  -0.0325   0.0079  -0.0237   0.0072
  17 C   :2px   -0.0002  -0.0860   0.0782  -0.0438  -0.4122
  20 C   :2px   -0.0002   0.0019  -0.0082   0.0043  -0.4338
  22 C   :3d1+   0.0000  -0.0235  -0.0177   0.0061   0.0047
  23 C   :3d1+   0.0037  -0.0170  -0.0435   0.0364   0.0655
  24 C   :3d1+   0.0004   0.0501  -0.0017   0.0480   0.1150
  25 C   :4f1+  -0.0005   0.0148  -0.0083   0.0022   0.0102
  27 C   :4f1+   0.0013   0.0178   0.0128  -0.0175  -0.0284
  29 S   :2px    1.0080  -0.0090   0.0192  -0.0005   0.0623
  30 S   :2px   -0.0106   0.0335  -0.8198  -0.7109   0.6256
  31 S   :2px    0.0126   0.0089  -0.0135  -0.0125  -0.0536
  32 S   :2px    0.0046  -0.0690   0.0830  -0.0255  -0.4322
  35 S   :2px   -0.0008  -0.0053   0.0084   0.0007  -0.3445
  37 S   :3d1+  -0.0008  -0.0020   0.0058  -0.0130  -0.0077
  38 S   :3d1+  -0.0007  -0.0112   0.0349  -0.0777  -0.0443
  39 S   :3d1+   0.0026   0.0043   0.0395  -0.0878  -0.0846
  40 S   :3d1+  -0.0005   0.0224   0.0113   0.0123   0.0338
  43 S   :4f1+  -0.0003   0.0000  -0.0118   0.0178   0.0095

 Molecular orbitals for symmetry species  3
 ------------------------------------------

    Orbital         1        2        3        4        5
   1 O   :2py   -0.0002   1.1146   0.4472  -0.5231   0.1565
   2 O   :2py    0.0005  -0.1551  -0.0547   0.0621  -0.0094
   3 O   :2py    0.0020  -0.2099  -0.0750   0.0728   0.0785
   6 O   :2py    0.0003   0.0109   0.0082  -0.0034  -0.0434
   8 O   :3d1-  -0.0001   0.0141   0.0001   0.0057   0.0028
   9 O   :3d1-   0.0008   0.0275   0.0041   0.0171   0.0131
  10 O   :3d1-   0.0013   0.0064  -0.0024   0.0170   0.0516
  15 C   :2py   -0.0004   0.4681  -0.4519   0.9250   0.2553
  16 C   :2py   -0.0001  -0.0343   0.0055  -0.0271   0.0062
  17 C   :2py   -0.0002  -0.0896   0.1018  -0.0507  -0.4000
  20 C   :2py   -0.0002   0.0023  -0.0031   0.0046  -0.4473
  22 C   :3d1-   0.0000  -0.0223  -0.0213   0.0063   0.0034
  23 C   :3d1-   0.0035  -0.0147  -0.0501   0.0360   0.0615
  24 C   :3d1-   0.0003   0.0500   0.0052   0.0465   0.1149
  26 C   :4f1-  -0.0005   0.0153  -0.0099   0.0028   0.0096
  28 C   :4f1-   0.0011   0.0176   0.0123  -0.0170  -0.0278
  29 S   :2py    1.0095  -0.0100   0.0167   0.0002   0.0605
  30 S   :2py   -0.0099   0.0732  -0.8895  -0.6891   0.5652
  31 S   :2py    0.0114   0.0105  -0.0203  -0.0143  -0.0522
  32 S   :2py    0.0042  -0.0760   0.1510  -0.0310  -0.4020
  35 S   :2py   -0.0008  -0.0058   0.0129  -0.0001  -0.3323
  37 S   :3d1-  -0.0007  -0.0023   0.0070  -0.0128  -0.0068
  38 S   :3d1-  -0.0007  -0.0131   0.0428  -0.0772  -0.0390
  39 S   :3d1-   0.0024   0.0026   0.0527  -0.0859  -0.0763
  40 S   :3d1-  -0.0004   0.0221   0.0124   0.0127   0.0369
  44 S   :4f1-  -0.0001   0.0007  -0.0136   0.0166   0.0093

 Molecular orbitals for symmetry species  4
 ------------------------------------------

    Orbital         1        2
   3 O   :3d2-   0.0141   0.0414
   4 O   :3d2-   0.0083   0.0822
   6 O   :4f2-   0.0045   0.0134
   8 C   :3d2-   0.0202   0.0300
   9 C   :3d2-   0.0848   0.0771
  10 C   :3d2-   0.2190   1.0703
  12 C   :4f2-   0.0191   0.0160
  14 S   :3d2-   0.0383  -0.0251
  15 S   :3d2-   0.2218  -0.1449
  16 S   :3d2-   0.3228  -0.2260
  17 S   :3d2-   0.4377  -0.6304
  19 S   :4f2-  -0.0096  -0.0212
  20 S   :4f2-  -0.0245   0.0075



 >>>> Total CPU  time used in SIRIUS :     89.46 seconds
 >>>> Total wall time used in SIRIUS :     93.98 seconds

 
     Date and time (Linux)  : Sun Sep  8 21:03:17 2013
     Host name              : lpqlx131.ups-tlse.fr                    


                     .---------------------------------------.
                     | End of Wave Function Section (SIRIUS) |
                     `---------------------------------------'

 >>>> Total CPU  time used in DALTON:  1 minute  43 seconds
 >>>> Total wall time used in DALTON:  1 minute  48 seconds

 
     Date and time (Linux)  : Sun Sep  8 21:03:17 2013
     Host name              : lpqlx131.ups-tlse.fr                    
