

     ************************************************************************
     *************** Dalton - An Electronic Structure Program ***************
     ************************************************************************

    This is output from DALTON 2014.0
   ----------------------------------------------------------------------------
    NOTE:
     
    Dalton is an experimental code for the evaluation of molecular
    properties using (MC)SCF, DFT, CI, and CC wave functions.
    The authors accept no responsibility for the performance of
    the code or for the correctness of the results.
     
    The code (in whole or part) is provided under a licence and
    is not to be reproduced for further distribution without
    the written permission of the authors or their representatives.
     
    See the home page "http://daltonprogram.org" for further information.
     
    If results obtained with this code are published,
    the appropriate citations would be both of:
     
       K. Aidas, C. Angeli, K. L. Bak, V. Bakken, R. Bast,
       L. Boman, O. Christiansen, R. Cimiraglia, S. Coriani,
       J. Cukras, P. Dahle, E. K. Dalskov, U. Ekstroem,
       T. Enevoldsen, J. J. Eriksen, P. Ettenhuber, B. Fernandez,
       L. Ferrighi, H. Fliegl, L. Frediani, K. Hald, A. Halkier,
       C. Haettig, H. Heiberg, T. Helgaker, A. C. Hennum,
       H. Hettema, E. Hjertenaes, S. Hoest, I.-M. Hoeyvik,
       M. F. Iozzi, B. Jansik, H. J. Aa. Jensen, D. Jonsson,
       P. Joergensen, M. Kaminski, J. Kauczor, S. Kirpekar,
       T. Kjaergaard, W. Klopper, S. Knecht, R. Kobayashi, H. Koch,
       J. Kongsted, A. Krapp, K. Kristensen, A. Ligabue,
       O. B. Lutnaes, J. I. Melo, K. V. Mikkelsen, R. H. Myhre,
       C. Neiss, C. B. Nielsen, P. Norman, J. Olsen,
       J. M. H. Olsen, A. Osted, M. J. Packer, F. Pawlowski,
       T. B. Pedersen, P. F. Provasi, S. Reine, Z. Rinkevicius,
       T. A. Ruden, K. Ruud, V. Rybkin, P. Salek, C. C. M. Samson,
       A. Sanchez de Meras, T. Saue, S. P. A. Sauer,
       B. Schimmelpfennig, K. Sneskov, A. H. Steindal,
       K. O. Sylvester-Hvid, P. R. Taylor, A. M. Teale,
       E. I. Tellgren, D. P. Tew, A. J. Thorvaldsen, L. Thoegersen,
       O. Vahtras, M. A. Watson, D. J. D. Wilson, M. Ziolkowski
       and H. Agren,
       "The Dalton quantum chemistry program system",
       WIREs Comput. Mol. Sci. 2013. (doi: 10.1002/wcms.1172)
    
    and
    
       Dalton, a Molecular Electronic Structure Program,
       Release DALTON2014.0 (2014), see http://daltonprogram.org
   ----------------------------------------------------------------------------

    Authors in alphabetical order (major contribution(s) in parenthesis):

  Kestutis Aidas,           Vilnius University,           Lithuania   (QM/MM)
  Celestino Angeli,         University of Ferrara,        Italy       (NEVPT2)
  Keld L. Bak,              UNI-C,                        Denmark     (AOSOPPA, non-adiabatic coupling, magnetic properties)
  Vebjoern Bakken,          University of Oslo,           Norway      (DALTON; geometry optimizer, symmetry detection)
  Radovan Bast,             KTH Stockholm,                Sweden      (DALTON installation and execution frameworks)
  Pablo Baudin,             University of Valencia,       Spain       (Cholesky excitation energies)
  Linus Boman,              NTNU,                         Norway      (Cholesky decomposition and subsystems)
  Ove Christiansen,         Aarhus University,            Denmark     (CC module)
  Renzo Cimiraglia,         University of Ferrara,        Italy       (NEVPT2)
  Sonia Coriani,            University of Trieste,        Italy       (CC module, MCD in RESPONS)
  Janusz Cukras,            University of Trieste,        Italy       (MChD in RESPONS)
  Paal Dahle,               University of Oslo,           Norway      (Parallelization)
  Erik K. Dalskov,          UNI-C,                        Denmark     (SOPPA)
  Thomas Enevoldsen,        Univ. of Southern Denmark,    Denmark     (SOPPA)
  Janus J. Eriksen,         Aarhus University,            Denmark     (Polarizable embedding model, TDA)
  Berta Fernandez,          U. of Santiago de Compostela, Spain       (doublet spin, ESR in RESPONS)
  Lara Ferrighi,            Aarhus University,            Denmark     (PCM Cubic response)
  Heike Fliegl,             University of Oslo,           Norway      (CCSD(R12))
  Luca Frediani,            UiT The Arctic U. of Norway,  Norway      (PCM)
  Bin Gao,                  UiT The Arctic U. of Norway,  Norway      (Gen1Int library)
  Christof Haettig,         Ruhr-University Bochum,       Germany     (CC module)
  Kasper Hald,              Aarhus University,            Denmark     (CC module)
  Asger Halkier,            Aarhus University,            Denmark     (CC module)
  Erik D. Hedegaard,        Univ. of Southern Denmark,    Denmark     (Polarizable embedding model, QM/MM)
  Hanne Heiberg,            University of Oslo,           Norway      (geometry analysis, selected one-electron integrals)
  Trygve Helgaker,          University of Oslo,           Norway      (DALTON; ABACUS, ERI, DFT modules, London, and much more)
  Alf Christian Hennum,     University of Oslo,           Norway      (Parity violation)
  Hinne Hettema,            University of Auckland,       New Zealand (quadratic response in RESPONS; SIRIUS supersymmetry)
  Eirik Hjertenaes,         NTNU,                         Norway      (Cholesky decomposition)
  Maria Francesca Iozzi,    University of Oslo,           Norway      (RPA)
  Brano Jansik              Technical Univ. of Ostrava    Czech Rep.  (DFT cubic response)
  Hans Joergen Aa. Jensen,  Univ. of Southern Denmark,    Denmark     (DALTON; SIRIUS, RESPONS, ABACUS modules, London, and much more)
  Dan Jonsson,              UiT The Arctic U. of Norway,  Norway      (cubic response in RESPONS module)
  Poul Joergensen,          Aarhus University,            Denmark     (RESPONS, ABACUS, and CC modules)
  Maciej Kaminski,          University of Warsaw,         Poland      (CPPh in RESPONS)
  Joanna Kauczor,           Linkoeping University,        Sweden      (Complex polarization propagator (CPP) module)
  Sheela Kirpekar,          Univ. of Southern Denmark,    Denmark     (Mass-velocity & Darwin integrals)
  Wim Klopper,              KIT Karlsruhe,                Germany     (R12 code in CC, SIRIUS, and ABACUS modules)
  Stefan Knecht,            ETH Zurich,                   Switzerland (Parallel CI and MCSCF)
  Rika Kobayashi,           Australian National Univ.,    Australia   (DIIS in CC, London in MCSCF)
  Henrik Koch,              NTNU,                         Norway      (CC module, Cholesky decomposition)
  Jacob Kongsted,           Univ. of Southern Denmark,    Denmark     (Polarizable embedding model, QM/MM)
  Andrea Ligabue,           University of Modena,         Italy       (CTOCD, AOSOPPA)
  Nanna H. List             Univ. of Southern Denmark,    Denmark     (Polarizable embedding model)
  Ola B. Lutnaes,           University of Oslo,           Norway      (DFT Hessian)
  Juan I. Melo,             University of Buenos Aires,   Argentina   (LRESC, Relativistic Effects on NMR Shieldings)
  Kurt V. Mikkelsen,        University of Copenhagen,     Denmark     (MC-SCRF and QM/MM)
  Rolf H. Myhre,            NTNU,                         Norway      (Cholesky, subsystems and ECC2)
  Christian Neiss,          Univ. Erlangen-Nuernberg,     Germany     (CCSD(R12))
  Christian B. Nielsen,     University of Copenhagen,     Denmark     (QM/MM)
  Patrick Norman,           Linkoeping University,        Sweden      (Cubic response and complex response in RESPONS)
  Jeppe Olsen,              Aarhus University,            Denmark     (SIRIUS CI/density modules)
  Jogvan Magnus H. Olsen,   Univ. of Southern Denmark,    Denmark     (Polarizable embedding model, QM/MM)
  Anders Osted,             Copenhagen University,        Denmark     (QM/MM)
  Martin J. Packer,         University of Sheffield,      UK          (SOPPA)
  Filip Pawlowski,          Kazimierz Wielki University,  Poland      (CC3)
  Morten N. Pedersen,       Univ. of Southern Denmark,    Denmark     (Polarizable embedding model)
  Thomas B. Pedersen,       University of Oslo,           Norway      (Cholesky decomposition)
  Patricio F. Provasi,      University of Northeastern,   Argentina   (Analysis of coupling constants in localized orbitals)
  Zilvinas Rinkevicius,     KTH Stockholm,                Sweden      (open-shell DFT, ESR)
  Elias Rudberg,            KTH Stockholm,                Sweden      (DFT grid and basis info)
  Torgeir A. Ruden,         University of Oslo,           Norway      (Numerical derivatives in ABACUS)
  Kenneth Ruud,             UiT The Arctic U. of Norway,  Norway      (DALTON; ABACUS magnetic properties and much more)
  Pawel Salek,              KTH Stockholm,                Sweden      (DALTON; DFT code)
  Claire C. M. Samson       University of Karlsruhe       Germany     (Boys localization, r12 integrals in ERI)
  Alfredo Sanchez de Meras, University of Valencia,       Spain       (CC module, Cholesky decomposition)
  Trond Saue,               Paul Sabatier University,     France      (direct Fock matrix construction)
  Stephan P. A. Sauer,      University of Copenhagen,     Denmark     (SOPPA(CCSD), SOPPA prop., AOSOPPA, vibrational g-factors)
  Bernd Schimmelpfennig,    Forschungszentrum Karlsruhe,  Germany     (AMFI module)
  Kristian Sneskov,         Aarhus University,            Denmark     (Polarizable embedding model, QM/MM)
  Arnfinn H. Steindal,      UiT The Arctic U. of Norway,  Norway      (parallel QM/MM, Polarizable embedding model)
  Casper Steinmann,         Univ. of Southern Denmark,    Denmark     (QFIT, Polarizable embedding model)
  K. O. Sylvester-Hvid,     University of Copenhagen,     Denmark     (MC-SCRF)
  Peter R. Taylor,          VLSCI/Univ. of Melbourne,     Australia   (Symmetry handling ABACUS, integral transformation)
  Andrew M. Teale,          University of Nottingham,     England     (DFT-AC, DFT-D)
  David P. Tew,             University of Bristol,        England     (CCSD(R12))
  Olav Vahtras,             KTH Stockholm,                Sweden      (triplet response, spin-orbit, ESR, TDDFT, open-shell DFT)
  David J. Wilson,          La Trobe University,          Australia   (DFT Hessian and DFT magnetizabilities)
  Hans Agren,               KTH Stockholm,                Sweden      (SIRIUS module, RESPONS, MC-SCRF solvation model)
 --------------------------------------------------------------------------------

     Date and time (Linux)  : Sat Nov 29 00:36:01 2014
     Host name              : foeroyar                                

 * Work memory size             :    64000000 =  488.28 megabytes.

 * Directories for basis set searches:
   1) /home/magnus/Projects/dalton_devel/dalton/DALTON/test/convert
   2) /home/magnus/Projects/dalton_devel/dalton/build_release/basis


Compilation information
-----------------------

 Who compiled             | magnus
 Host                     | foeroyar
 System                   | Linux-3.17.3-200.fc20.x86_64
 CMake generator          | Unix Makefiles
 Processor                | x86_64
 64-bit integers          | OFF
 MPI                      | ON
 Fortran compiler         | /usr/local/bin/mpif90
 Fortran compiler version | GNU Fortran (GCC) 4.8.3 20140911 (Red Hat 4.8.3-7)
 C compiler               | /usr/local/bin/mpicc
 C compiler version       | gcc (GCC) 4.8.3 20140911 (Red Hat 4.8.3-7)
 C++ compiler             | /usr/local/bin/mpicxx
 C++ compiler version     | unknown
 BLAS                     | /lib64/atlas-sse3/libf77blas.so;/lib64/atlas-sse3/
                          | libcblas.so;/lib64/atlas-sse3/libatlas.so
 LAPACK                   | /lib64/atlas-sse3/libatlas.so;/lib64/atlas-sse3/li
                          | blapack.so
 Static linking           | OFF
 Last Git revision        | 177ec0c4a8433031d081f9503fe4a249bddff4ca
 Configuration time       | 2014-11-28 23:06:34.793627

 * Sequential calculation.


   Content of the .dal input file
 ----------------------------------

**DALTON                                          
.RUN PROPERTIES                                   
.PEQM                                             
**WAVE FUNCTIONS                                  
.HF                                               
**PROPERTIES                                      
.SHIELD                                           
**END OF                                          


   Content of the .mol file
 ----------------------------

BASIS                                                                          
STO-3G                                                                         
Acrolein                                                                       
------------------------                                                       
AtomTypes=3 NoSymmetry Angstrom                                                
Charge=6.0 Atoms=3                                                             
C             -0.145335   -0.546770    0.000607                                
C              1.274009   -0.912471   -0.000167                                
C              1.630116   -2.207690   -0.000132                                
Charge=8.0 Atoms=1                                                             
O             -0.560104    0.608977    0.000534                                
Charge=1.0 Atoms=4                                                             
H             -0.871904   -1.386459    0.001253                                
H              2.004448   -0.101417   -0.000710                                
H              0.879028   -3.000685    0.000484                                
H              2.675323   -2.516779   -0.000673                                


       *******************************************************************
       *********** Output from DALTON general input processing ***********
       *******************************************************************

 --------------------------------------------------------------------------------
   Overall default print level:    0
   Print level for DALTON.STAT:    1

    HERMIT 1- and 2-electron integral sections will be executed
    "Old" integral transformation used (limited to max 255 basis functions)
    Wave function sections will be executed (SIRIUS module)
    Static molecular property section will be executed (ABACUS module)
    Environment is modeled using polarizable embedding scheme (PE library)
 --------------------------------------------------------------------------------


   ****************************************************************************
   *************** Output of molecule and basis set information ***************
   ****************************************************************************


    The two title cards from your ".mol" input:
    ------------------------------------------------------------------------
 1: Acrolein                                                                
 2: ------------------------                                                
    ------------------------------------------------------------------------

  Coordinates are entered in Angstrom and converted to atomic units.
          - Conversion factor : 1 bohr = 0.52917721 A

  Atomic type no.    1
  --------------------
  Nuclear charge:   6.00000
  Number of symmetry independent centers:    3
  Number of basis sets to read;    2
  Basis set file used for this atomic type with Z =   6 :
     "/home/magnus/Projects/dalton_devel/dalton/build_release/basis/STO-3G"

  Atomic type no.    2
  --------------------
  Nuclear charge:   8.00000
  Number of symmetry independent centers:    1
  Number of basis sets to read;    2
  Basis set file used for this atomic type with Z =   8 :
     "/home/magnus/Projects/dalton_devel/dalton/build_release/basis/STO-3G"

  Atomic type no.    3
  --------------------
  Nuclear charge:   1.00000
  Number of symmetry independent centers:    4
  Number of basis sets to read;    2
  Basis set file used for this atomic type with Z =   1 :
     "/home/magnus/Projects/dalton_devel/dalton/build_release/basis/STO-3G"


                         SYMGRP: Point group information
                         -------------------------------

@    Point group: C1 


                                 Isotopic Masses
                                 ---------------

                           C          12.000000
                           C          12.000000
                           C          12.000000
                           O          15.994915
                           H           1.007825
                           H           1.007825
                           H           1.007825
                           H           1.007825

                       Total mass:    56.026215 amu
                       Natural abundance:  96.446 %

 Center-of-mass coordinates (a.u.):    0.973773   -1.393790    0.000425


  Atoms and basis sets
  --------------------

  Number of atom types :    3
  Total number of atoms:    8

  Basis set used is "STO-3G" from the basis set library.

  label    atoms   charge   prim   cont     basis
  ----------------------------------------------------------------------
  C           3    6.0000    15     5      [6s3p|2s1p]                                        
  O           1    8.0000    15     5      [6s3p|2s1p]                                        
  H           4    1.0000     3     1      [3s|1s]                                            
  ----------------------------------------------------------------------
  total:      8   30.0000    72    24
  ----------------------------------------------------------------------

  Threshold for neglecting AO integrals:  1.00D-12


  Cartesian Coordinates (a.u.)
  ----------------------------

  Total number of coordinates:   24
  C       :     1  x  -0.2746433464    2  y  -1.0332455534    3  z   0.0011470638
  C       :     4  x   2.4075280908    5  y  -1.7243202870    6  z  -0.0003155843
  C       :     7  x   3.0804727920    8  y  -4.1719294689    9  z  -0.0002494438
  O       :    10  x  -1.0584431615   11  y   1.1507997464   12  z   0.0010091138
  H       :    13  x  -1.6476597673   14  y  -2.6200277935   15  z   0.0023678268
  H       :    16  x   3.7878577518   17  y  -0.1916503544   18  z  -0.0013417055
  H       :    19  x   1.6611221762   20  y  -5.6704728374   21  z   0.0009146274
  H       :    22  x   5.0556277659   23  y  -4.7560230271   24  z  -0.0012717857


   Interatomic separations (in Angstrom):
   --------------------------------------

            C           C           C           O           H           H     
            ------      ------      ------      ------      ------      ------
 C     :    0.000000
 C     :    1.465700    0.000000
 C     :    2.431231    1.343281    0.000000
 O     :    1.227919    2.383018    3.568007    0.000000
 H     :    1.110397    2.197637    2.633349    2.019650    0.000000
 H     :    2.195429    1.091490    2.139278    2.661125    3.150355    0.000000
 H     :    2.659139    2.125241    1.092234    3.885970    2.381489    3.110036
 H     :    3.440501    2.130137    1.089951    4.498704    3.722962    2.506800

            H           H     
            ------      ------
 H     :    0.000000
 H     :    1.860334    0.000000


  Max    interatomic separation is    4.4987 Angstrom (    8.5013 Bohr)
  between atoms    8 and    4, "H     " and "O     ".

  Min HX interatomic separation is    1.0900 Angstrom (    2.0597 Bohr)

  Min YX interatomic separation is    1.2279 Angstrom (    2.3204 Bohr)


  Bond distances (Angstrom):
  --------------------------

                  atom 1     atom 2       distance
                  ------     ------       --------
  bond distance:  C          C            1.465700
  bond distance:  C          C            1.343281
  bond distance:  O          C            1.227919
  bond distance:  H          C            1.110397
  bond distance:  H          C            1.091490
  bond distance:  H          C            1.092234
  bond distance:  H          C            1.089951


  Bond angles (degrees):
  ----------------------

                  atom 1     atom 2     atom 3         angle
                  ------     ------     ------         -----
  bond angle:     C          C          O            124.190
  bond angle:     C          C          H            116.421
  bond angle:     O          C          H            119.389
  bond angle:     C          C          C            119.821
  bond angle:     C          C          H            117.558
  bond angle:     C          C          H            122.621
  bond angle:     C          C          H            121.182
  bond angle:     C          C          H            121.847
  bond angle:     H          C          H            116.971




 Principal moments of inertia (u*A**2) and principal axes
 --------------------------------------------------------

   IA      10.696865         -0.668732    0.743503    0.000230
   IB     108.794831          0.743503    0.668732   -0.000587
   IC     119.491696          0.000590    0.000221    1.000000


 Rotational constants
 --------------------

@    The molecule is planar.

               A                   B                   C

          47245.5253           4645.2483           4229.4069 MHz
            1.575941            0.154949            0.141078 cm-1


@  Nuclear repulsion energy :  102.664846860515 Hartree

  Reading potential input file for polarizable embedding calculation

  Polarizable embedding information
  ---------------------------------

    Number of classical sites:     10

    Multipole moments upto 3rd order.

    Dipole-dipole polarizabilities.

    Iterative solver for induced moments will be used
    with convergence threshold: 1.0E-08


                     .---------------------------------------.
                     | Starting in Integral Section (HERMIT) |
                     `---------------------------------------'



 ***************************************************************************************
 ****************** Output from **INTEGRALS input processing (HERMIT) ******************
 ***************************************************************************************


 - Using defaults, no **INTEGRALS input found

 Default print level:        1

 * Nuclear model: Point charge

 Calculation of one- and two-electron Hamiltonian integrals.

 Center of mass  (bohr):      0.973773359129     -1.393789716280      0.000424788898
 Operator center (bohr):      0.000000000000      0.000000000000      0.000000000000
 Gauge origin    (bohr):      0.000000000000      0.000000000000      0.000000000000
 Dipole origin   (bohr):      0.000000000000      0.000000000000      0.000000000000


     ************************************************************************
     ************************** Output from HERINT **************************
     ************************************************************************


 Threshold for neglecting two-electron integrals:  1.00D-12
 HERMIT - Number of two-electron integrals written:       43383 ( 96.1% )
 HERMIT - Megabytes written:                              0.502

 >>>  Time used in TWOINT     is   0.22 seconds
 >>>> Total CPU  time used in HERMIT:   0.26 seconds
 >>>> Total wall time used in HERMIT:   0.26 seconds


                        .----------------------------------.
                        | End of Integral Section (HERMIT) |
                        `----------------------------------'



                   .--------------------------------------------.
                   | Starting in Wave Function Section (SIRIUS) |
                   `--------------------------------------------'


 *** Output from Huckel module :

     Using EWMO model:          T
     Using EHT  model:          F
     Number of Huckel orbitals each symmetry:   24

 EWMO - Energy Weighted Maximum Overlap - is a Huckel type method,
        which normally is better than Extended Huckel Theory.
 Reference: Linderberg and Ohrn, Propagators in Quantum Chemistry (Wiley, 1973)

 Huckel EWMO eigenvalues for symmetry :  1
          -20.684561     -11.357400     -11.351264     -11.346036      -1.724840
           -1.477979      -1.046134      -1.031570      -0.744448      -0.729231
           -0.672044      -0.551742      -0.540543      -0.516178      -0.438809
           -0.319925      -0.220785      -0.162868      -0.131432      -0.129120
           -0.123435      -0.114530      -0.093199      -0.085427

 **********************************************************************
 *SIRIUS* a direct, restricted step, second order MCSCF program       *
 **********************************************************************

 
     Date and time (Linux)  : Sat Nov 29 00:36:01 2014
     Host name              : foeroyar                                

 Title lines from ".mol" input file:
     Acrolein                                                                
     ------------------------                                                

 Print level on unit LUPRI =   2 is   0
 Print level on unit LUW4  =   2 is   5

@    Restricted, closed shell Hartree-Fock calculation.

 Initial molecular orbitals are obtained according to
 ".MOSTART EWMO  " input option

@    QM part is embedded in an environment :

@         Model: PE

     Wave function specification
     ============================

     Wave function environment is modeled using the
     polarizable embedding model (PE library).

@    Wave function type        >>> PE-HF <<<
@    Number of closed shell electrons          30
@    Number of electrons in active shells       0
@    Total charge of the molecule               0

@    Spin multiplicity and 2 M_S                1         0
@    Total number of symmetries                 1 (point group: C1 )
@    Reference state symmetry                   1 (irrep name : A  )

     Orbital specifications
     ======================
     Abelian symmetry species          All |    1
                                           |  A  
                                       --- |  ---
@    Occupied SCF orbitals              15 |   15
     Secondary orbitals                  9 |    9
     Total number of orbitals           24 |   24
     Number of basis functions          24 |   24

     Optimization information
     ========================
@    Number of configurations                 1
@    Number of orbital rotations            135
     ------------------------------------------
@    Total number of variables              136

     Maximum number of Fock   iterations      0
     Maximum number of DIIS   iterations     60
     Maximum number of QC-SCF iterations     60
     Threshold for SCF convergence     1.00D-05


 ***********************************************
 ***** DIIS acceleration of SCF iterations *****
 ***********************************************

 C1-DIIS algorithm; max error vectors =    8

 Iter      Total energy     Embedding energy      Error norm     Delta(E)
 -----------------------------------------------------------------------------
     (Precalculated two-electron integrals are transformed to P-supermatrix elements.
      Threshold for discarding integrals :  1.00D-12 )
@  1  -187.948496600     -4.868374348978E-02    2.01259D+00   -1.88D+02
      Virial theorem: -V/T =      2.003056
@      MULPOP C       0.93; C       0.24; C       0.42; O      -1.03; H      -0.16; H      -0.14; H      -0.12; H      -0.13; 
 -----------------------------------------------------------------------------
@  2  -188.184841194      2.344779659307E-03    1.36791D+00   -2.36D-01
      Virial theorem: -V/T =      2.009438
@      MULPOP C      -0.39; C      -0.18; C      -0.25; O       0.36; H       0.07; H       0.15; H       0.12; H       0.12; 
 -----------------------------------------------------------------------------
@  3  -188.315331361     -1.994605857626E-02    1.22120D-01   -1.30D-01
      Virial theorem: -V/T =      2.007786
@      MULPOP C       0.19; C      -0.10; C      -0.11; O      -0.30; H       0.05; H       0.09; H       0.08; H       0.08; 
 -----------------------------------------------------------------------------
@  4  -188.317223363     -1.920849914129E-02    2.80029D-02   -1.89D-03
      Virial theorem: -V/T =      2.007876
@      MULPOP C       0.14; C      -0.09; C      -0.09; O      -0.27; H       0.07; H       0.09; H       0.07; H       0.08; 
 -----------------------------------------------------------------------------
@  5  -188.317376539     -1.916797097239E-02    9.68984D-03   -1.53D-04
      Virial theorem: -V/T =      2.007837
@      MULPOP C       0.14; C      -0.09; C      -0.10; O      -0.27; H       0.07; H       0.10; H       0.07; H       0.08; 
 -----------------------------------------------------------------------------
@  6  -188.317390806     -1.918432906121E-02    2.78666D-03   -1.43D-05
      Virial theorem: -V/T =      2.007836
@      MULPOP C       0.14; C      -0.09; C      -0.09; O      -0.27; H       0.07; H       0.10; H       0.07; H       0.08; 
 -----------------------------------------------------------------------------
@  7  -188.317391847     -1.918174369107E-02    7.23105D-04   -1.04D-06
      Virial theorem: -V/T =      2.007836
@      MULPOP C       0.14; C      -0.09; C      -0.10; O      -0.27; H       0.07; H       0.10; H       0.07; H       0.08; 
 -----------------------------------------------------------------------------
@  8  -188.317391913     -1.918427369673E-02    1.50542D-04   -6.63D-08
      Virial theorem: -V/T =      2.007835
@      MULPOP C       0.14; C      -0.09; C      -0.10; O      -0.27; H       0.07; H       0.10; H       0.07; H       0.08; 
 -----------------------------------------------------------------------------
@  9  -188.317391916     -1.918426510508E-02    3.46603D-05   -3.15D-09
      Virial theorem: -V/T =      2.007835
@      MULPOP C       0.14; C      -0.09; C      -0.10; O      -0.27; H       0.07; H       0.10; H       0.07; H       0.08; 
 -----------------------------------------------------------------------------
@ 10  -188.317391916     -1.918439589978E-02    9.30417D-06   -2.13D-10

@ *** DIIS converged in  10 iterations !
@     Converged SCF energy, gradient:   -188.317391916158    9.30D-06
    - total time used in SIRFCK :              0.00 seconds


 *** SCF orbital energy analysis ***
   (incl. contribution from polarizable embedding potential)

 Only the five lowest virtual orbital energies printed in each symmetry.

 Number of electrons :   30
 Orbital occupations :   15

 Sym       Hartree-Fock orbital energies

1 A     -20.28723547   -11.13975660   -11.05534296   -11.04610027    -1.34280986
         -1.02347208    -0.82817321    -0.73627017    -0.61639430    -0.60505833
         -0.52315126    -0.50359063    -0.47863644    -0.36294749    -0.32551271
          0.20429359     0.38331426     0.59620654     0.62636541     0.65972004

    E(LUMO) :     0.20429359 au (symmetry 1)
  - E(HOMO) :    -0.32551271 au (symmetry 1)
  ------------------------------------------
    gap     :     0.52980630 au

      Polarizable embedding energy contributions:
     ---------------------------------------------

       Electrostatic contributions:
         Monopoles                 -0.015401648863
         Dipoles                    0.004183501103
         Quadrupoles               -0.004908350661
         Octopoles                 -0.002292518851

       Polarization contributions:
         Electronic                -0.043153620832
         Nuclear                    0.042259203058
         Multipole                  0.000129039146

       Total PE energy:            -0.019184395900

 >>> Writing SIRIFC interface file

 >>>> CPU and wall time for SCF :       0.460       0.460


                       .-----------------------------------.
                       | >>> Final results from SIRIUS <<< |
                       `-----------------------------------'


@    Spin multiplicity:           1
@    Spatial symmetry:            1 ( irrep  A   in C1  )
@    Total charge of molecule:    0

@    Final HF energy:            -188.317391916158                 
@    Nuclear repulsion:           102.664846860515
@    Electronic energy:          -290.963054380773
@    Embedding energy:             -0.019184395900

@    Final gradient norm:           0.000009304175

 
     Date and time (Linux)  : Sat Nov 29 00:36:02 2014
     Host name              : foeroyar                                

 (Only coefficients >0.0100 are printed.)

 Molecular orbitals for symmetry species 1  (A  )
 ------------------------------------------------

    Orbital         1        2        3        4        5        6        7
   1 C   :1s    -0.0005  -0.9926   0.0004   0.0013   0.1233  -0.0657   0.1392
   2 C   :1s     0.0071  -0.0332  -0.0000  -0.0065  -0.2836   0.1854  -0.4286
   3 C   :2px   -0.0021  -0.0003  -0.0001  -0.0043   0.0477   0.1137  -0.1057
   4 C   :2py    0.0059  -0.0005   0.0002   0.0011  -0.1463  -0.0899   0.1304
   6 C   :1s     0.0000   0.0004   0.0391   0.9914   0.0213  -0.1794   0.0529
   7 C   :1s    -0.0003   0.0061  -0.0062   0.0366  -0.0515   0.4698  -0.1576
   8 C   :2px    0.0000  -0.0040  -0.0012  -0.0004   0.0281  -0.0165   0.1812
   9 C   :2py   -0.0006   0.0013   0.0043  -0.0016  -0.0077  -0.0928  -0.1653
  11 C   :1s    -0.0000   0.0003   0.9916  -0.0385   0.0045  -0.1571  -0.1474
  12 C   :1s    -0.0001  -0.0001   0.0353  -0.0091  -0.0107   0.4160   0.4325
  13 C   :2px   -0.0001  -0.0000  -0.0004   0.0013   0.0023  -0.0398   0.0556
  14 C   :2py   -0.0000   0.0000   0.0012  -0.0045  -0.0054   0.1050  -0.0565
  16 O   :1s    -0.9943  -0.0002   0.0000  -0.0000   0.2184   0.0460  -0.0787
  17 O   :1s    -0.0260   0.0058  -0.0001   0.0003  -0.7670  -0.1799   0.3406
  18 O   :2px   -0.0019   0.0007  -0.0000   0.0002  -0.0541   0.0217  -0.0698
  19 O   :2py    0.0052  -0.0016   0.0001  -0.0001   0.1483  -0.0078   0.1122
  21 H   :1s    -0.0002   0.0065  -0.0001   0.0001  -0.0318   0.0480  -0.1541
  22 H   :1s     0.0002  -0.0000  -0.0002  -0.0067  -0.0082   0.0990  -0.0508
  23 H   :1s     0.0000   0.0001  -0.0067   0.0004  -0.0019   0.0983   0.1507
  24 H   :1s     0.0000   0.0001  -0.0067   0.0004  -0.0011   0.0900   0.1894

    Orbital         8        9       10       11       12       13       14
   1 C   :1s    -0.0908   0.0077   0.0546   0.0043   0.0290  -0.0000  -0.0049
   2 C   :1s     0.2953  -0.0229  -0.1853  -0.0095  -0.1109   0.0000   0.0178
   3 C   :2px   -0.2401  -0.3742   0.0236   0.0875  -0.1994   0.0004   0.2012
   4 C   :2py   -0.1716  -0.1155  -0.2336  -0.3686   0.0747   0.0002   0.0582
   5 C   :2pz    0.0002   0.0003   0.0000   0.0001   0.0002   0.5624  -0.0001
   6 C   :1s     0.1078  -0.0315  -0.0341   0.0048  -0.0185   0.0000  -0.0358
   7 C   :1s    -0.3319   0.1038   0.0971  -0.0028   0.0806  -0.0000   0.1571
   8 C   :2px   -0.1321   0.3075  -0.0790  -0.0568   0.2253   0.0001  -0.3136
   9 C   :2py   -0.1452  -0.0726  -0.2764   0.3253   0.2498   0.0000   0.0574
  10 C   :2pz    0.0001  -0.0002   0.0001  -0.0000  -0.0001   0.2906   0.0002
  11 C   :1s    -0.0570   0.0160   0.0142   0.0232   0.0106  -0.0000   0.0069
  12 C   :1s     0.1780  -0.0656  -0.0632  -0.0645  -0.0297   0.0000  -0.0215
  13 C   :2px   -0.0487   0.1921  -0.3275   0.1933  -0.3522   0.0001   0.0735
  14 C   :2py   -0.1707   0.2761   0.2263  -0.2836  -0.2269   0.0001  -0.0641
  15 C   :2pz    0.0001  -0.0002   0.0001  -0.0000   0.0003   0.1863  -0.0001
  16 O   :1s     0.0421   0.0008  -0.0748  -0.0565   0.0109  -0.0000  -0.0014
  17 O   :1s    -0.1929  -0.0060   0.3821   0.3138  -0.0629   0.0000   0.0095
  18 O   :2px   -0.1249  -0.3476  -0.2212  -0.1859  -0.2259   0.0004  -0.7919
  19 O   :2py   -0.1723  -0.1243   0.3552   0.4955  -0.1816   0.0002  -0.2833
  20 O   :2pz    0.0001   0.0003   0.0000  -0.0000   0.0003   0.5788   0.0006
  21 H   :1s     0.2761   0.2001   0.0382   0.2022   0.0099  -0.0000  -0.3536
  22 H   :1s    -0.2438   0.1541  -0.1392   0.1748   0.3460  -0.0001  -0.1252
  23 H   :1s     0.1768  -0.2785   0.0217   0.0441   0.3828  -0.0000  -0.0587
  24 H   :1s     0.0721   0.0524  -0.3222   0.2088  -0.2831   0.0000   0.1043

    Orbital        15       16       17
   5 C   :2pz    0.1679  -0.5381  -0.6701
  10 C   :2pz   -0.5667  -0.3985   0.7309
  15 C   :2pz   -0.5857   0.6322  -0.5310
  20 O   :2pz    0.4118   0.5832   0.4465



 >>>> Total CPU  time used in SIRIUS :      0.47 seconds
 >>>> Total wall time used in SIRIUS :      0.47 seconds

 
     Date and time (Linux)  : Sat Nov 29 00:36:02 2014
     Host name              : foeroyar                                


                     .---------------------------------------.
                     | End of Wave Function Section (SIRIUS) |
                     `---------------------------------------'



        *****************************************************************
        ******** Output from **PROPE input processing for ABACUS ********
        *****************************************************************



 The following molecular properties will be calculated in this run:
 ------------------------------------------------------------------

 Default print level:        0

      Nuclear magnetic shieldings
      Natural orbital connection is used
      for perturbation dependent basis sets.
      Environment is modeled using the polarizable embedding scheme (PE library).

 Center of mass dipole origin  :    0.973773   -1.393790    0.000425

 Center of mass gauge origin   :    0.973773   -1.393790    0.000425


                 .------------------------------------------------.
                 | Starting in Static Property Section (ABACUS) - |
                 `------------------------------------------------'


 
     Date and time (Linux)  : Sat Nov 29 00:36:02 2014
     Host name              : foeroyar                                

 Integral transformation: Total CPU and WALL times (sec)       0.040       0.040
    Convergence for MAGFLD.1. Last residual and threshold:   0.00005   0.00010
    Convergence for MAGFLD.2. Last residual and threshold:   0.00006   0.00010
    Convergence for MAGFLD.3. Last residual and threshold:   0.00001   0.00010


   ***************************************************************************
   ************************ FINAL RESULTS from ABACUS ************************
   ***************************************************************************


 
     Date and time (Linux)  : Sat Nov 29 00:36:04 2014
     Host name              : foeroyar                                


                             Molecular geometry (au)
                             -----------------------

 C         -0.2746433464           -1.0332455534            0.0011470638
 C          2.4075280908           -1.7243202870           -0.0003155843
 C          3.0804727920           -4.1719294689           -0.0002494438
 O         -1.0584431615            1.1507997464            0.0010091138
 H         -1.6476597673           -2.6200277935            0.0023678268
 H          3.7878577518           -0.1916503544           -0.0013417055
 H          1.6611221762           -5.6704728374            0.0009146274
 H          5.0556277659           -4.7560230271           -0.0012717857





                        Molecular wave function and energy
                        ----------------------------------

     Spin multiplicity  1     State number       1     Total charge       0

     Total energy       -188.3173919162 au (Hartrees)
                         -5124.37690485 eV
                           -494427.2363 kJ/mol


                             Relativistic corrections
                             ------------------------

     Darwin correction:                          0.2461747871 au
     Mass-velocity correction:                  -0.3142926790 au

     Total relativistic correction:             -0.0681178918 au (0.0362%)
     Non-relativistic + relativistic energy:  -188.3855098080 au




                                  Dipole moment
                                  -------------

                 au               Debye          C m (/(10**-30)
              1.067744           2.713934           9.052708


                             Dipole moment components
                             ------------------------

                 au               Debye          C m (/(10**-30)

      x      0.52015252         1.32209576         4.41003675
      y     -0.93247944        -2.37012617        -7.90588992
      z     -0.00004054        -0.00010304        -0.00034369


   Units:   1 a.u. =   2.54175 Debye 
            1 a.u. =   8.47835 (10**-30) C m (SI)




  ******************************************************************************
  ************************ ABACUS - CHEMICAL SHIELDINGS ************************
  ******************************************************************************



                 Shielding tensors in symmetry coordinates (ppm)
                 -----------------------------------------------

                       Bx             By             Bz

        C    x   -23.74251402   -61.50672572     0.13891110
        C    y   -58.08712812    96.56623756     0.05761916
        C    z     0.13848447     0.05997166   180.99214972

        C    x    23.33768557   -33.18589619     0.12155606
        C    y   -44.08757815   122.30203024     0.04653166
        C    z     0.12313945     0.03775695   222.05598428

        C    x     3.66714060   -15.13690780     0.12694862
        C    y   -31.12546609   124.78882924     0.03737525
        C    z     0.13534240     0.02800555   222.33261400

        O    x  -448.52971866   186.54320758     0.51354670
        O    y   213.49243382  -867.20238490     0.25177193
        O    z     0.50524430     0.27162068   493.76632131

        H    x    21.92472787     1.18236674     0.00103536
        H    y    -3.46070542    19.94671103     0.00352600
        H    z     0.00227130     0.00072988    24.45507989

        H    x    23.25108798     0.09157612     0.00116989
        H    y    -3.84626777    28.70374425     0.00165087
        H    z     0.00112047    -0.00091913    24.42378311

        H    x    23.41295701     0.20335571     0.00148422
        H    y    -4.16873166    29.92146199     0.00158426
        H    z     0.00263891    -0.00090254    26.38301744

        H    x    23.23605228    -2.30995109     0.00197180
        H    y    -0.05441253    29.40374594    -0.00056142
        H    z     0.00177036     0.00065443    26.20384009





  Chemical shielding for C     :
  ==============================


  Shielding constant:     84.6053 ppm
  Anisotropy:           -199.5184 ppm
  Asymmetry:               0.4493    

  S parameter:           206.1218 ppm
  A parameter:             1.7098 ppm


  Total shielding tensor (ppm):
  -----------------------------

                    Bx             By             Bz

  C      x   -23.74251402   -61.50672572     0.13891110
  C      y   -58.08712812    96.56623756     0.05761916
  C      z     0.13848447     0.05997166   180.99214972


  Diamagnetic and paramagnetic contributions (ppm):
  -------------------------------------------------

                 Bx         By         Bz            Bx         By         Bz

  C      x   307.6645   -25.3285     0.0432     -331.4071   -36.1782     0.0957
  C      y    -6.5531   323.0183     0.0156      -51.5340  -226.4520     0.0420
  C      z     0.0378     0.0275   368.5392        0.1007     0.0324  -187.5470

  Diamagnetic contribution:    333.073985         Paramagnetic:    -248.468693


  Antisymmetric and traceless symmetric parts (ppm):
  --------------------------------------------------

                 Bx         By         Bz            Bx         By         Bz

  C      x     0.0000    -1.7098     0.0002     -108.3478   -59.7969     0.1387
  C      y     1.7098     0.0000    -0.0012      -59.7969    11.9609     0.0588
  C      z    -0.0002     0.0012     0.0000        0.1387     0.0588    96.3869


  Principal values and axes:
  --------------------------

  C         180.992249  =   84.61  +  96.39:     0.000598  0.000273  1.000000
  C         121.230618  =   84.61  +  36.63:    -0.381306  0.924449 -0.000025
  C         -48.406993  =   84.61  - 133.01:     0.924448  0.381306 -0.000657


  Chemical shielding for C     :
  ==============================


  Shielding constant:    122.5652 ppm
  Anisotropy:           -168.7876 ppm
  Asymmetry:               0.7683    

  S parameter:           184.6492 ppm
  A parameter:             5.4508 ppm


  Total shielding tensor (ppm):
  -----------------------------

                    Bx             By             Bz

  C      x    23.33768557   -33.18589619     0.12155606
  C      y   -44.08757815   122.30203024     0.04653166
  C      z     0.12313945     0.03775695   222.05598428


  Diamagnetic and paramagnetic contributions (ppm):
  -------------------------------------------------

                 Bx         By         Bz            Bx         By         Bz

  C      x   338.8972    -5.3642     0.0300     -315.5595   -27.8217     0.0915
  C      y     2.0680   336.7200     0.0094      -46.1556  -214.4180     0.0371
  C      z     0.0282     0.0121   388.4236        0.0949     0.0257  -166.3676

  Diamagnetic contribution:    354.680249         Paramagnetic:    -232.115016


  Antisymmetric and traceless symmetric parts (ppm):
  --------------------------------------------------

                 Bx         By         Bz            Bx         By         Bz

  C      x     0.0000     5.4508    -0.0008      -99.2275   -38.6367     0.1223
  C      y    -5.4508     0.0000     0.0044      -38.6367    -0.2632     0.0421
  C      z     0.0008    -0.0044     0.0000        0.1223     0.0421    99.4908


  Principal values and axes:
  --------------------------

  C         222.056063  =  122.57  +  99.49:     0.000577  0.000199  1.000000
  C         135.599495  =  122.57  +  13.03:    -0.325432  0.945566 -0.000000
  C          10.040142  =  122.57  - 112.53:     0.945565  0.325432 -0.000610


  Chemical shielding for C     :
  ==============================


  Shielding constant:    116.9295 ppm
  Anisotropy:           -176.2944 ppm
  Asymmetry:               0.7936    

  S parameter:           193.9204 ppm
  A parameter:             7.9943 ppm


  Total shielding tensor (ppm):
  -----------------------------

                    Bx             By             Bz

  C      x     3.66714060   -15.13690780     0.12694862
  C      y   -31.12546609   124.78882924     0.03737525
  C      z     0.13534240     0.02800555   222.33261400


  Diamagnetic and paramagnetic contributions (ppm):
  -------------------------------------------------

                 Bx         By         Bz            Bx         By         Bz

  C      x   343.6344    10.0674     0.0260     -339.9672   -25.2043     0.1009
  C      y     3.0088   328.5275     0.0124      -34.1343  -203.7387     0.0250
  C      z     0.0282     0.0070   391.9990        0.1072     0.0210  -169.6664

  Diamagnetic contribution:    354.720308         Paramagnetic:    -237.790780


  Antisymmetric and traceless symmetric parts (ppm):
  --------------------------------------------------

                 Bx         By         Bz            Bx         By         Bz

  C      x     0.0000     7.9943    -0.0042     -113.2624   -23.1312     0.1311
  C      y    -7.9943     0.0000     0.0047      -23.1312     7.8593     0.0327
  C      z     0.0042    -0.0047     0.0000        0.1311     0.0327   105.4031


  Principal values and axes:
  --------------------------

  C         222.332696  =  116.93  + 105.40:     0.000579  0.000198  1.000000
  C         129.055969  =  116.93  +  12.13:    -0.181415  0.983407 -0.000090
  C          -0.600082  =  116.93  - 117.53:     0.983407  0.181415 -0.000605


  Chemical shielding for O     :
  ==============================


  Shielding constant:   -273.9886 ppm
  Anisotropy:           1151.6329 ppm
  Asymmetry:               0.7542    

  S parameter:          1256.0830 ppm
  A parameter:            13.4746 ppm


  Total shielding tensor (ppm):
  -----------------------------

                    Bx             By             Bz

  O      x  -448.52971866   186.54320758     0.51354670
  O      y   213.49243382  -867.20238490     0.25177193
  O      z     0.50524430     0.27162068   493.76632131


  Diamagnetic and paramagnetic contributions (ppm):
  -------------------------------------------------

                 Bx         By         Bz            Bx         By         Bz

  O      x   531.2580    52.2930    -0.0015     -979.7877   134.2502     0.5150
  O      y    40.4161   437.9059     0.0119      173.0763 -1305.1082     0.2399
  O      z     0.0052    -0.0005   557.9597        0.5000     0.2721   -64.1934

  Diamagnetic contribution:    509.041188         Paramagnetic:    -783.029782


  Antisymmetric and traceless symmetric parts (ppm):
  --------------------------------------------------

                 Bx         By         Bz            Bx         By         Bz

  O      x     0.0000   -13.4746     0.0042     -174.5411   200.0178     0.5094
  O      y    13.4746     0.0000    -0.0099      200.0178  -593.2138     0.2617
  O      z    -0.0042     0.0099     0.0000        0.5094     0.2617   767.7549


  Principal values and axes:
  --------------------------

  O        -947.398140  = -273.99  - 673.41:    -0.372145  0.928175 -0.000037
  O        -368.334343  = -273.99  -  94.35:     0.928174  0.372145 -0.000661
  O         493.766700  = -273.99  + 767.76:     0.000600  0.000280  1.000000


  Chemical shielding for H     :
  ==============================


  Shielding constant:     22.1088 ppm
  Anisotropy:             -4.0226 ppm
  Asymmetry:               0.7498    

  S parameter:             4.3833 ppm
  A parameter:             2.3215 ppm


  Total shielding tensor (ppm):
  -----------------------------

                    Bx             By             Bz

  H      x    21.92472787     1.18236674     0.00103536
  H      y    -3.46070542    19.94671103     0.00352600
  H      z     0.00227130     0.00072988    24.45507989


  Diamagnetic and paramagnetic contributions (ppm):
  -------------------------------------------------

                 Bx         By         Bz            Bx         By         Bz

  H      x    39.9158    11.9900    -0.0090      -17.9911   -10.8076     0.0100
  H      y     9.2279    35.3800    -0.0083      -12.6886   -15.4332     0.0118
  H      z    -0.0097    -0.0103    29.2982        0.0120     0.0111    -4.8431

  Diamagnetic contribution:     34.864641         Paramagnetic:     -12.755801


  Antisymmetric and traceless symmetric parts (ppm):
  --------------------------------------------------

                 Bx         By         Bz            Bx         By         Bz

  H      x     0.0000     2.3215    -0.0006       -0.1841    -1.1392     0.0017
  H      y    -2.3215     0.0000     0.0014       -1.1392    -2.1621     0.0021
  H      z     0.0006    -0.0014     0.0000        0.0017     0.0021     2.3462


  Principal values and axes:
  --------------------------

  H          24.455081  =   22.11  +   2.35:     0.000497  0.000346  1.000000
  H          22.444309  =   22.11  +   0.34:     0.909831 -0.414979 -0.000309
  H          19.427128  =   22.11  -   2.68:     0.414979  0.909831 -0.000522


  Chemical shielding for H     :
  ==============================


  Shielding constant:     25.4595 ppm
  Anisotropy:              5.7421 ppm
  Asymmetry:               0.4589    

  S parameter:             5.9402 ppm
  A parameter:             1.9689 ppm


  Total shielding tensor (ppm):
  -----------------------------

                    Bx             By             Bz

  H      x    23.25108798     0.09157612     0.00116989
  H      y    -3.84626777    28.70374425     0.00165087
  H      z     0.00112047    -0.00091913    24.42378311


  Diamagnetic and paramagnetic contributions (ppm):
  -------------------------------------------------

                 Bx         By         Bz            Bx         By         Bz

  H      x    39.4579    12.9039    -0.0090      -16.2068   -12.8123     0.0102
  H      y    11.5425    37.3548    -0.0081      -15.3887    -8.6510     0.0097
  H      z    -0.0085    -0.0081    26.4550        0.0096     0.0071    -2.0312

  Diamagnetic contribution:     34.422548         Paramagnetic:      -8.963009


  Antisymmetric and traceless symmetric parts (ppm):
  --------------------------------------------------

                 Bx         By         Bz            Bx         By         Bz

  H      x     0.0000     1.9689     0.0000       -2.2085    -1.8773     0.0011
  H      y    -1.9689     0.0000     0.0013       -1.8773     3.2442     0.0004
  H      z    -0.0000    -0.0013     0.0000        0.0011     0.0004    -1.0358


  Principal values and axes:
  --------------------------

  H          22.667235  =   25.46  -   2.79:     0.954887  0.296969 -0.000684
  H          24.423784  =   25.46  -   1.04:     0.000654  0.000201  1.000000
  H          29.287596  =   25.46  +   3.83:    -0.296969  0.954887  0.000002


  Chemical shielding for H     :
  ==============================


  Shielding constant:     26.5725 ppm
  Anisotropy:              5.8581 ppm
  Asymmetry:               0.9030    

  S parameter:             6.6064 ppm
  A parameter:             2.1860 ppm


  Total shielding tensor (ppm):
  -----------------------------

                    Bx             By             Bz

  H      x    23.41295701     0.20335571     0.00148422
  H      y    -4.16873166    29.92146199     0.00158426
  H      z     0.00263891    -0.00090254    26.38301744


  Diamagnetic and paramagnetic contributions (ppm):
  -------------------------------------------------

                 Bx         By         Bz            Bx         By         Bz

  H      x    30.9649     5.7849    -0.0059       -7.5519    -5.5816     0.0074
  H      y    13.9708    44.9256    -0.0134      -18.1395   -15.0041     0.0150
  H      z    -0.0083    -0.0085    21.9651        0.0110     0.0076     4.4179

  Diamagnetic contribution:     32.618525         Paramagnetic:      -6.046046


  Antisymmetric and traceless symmetric parts (ppm):
  --------------------------------------------------

                 Bx         By         Bz            Bx         By         Bz

  H      x     0.0000     2.1860    -0.0006       -3.1595    -1.9827     0.0021
  H      y    -2.1860     0.0000     0.0012       -1.9827     3.3490     0.0003
  H      z     0.0006    -0.0012     0.0000        0.0021     0.0003    -0.1895


  Principal values and axes:
  --------------------------

  H          22.856538  =   26.57  -   3.72:     0.962804  0.270200 -0.000589
  H          26.383019  =   26.57  -   0.19:     0.000552  0.000213  1.000000
  H          30.477880  =   26.57  +   3.91:    -0.270200  0.962804 -0.000056


  Chemical shielding for H     :
  ==============================


  Shielding constant:     26.2812 ppm
  Anisotropy:              5.0120 ppm
  Asymmetry:               0.9537    

  S parameter:             5.7216 ppm
  A parameter:             1.1278 ppm


  Total shielding tensor (ppm):
  -----------------------------

                    Bx             By             Bz

  H      x    23.23605228    -2.30995109     0.00197180
  H      y    -0.05441253    29.40374594    -0.00056142
  H      z     0.00177036     0.00065443    26.20384009


  Diamagnetic and paramagnetic contributions (ppm):
  -------------------------------------------------

                 Bx         By         Bz            Bx         By         Bz

  H      x    44.0231    -7.6047    -0.0284      -20.7871     5.2948     0.0303
  H      y   -13.7239    25.0127     0.0013       13.6695     4.3910    -0.0019
  H      z    -0.0272    -0.0020    -7.8775        0.0290     0.0027    34.0813

  Diamagnetic contribution:     20.386123         Paramagnetic:       5.895090


  Antisymmetric and traceless symmetric parts (ppm):
  --------------------------------------------------

                 Bx         By         Bz            Bx         By         Bz

  H      x     0.0000    -1.1278     0.0001       -3.0452    -1.1822     0.0019
  H      y     1.1278     0.0000    -0.0006       -1.1822     3.1225     0.0000
  H      z    -0.0001     0.0006     0.0000        0.0019     0.0000    -0.0774


  Principal values and axes:
  --------------------------

  H          23.017223  =   26.28  -   3.26:     0.983296  0.182014 -0.000580
  H          26.203841  =   26.28  -   0.08:     0.000555  0.000190  1.000000
  H          29.622575  =   26.28  +   3.34:    -0.182014  0.983296 -0.000086


                         +--------------------------------+
                         ! Summary of chemical shieldings !
                         +--------------------------------+

@1  Definitions from J. Mason, Solid state Nuc. Magn. Res. 2 (1993), 285

@1 London orbitals (GIAOs) has been used.

@1 atom   shielding       dia      para     skew      span     (aniso     asym)
@1 ----------------------------------------------------------------------------
@1 C        84.6053  333.0740 -248.4687   -0.4790  229.3992  144.5804    1.7600
@1 C       122.5652  354.6802 -232.1150   -0.1844  212.0159  149.2362    1.2620
@1 C       116.9295  354.7203 -237.7908   -0.1632  222.9328  158.1048    1.2301
@1 O      -273.9886  509.0412 -783.0298    0.1964 1441.1648 1151.6329    0.7542
@1 H        22.1088   34.8646  -12.7558   -0.2002    5.0280    3.5194    1.2860
@1 H        25.4595   34.4225   -8.9630    0.4693    6.6204    5.7421    0.4589
@1 H        26.5725   32.6185   -6.0460    0.0746    7.6213    5.8581    0.9030
@1 H        26.2812   20.3861    5.8951    0.0351    6.6054    5.0120    0.9537



                         +--------------------------------+
                         ! Summary of chemical shieldings !
                         +--------------------------------+

@2  Definitions from Smith, Palke, and Grieg, Concepts in Mag. Res. 4 (1992), 107

@2 London orbitals (GIAOs) has been used.

@2 atom   shielding       dia      para     aniso      asym        S        A
@2 ----------------------------------------------------------------------------
@2 C        84.6053  333.0740 -248.4687 -199.5184    0.4493  206.1218    1.7098
@2 C       122.5652  354.6802 -232.1150 -168.7876    0.7683  184.6492    5.4508
@2 C       116.9295  354.7203 -237.7908 -176.2944    0.7936  193.9204    7.9943
@2 O      -273.9886  509.0412 -783.0298 1151.6329    0.7542 1256.0830   13.4746
@2 H        22.1088   34.8646  -12.7558   -4.0226    0.7498    4.3833    2.3215
@2 H        25.4595   34.4225   -8.9630    5.7421    0.4589    5.9402    1.9689
@2 H        26.5725   32.6185   -6.0460    5.8581    0.9030    6.6064    2.1860
@2 H        26.2812   20.3861    5.8951    5.0120    0.9537    5.7216    1.1278



   Interatomic separations (in Angstrom):
   --------------------------------------

            C           C           C           O           H           H     
            ------      ------      ------      ------      ------      ------
 C     :    0.000000
 C     :    1.465700    0.000000
 C     :    2.431231    1.343281    0.000000
 O     :    1.227919    2.383018    3.568007    0.000000
 H     :    1.110397    2.197637    2.633349    2.019650    0.000000
 H     :    2.195429    1.091490    2.139278    2.661125    3.150355    0.000000
 H     :    2.659139    2.125241    1.092234    3.885970    2.381489    3.110036
 H     :    3.440501    2.130137    1.089951    4.498704    3.722962    2.506800

            H           H     
            ------      ------
 H     :    0.000000
 H     :    1.860334    0.000000


  Max    interatomic separation is    4.4987 Angstrom (    8.5013 Bohr)
  between atoms    8 and    4, "H     " and "O     ".

  Min HX interatomic separation is    1.0900 Angstrom (    2.0597 Bohr)

  Min YX interatomic separation is    1.2279 Angstrom (    2.3204 Bohr)


  Bond distances (Angstrom):
  --------------------------

                  atom 1     atom 2       distance
                  ------     ------       --------
  bond distance:  C          C            1.465700
  bond distance:  C          C            1.343281
  bond distance:  O          C            1.227919
  bond distance:  H          C            1.110397
  bond distance:  H          C            1.091490
  bond distance:  H          C            1.092234
  bond distance:  H          C            1.089951


  Bond angles (degrees):
  ----------------------

                  atom 1     atom 2     atom 3         angle
                  ------     ------     ------         -----
  bond angle:     C          C          O            124.190
  bond angle:     C          C          H            116.421
  bond angle:     O          C          H            119.389
  bond angle:     C          C          C            119.821
  bond angle:     C          C          H            117.558
  bond angle:     C          C          H            122.621
  bond angle:     C          C          H            121.182
  bond angle:     C          C          H            121.847
  bond angle:     H          C          H            116.971




 CPU time statistics for ABACUS
 ------------------------------

 RHSIDE     00:00:01      52 %
 REST       00:00:01      48 %

 TOTAL      00:00:02     100 %


 >>>> Total CPU  time used in ABACUS:   2.17 seconds
 >>>> Total wall time used in ABACUS:   2.16 seconds


                   .-------------------------------------------.
                   | End of Static Property Section (ABACUS) - |
                   `-------------------------------------------'

 >>>> Total CPU  time used in DALTON:   2.90 seconds
 >>>> Total wall time used in DALTON:   2.90 seconds

 
     Date and time (Linux)  : Sat Nov 29 00:36:04 2014
     Host name              : foeroyar                                
