

     ************************************************************************
     *************** Dalton - An Electronic Structure Program ***************
     ************************************************************************

    This is output from DALTON release Dalton2017.alpha (2016)
         ( Web site: http://daltonprogram.org )

   ----------------------------------------------------------------------------

    NOTE:
     
    Dalton is an experimental code for the evaluation of molecular
    properties using (MC)SCF, DFT, CI, and CC wave functions.
    The authors accept no responsibility for the performance of
    the code or for the correctness of the results.
     
    The code (in whole or part) is provided under a licence and
    is not to be reproduced for further distribution without
    the written permission of the authors or their representatives.
     
    See the home page "http://daltonprogram.org" for further information.
     
    If results obtained with this code are published,
    the appropriate citations would be both of:
     
       K. Aidas, C. Angeli, K. L. Bak, V. Bakken, R. Bast,
       L. Boman, O. Christiansen, R. Cimiraglia, S. Coriani,
       P. Dahle, E. K. Dalskov, U. Ekstroem,
       T. Enevoldsen, J. J. Eriksen, P. Ettenhuber, B. Fernandez,
       L. Ferrighi, H. Fliegl, L. Frediani, K. Hald, A. Halkier,
       C. Haettig, H. Heiberg, T. Helgaker, A. C. Hennum,
       H. Hettema, E. Hjertenaes, S. Hoest, I.-M. Hoeyvik,
       M. F. Iozzi, B. Jansik, H. J. Aa. Jensen, D. Jonsson,
       P. Joergensen, J. Kauczor, S. Kirpekar,
       T. Kjaergaard, W. Klopper, S. Knecht, R. Kobayashi, H. Koch,
       J. Kongsted, A. Krapp, K. Kristensen, A. Ligabue,
       O. B. Lutnaes, J. I. Melo, K. V. Mikkelsen, R. H. Myhre,
       C. Neiss, C. B. Nielsen, P. Norman, J. Olsen,
       J. M. H. Olsen, A. Osted, M. J. Packer, F. Pawlowski,
       T. B. Pedersen, P. F. Provasi, S. Reine, Z. Rinkevicius,
       T. A. Ruden, K. Ruud, V. Rybkin, P. Salek, C. C. M. Samson,
       A. Sanchez de Meras, T. Saue, S. P. A. Sauer,
       B. Schimmelpfennig, K. Sneskov, A. H. Steindal,
       K. O. Sylvester-Hvid, P. R. Taylor, A. M. Teale,
       E. I. Tellgren, D. P. Tew, A. J. Thorvaldsen, L. Thoegersen,
       O. Vahtras, M. A. Watson, D. J. D. Wilson, M. Ziolkowski
       and H. Agren,
       "The Dalton quantum chemistry program system",
       WIREs Comput. Mol. Sci. 2014, 4:269–284 (doi: 10.1002/wcms.1172)
     
    and
     
       Dalton, a Molecular Electronic Structure Program,
       Release Dalton2017.alpha (2016), see http://daltonprogram.org
   ----------------------------------------------------------------------------

    Authors in alphabetical order (major contribution(s) in parenthesis):

  Kestutis Aidas,           Vilnius University,           Lithuania   (QM/MM)
  Celestino Angeli,         University of Ferrara,        Italy       (NEVPT2)
  Keld L. Bak,              UNI-C,                        Denmark     (AOSOPPA, non-adiabatic coupling, magnetic properties)
  Vebjoern Bakken,          University of Oslo,           Norway      (DALTON; geometry optimizer, symmetry detection)
  Radovan Bast,             UiT The Arctic U. of Norway,  Norway      (DALTON installation and execution frameworks)
  Pablo Baudin,             University of Valencia,       Spain       (Cholesky excitation energies)
  Linus Boman,              NTNU,                         Norway      (Cholesky decomposition and subsystems)
  Ove Christiansen,         Aarhus University,            Denmark     (CC module)
  Renzo Cimiraglia,         University of Ferrara,        Italy       (NEVPT2)
  Sonia Coriani,            University of Trieste,        Italy       (CC module, MCD in RESPONS)
  Janusz Cukras,            University of Trieste,        Italy       (MChD in RESPONS)
  Paal Dahle,               University of Oslo,           Norway      (Parallelization)
  Erik K. Dalskov,          UNI-C,                        Denmark     (SOPPA)
  Thomas Enevoldsen,        Univ. of Southern Denmark,    Denmark     (SOPPA)
  Janus J. Eriksen,         Aarhus University,            Denmark     (Polarizable embedding model, TDA)
  Rasmus Faber,             University of Copenhagen,     Denmark     (Vib.avg. NMR with SOPPA, parallel AO-SOPPA)
  Berta Fernandez,          U. of Santiago de Compostela, Spain       (doublet spin, ESR in RESPONS)
  Lara Ferrighi,            Aarhus University,            Denmark     (PCM Cubic response)
  Heike Fliegl,             University of Oslo,           Norway      (CCSD(R12))
  Luca Frediani,            UiT The Arctic U. of Norway,  Norway      (PCM)
  Bin Gao,                  UiT The Arctic U. of Norway,  Norway      (Gen1Int library)
  Christof Haettig,         Ruhr-University Bochum,       Germany     (CC module)
  Kasper Hald,              Aarhus University,            Denmark     (CC module)
  Asger Halkier,            Aarhus University,            Denmark     (CC module)
  Frederik Beyer Hansen,    University of Copenhagen,     Denmark     (Parallel AO-SOPPA)
  Erik D. Hedegaard,        Univ. of Southern Denmark,    Denmark     (Polarizable embedding model, QM/MM)
  Hanne Heiberg,            University of Oslo,           Norway      (geometry analysis, selected one-electron integrals)
  Trygve Helgaker,          University of Oslo,           Norway      (DALTON; ABACUS, ERI, DFT modules, London, and much more)
  Alf Christian Hennum,     University of Oslo,           Norway      (Parity violation)
  Hinne Hettema,            University of Auckland,       New Zealand (quadratic response in RESPONS; SIRIUS supersymmetry)
  Eirik Hjertenaes,         NTNU,                         Norway      (Cholesky decomposition)
  Maria Francesca Iozzi,    University of Oslo,           Norway      (RPA)
  Brano Jansik              Technical Univ. of Ostrava    Czech Rep.  (DFT cubic response)
  Hans Joergen Aa. Jensen,  Univ. of Southern Denmark,    Denmark     (DALTON; SIRIUS, RESPONS, ABACUS modules, London, and much more)
  Dan Jonsson,              UiT The Arctic U. of Norway,  Norway      (cubic response in RESPONS module)
  Poul Joergensen,          Aarhus University,            Denmark     (RESPONS, ABACUS, and CC modules)
  Maciej Kaminski,          University of Warsaw,         Poland      (CPPh in RESPONS)
  Joanna Kauczor,           Linkoeping University,        Sweden      (Complex polarization propagator (CPP) module)
  Sheela Kirpekar,          Univ. of Southern Denmark,    Denmark     (Mass-velocity & Darwin integrals)
  Wim Klopper,              KIT Karlsruhe,                Germany     (R12 code in CC, SIRIUS, and ABACUS modules)
  Stefan Knecht,            ETH Zurich,                   Switzerland (Parallel CI and MCSCF)
  Rika Kobayashi,           Australian National Univ.,    Australia   (DIIS in CC, London in MCSCF)
  Henrik Koch,              NTNU,                         Norway      (CC module, Cholesky decomposition)
  Jacob Kongsted,           Univ. of Southern Denmark,    Denmark     (Polarizable embedding model, QM/MM)
  Andrea Ligabue,           University of Modena,         Italy       (CTOCD, AOSOPPA)
  Nanna H. List             Univ. of Southern Denmark,    Denmark     (Polarizable embedding model)
  Ola B. Lutnaes,           University of Oslo,           Norway      (DFT Hessian)
  Juan I. Melo,             University of Buenos Aires,   Argentina   (LRESC, Relativistic Effects on NMR Shieldings)
  Kurt V. Mikkelsen,        University of Copenhagen,     Denmark     (MC-SCRF and QM/MM)
  Rolf H. Myhre,            NTNU,                         Norway      (Cholesky, subsystems and ECC2)
  Christian Neiss,          Univ. Erlangen-Nuernberg,     Germany     (CCSD(R12))
  Christian B. Nielsen,     University of Copenhagen,     Denmark     (QM/MM)
  Patrick Norman,           Linkoeping University,        Sweden      (Cubic response and complex frequency response in RESPONS)
  Jeppe Olsen,              Aarhus University,            Denmark     (SIRIUS CI/density modules)
  Jogvan Magnus H. Olsen,   Univ. of Southern Denmark,    Denmark     (Polarizable embedding model, QM/MM)
  Anders Osted,             Copenhagen University,        Denmark     (QM/MM)
  Martin J. Packer,         University of Sheffield,      UK          (SOPPA)
  Filip Pawlowski,          Kazimierz Wielki University,  Poland      (CC3)
  Morten N. Pedersen,       Univ. of Southern Denmark,    Denmark     (Polarizable embedding model)
  Thomas B. Pedersen,       University of Oslo,           Norway      (Cholesky decomposition)
  Patricio F. Provasi,      University of Northeastern,   Argentina   (Analysis of coupling constants in localized orbitals)
  Zilvinas Rinkevicius,     KTH Stockholm,                Sweden      (open-shell DFT, ESR)
  Elias Rudberg,            KTH Stockholm,                Sweden      (DFT grid and basis info)
  Torgeir A. Ruden,         University of Oslo,           Norway      (Numerical derivatives in ABACUS)
  Kenneth Ruud,             UiT The Arctic U. of Norway,  Norway      (DALTON; ABACUS magnetic properties and much more)
  Pawel Salek,              KTH Stockholm,                Sweden      (DALTON; DFT code)
  Claire C. M. Samson       University of Karlsruhe       Germany     (Boys localization, r12 integrals in ERI)
  Alfredo Sanchez de Meras, University of Valencia,       Spain       (CC module, Cholesky decomposition)
  Trond Saue,               Paul Sabatier University,     France      (direct Fock matrix construction)
  Stephan P. A. Sauer,      University of Copenhagen,     Denmark     (SOPPA(CCSD), SOPPA prop., AOSOPPA, vibrational g-factors)
  Bernd Schimmelpfennig,    Forschungszentrum Karlsruhe,  Germany     (AMFI module)
  Kristian Sneskov,         Aarhus University,            Denmark     (Polarizable embedding model, QM/MM)
  Arnfinn H. Steindal,      UiT The Arctic U. of Norway,  Norway      (parallel QM/MM, Polarizable embedding model)
  Casper Steinmann,         Univ. of Southern Denmark,    Denmark     (QFIT, Polarizable embedding model)
  K. O. Sylvester-Hvid,     University of Copenhagen,     Denmark     (MC-SCRF)
  Peter R. Taylor,          VLSCI/Univ. of Melbourne,     Australia   (Symmetry handling ABACUS, integral transformation)
  Andrew M. Teale,          University of Nottingham,     England     (DFT-AC, DFT-D)
  David P. Tew,             University of Bristol,        England     (CCSD(R12))
  Olav Vahtras,             KTH Stockholm,                Sweden      (triplet response, spin-orbit, ESR, TDDFT, open-shell DFT)
  David J. Wilson,          La Trobe University,          Australia   (DFT Hessian and DFT magnetizabilities)
  Hans Agren,               KTH Stockholm,                Sweden      (SIRIUS module, RESPONS, MC-SCRF solvation model)
 --------------------------------------------------------------------------------

     Date and time (Linux)  : Wed Mar 30 19:03:06 2016
     Host name              : s24p28.deic.sdu.dk                      

 * Work memory size             :    64000000 =  488.28 megabytes.

 * Directories for basis set searches:
   1) /gpfs/gss1/work/sdujk/foeroyingur/Programs/dalton/build/pe/develop/test/pehf_lao
   2) /gpfs/gss1/work/sdujk/foeroyingur/Programs/dalton/build/pe/develop/basis


Compilation information
-----------------------

 Who compiled             | foeroyingur
 Host                     | fe1.deic.sdu.dk
 System                   | Linux-3.10.0-123.20.1.el7.x86_64
 CMake generator          | Unix Makefiles
 Processor                | x86_64
 64-bit integers          | OFF
 MPI                      | ON
 Fortran compiler         | /opt/sys/apps/intel/2015.04/impi_latest/intel64/bi
                          | n/mpiifort
 Fortran compiler version | unknown
 C compiler               | /opt/sys/apps/intel/2015.04/impi_latest/intel64/bi
                          | n/mpiicc
 C compiler version       | unknown
 C++ compiler             | /opt/sys/apps/intel/2015.04/impi_latest/intel64/bi
                          | n/mpiicpc
 C++ compiler version     | unknown
 Static linking           | OFF
 Last Git revision        | f680f13ead38ce3387d61c0eb1466454a86e22ae
 Git branch               | [32mpe/develop[m
 Configuration time       | 2016-03-29 09:08:38.287996

 * MPI run using 24 processes.


   Content of the .dal input file
 ----------------------------------

**DALTON                                          
.RUN PROPERTIES                                   
.PEQM                                             
*PEQM                                             
.SOLVAT                                           
.FIXSOL                                           
.DIIS                                             
**WAVE FUNCTIONS                                  
.HF                                               
**PROPERTIES                                      
.SHIELD                                           
**END OF                                          


   Content of the .mol file
 ----------------------------

BASIS                                                                          
STO-3G                                                                         
Formaldehyde                                                                   
------------------------                                                       
AtomTypes=3 NoSymmetry Angstrom                                                
Charge=6.0 Atoms=1                                                             
C           -1.588367    -.770650     .029109                                  
Charge=8.0 Atoms=1                                                             
O           -1.657083     .436069    -.009750                                  
Charge=1.0 Atoms=2                                                             
H           -.620668   -1.294822      .054251                                  
H           -2.508043   -1.382001     .040282                                  


       *******************************************************************
       *********** Output from DALTON general input processing ***********
       *******************************************************************

 --------------------------------------------------------------------------------
   Overall default print level:    0
   Print level for DALTON.STAT:    1

    Parallel calculation using MPI
    AO-direct calculation (in sections where implemented)
    HERMIT 1- and 2-electron integral sections will be executed
    "Old" integral transformation used (limited to max 255 basis functions)
    Wave function sections will be executed (SIRIUS module)
    Static molecular property section will be executed (ABACUS module)
    Environment is modeled using polarizable embedding scheme (PE library)
 --------------------------------------------------------------------------------


   ****************************************************************************
   *************** Output of molecule and basis set information ***************
   ****************************************************************************


    The two title cards from your ".mol" input:
    ------------------------------------------------------------------------
 1: Formaldehyde                                                            
 2: ------------------------                                                
    ------------------------------------------------------------------------

  Coordinates are entered in Angstrom and converted to atomic units.
          - Conversion factor : 1 bohr = 0.52917721 A

  Atomic type no.    1
  --------------------
  Nuclear charge:   6.00000
  Number of symmetry independent centers:    1
  Number of basis sets to read;    2
  Basis set file used for this atomic type with Z =   6 :
     "/gpfs/gss1/work/sdujk/foeroyingur/Programs/dalton/build/pe/develop/basis/STO-3G"

  Atomic type no.    2
  --------------------
  Nuclear charge:   8.00000
  Number of symmetry independent centers:    1
  Number of basis sets to read;    2
  Basis set file used for this atomic type with Z =   8 :
     "/gpfs/gss1/work/sdujk/foeroyingur/Programs/dalton/build/pe/develop/basis/STO-3G"

  Atomic type no.    3
  --------------------
  Nuclear charge:   1.00000
  Number of symmetry independent centers:    2
  Number of basis sets to read;    2
  Basis set file used for this atomic type with Z =   1 :
     "/gpfs/gss1/work/sdujk/foeroyingur/Programs/dalton/build/pe/develop/basis/STO-3G"


                         SYMGRP: Point group information
                         -------------------------------

@    Point group: C1 


                                 Isotopic Masses
                                 ---------------

                           C          12.000000
                           O          15.994915
                           H           1.007825
                           H           1.007825

                       Total mass:    30.010565 amu
                       Natural abundance:  98.633 %

 Center-of-mass coordinates (a.u.):   -3.067740   -0.312997    0.018175


  Atoms and basis sets
  --------------------

  Number of atom types :    3
  Total number of atoms:    4

  Basis set used is "STO-3G" from the basis set library.

  label    atoms   charge   prim   cont     basis
  ----------------------------------------------------------------------
  C           1    6.0000    15     5      [6s3p|2s1p]                                        
  O           1    8.0000    15     5      [6s3p|2s1p]                                        
  H           2    1.0000     3     1      [3s|1s]                                            
  ----------------------------------------------------------------------
  total:      4   16.0000    36    12
  ----------------------------------------------------------------------

  Threshold for neglecting AO integrals:  1.00D-12


  Cartesian Coordinates (a.u.)
  ----------------------------

  Total number of coordinates:   12
  C       :     1  x  -3.0015786160    2  y  -1.4563174382    3  z   0.0550080378
  O       :     4  x  -3.1314330364    5  y   0.8240509816    6  z  -0.0184248297
  H       :     7  x  -1.1728925345    8  y  -2.4468589606    9  z   0.1025195320
  H       :    10  x  -4.7395143797   11  y  -2.6116033945   12  z   0.0761219478


   Interatomic separations (in Angstrom):
   --------------------------------------

            C           O           H           H     
            ------      ------      ------      ------
 C     :    0.000000
 O     :    1.209298    0.000000
 H     :    1.100831    2.018474    0.000000
 H     :    1.104391    2.007988    1.889439    0.000000


  Max    interatomic separation is    2.0185 Angstrom (    3.8144 Bohr)
  between atoms    3 and    2, "H     " and "O     ".

  Min HX interatomic separation is    1.1008 Angstrom (    2.0803 Bohr)

  Min YX interatomic separation is    1.2093 Angstrom (    2.2852 Bohr)


  Bond distances (Angstrom):
  --------------------------

                  atom 1     atom 2       distance
                  ------     ------       --------
  bond distance:  O          C            1.209298
  bond distance:  H          C            1.100831
  bond distance:  H          C            1.104391


  Bond angles (degrees):
  ----------------------

                  atom 1     atom 2     atom 3         angle
                  ------     ------     ------         -----
  bond angle:     O          C          H            121.724
  bond angle:     O          C          H            120.357
  bond angle:     H          C          H            117.919




 Principal moments of inertia (u*A**2) and principal axes
 --------------------------------------------------------

   IA       1.798871         -0.056827    0.997867   -0.032124
   IB      13.009178          0.998345    0.057081    0.007042
   IC      14.808049         -0.008861    0.031671    0.999459


 Rotational constants
 --------------------

@    The molecule is planar.

               A                   B                   C

         280942.3015          38847.8806          34128.6681 MHz
            9.371226            1.295826            1.138410 cm-1


@  Nuclear repulsion energy :   31.249215315972 Hartree

  Reading potential input file for polarizable embedding calculation
 
    .------------------------------------------------.
    | Information from polarizable embedding library |
    `------------------------------------------------´

      Number of classical sites:      6

      Multipole moments upto 2nd order.

      Dipole-dipole polarizabilities.

      Iterative DIIS solver for induced moments will be used
      with convergence threshold: 1.0E-08

      Continuum solvation in H2O solvent.

      Number of surface points:     272

      Surface area (in Aa**2):     126.455
      Total charge of classical region:   -0.0000
 


                     .---------------------------------------.
                     | Starting in Integral Section (HERMIT) |
                     `---------------------------------------'



 ***************************************************************************************
 ****************** Output from **INTEGRALS input processing (HERMIT) ******************
 ***************************************************************************************


 - Using defaults, no **INTEGRALS input found

 Default print level:        1

 * Nuclear model: Point charge

 Calculation of one-electron Hamiltonian integrals.

 Center of mass  (bohr):     -3.067740315293     -0.312997395263      0.018174673399
 Operator center (bohr):      0.000000000000      0.000000000000      0.000000000000
 Gauge origin    (bohr):      0.000000000000      0.000000000000      0.000000000000
 Dipole origin   (bohr):      0.000000000000      0.000000000000      0.000000000000


     ************************************************************************
     ************************** Output from HERINT **************************
     ************************************************************************

  Total CPU  time used in HERMIT:   0.01 seconds
  Total wall time used in HERMIT:   0.01 seconds


                        .----------------------------------.
                        | End of Integral Section (HERMIT) |
                        `----------------------------------'



                   .--------------------------------------------.
                   | Starting in Wave Function Section (SIRIUS) |
                   `--------------------------------------------'


 *** Output from Huckel module :

     Using EWMO model:          T
     Using EHT  model:          F
     Number of Huckel orbitals each symmetry:   12

 EWMO - Energy Weighted Maximum Overlap - is a Huckel type method,
        which normally is better than Extended Huckel Theory.
 Reference: Linderberg and Ohrn, Propagators in Quantum Chemistry (Wiley, 1973)

 Huckel EWMO eigenvalues for symmetry :  1
          -20.684762     -11.351957      -1.632119      -1.046130      -0.813248
           -0.702067      -0.605910      -0.491826      -0.321033      -0.161573
           -0.131670      -0.108806

 **********************************************************************
 *SIRIUS* a direct, restricted step, second order MCSCF program       *
 **********************************************************************

 
     Date and time (Linux)  : Wed Mar 30 19:03:06 2016
     Host name              : s24p28.deic.sdu.dk                      

 Title lines from ".mol" input file:
     Formaldehyde                                                            
     ------------------------                                                

 Print level on unit LUPRI =   2 is   0
 Print level on unit LUW4  =   2 is   5

@    Restricted, closed shell Hartree-Fock calculation.
 Fock matrices are calculated directly and in parallel without use of integrals on disk.

 Initial molecular orbitals are obtained according to
 ".MOSTART EWMO  " input option

@    QM part is embedded in an environment :

@         Model: PE

     Wave function specification
     ============================

     Wave function environment is modeled using the
     polarizable embedding model (PE library).

@    Wave function type        --- PE-HF ---
@    Number of closed shell electrons          16
@    Number of electrons in active shells       0
@    Total charge of the molecule               0

@    Spin multiplicity and 2 M_S                1         0
@    Total number of symmetries                 1 (point group: C1 )
@    Reference state symmetry                   1 (irrep name : A  )

     Orbital specifications
     ======================
@    Abelian symmetry species          All |    1
@                                          |  A  
                                       --- |  ---
@    Occupied SCF orbitals               8 |    8
@    Secondary orbitals                  4 |    4
@    Total number of orbitals           12 |   12
@    Number of basis functions          12 |   12

     Optimization information
     ========================
@    Number of configurations                 1
@    Number of orbital rotations             32
     ------------------------------------------
@    Total number of variables               33

     Maximum number of Fock   iterations      0
     Maximum number of DIIS   iterations     60
     Maximum number of QC-SCF iterations     60
     Threshold for SCF convergence     1.00D-05


 ***********************************************
 ***** DIIS acceleration of SCF iterations *****
 ***********************************************

 C1-DIIS algorithm; max error vectors =    8

 Iter      Total energy     Embedding energy      Error norm     Delta(E)
 -----------------------------------------------------------------------------
   1  Screening settings (-IFTHRS, JTDIIS, DIFDEN, times)   -6    1    F  3.35D-01  3.34D-01
@  1  -112.183221255     -5.479550230203E-02    1.54208D+00   -1.12D+02
      Virial theorem: -V/T =      2.002848
@      MULPOP C       1.10; O      -0.82; H      -0.14; H      -0.14; 
   1  Level shift: doubly occupied orbital energies shifted by -2.00D-01
 -----------------------------------------------------------------------------
   2  Screening settings (-IFTHRS, JTDIIS, DIFDEN, times)   -6    2    F  2.22D-02  2.20D-02
@  2  -112.371650009     -2.718940469910E-02    4.43016D-01   -1.88D-01
      Virial theorem: -V/T =      2.009873
@      MULPOP C      -0.13; O      -0.06; H       0.10; H       0.08; 
   2  Level shift: doubly occupied orbital energies shifted by -1.00D-01
 -----------------------------------------------------------------------------
   3  Screening settings (-IFTHRS, JTDIIS, DIFDEN, times)   -7    3    F  1.81D-02  1.80D-02
@  3  -112.383271744     -3.135152805897E-02    6.41757D-02   -1.16D-02
      Virial theorem: -V/T =      2.008381
@      MULPOP C       0.07; O      -0.23; H       0.09; H       0.07; 
   3  Level shift: doubly occupied orbital energies shifted by -2.50D-02
 -----------------------------------------------------------------------------
   4  Screening settings (-IFTHRS, JTDIIS, DIFDEN, times)   -8    4    F  1.08D-02  1.10D-02
@  4  -112.383592762     -3.144341432675E-02    1.23404D-02   -3.21D-04
      Virial theorem: -V/T =      2.008142
@      MULPOP C       0.08; O      -0.25; H       0.09; H       0.07; 
 -----------------------------------------------------------------------------
   5  Screening settings (-IFTHRS, JTDIIS, DIFDEN, times)   -9    5    F  1.06D-02  1.00D-02
@  5  -112.383611528     -3.140932343775E-02    3.80999D-03   -1.88D-05
      Virial theorem: -V/T =      2.008136
@      MULPOP C       0.08; O      -0.25; H       0.09; H       0.07; 
 -----------------------------------------------------------------------------
   6  Screening settings (-IFTHRS, JTDIIS, DIFDEN, times)   -9    6    F  1.09D-02  1.10D-02
@  6  -112.383614484     -3.138187543669E-02    4.94537D-04   -2.96D-06
      Virial theorem: -V/T =      2.008148
@      MULPOP C       0.08; O      -0.25; H       0.09; H       0.07; 
 -----------------------------------------------------------------------------
   7  Screening settings (-IFTHRS, JTDIIS, DIFDEN, times)  -10    7    F  1.08D-02  1.10D-02
@  7  -112.383614528     -3.138220723706E-02    1.02614D-04   -4.45D-08
      Virial theorem: -V/T =      2.008148
@      MULPOP C       0.08; O      -0.25; H       0.09; H       0.07; 
 -----------------------------------------------------------------------------
   8  Screening settings (-IFTHRS, JTDIIS, DIFDEN, times)  -10    8    F  1.07D-02  1.00D-02
@  8  -112.383614532     -3.138181223937E-02    5.68410D-05   -3.99D-09
      Virial theorem: -V/T =      2.008149
@      MULPOP C       0.08; O      -0.25; H       0.09; H       0.07; 
 -----------------------------------------------------------------------------
   9  Screening settings (-IFTHRS, JTDIIS, DIFDEN, times)  -10    9    F  1.06D-02  1.10D-02
@  9  -112.383614534     -3.138189127029E-02    1.62620D-05   -1.98D-09
      Virial theorem: -V/T =      2.008149
@      MULPOP C       0.08; O      -0.25; H       0.09; H       0.07; 
 -----------------------------------------------------------------------------
  10  Screening settings (-IFTHRS, JTDIIS, DIFDEN, times)  -10   10    F  1.08D-02  1.10D-02
@ 10  -112.383614535     -3.138190841098E-02    3.30830D-06   -1.47D-10

@ *** DIIS converged in  10 iterations !
@     Converged SCF energy, gradient:   -112.383614534593    3.31D-06
    - total time used in SIRFCK :              0.00 seconds


 *** SCF orbital energy analysis ***
   (incl. contribution from polarizable embedding potential)

 Number of electrons :   16
 Orbital occupations :    8

 Sym       Hartree-Fock orbital energies

1 A     -20.30327336   -11.12988319    -1.34965066    -0.80351963    -0.64107000
         -0.55582653    -0.45325538    -0.36098970     0.28099115     0.62927421
          0.74938557     0.91815605

    E(LUMO) :     0.28099115 au (symmetry 1)
  - E(HOMO) :    -0.36098970 au (symmetry 1)
  ------------------------------------------
    gap     :     0.64198085 au

    .--------------------------------------------------.
    | Final results from polarizable embedding library |
    `--------------------------------------------------´

        Polarizable embedding energy contributions:
       ---------------------------------------------

       Electrostatic contributions:
            Electronic                -0.208860379097
            Nuclear                    0.196501001970
            Multipole                  0.000000000000
            Total                     -0.012359377127

       Polarization contributions:
            Electronic                -0.043831211825
            Nuclear                    0.041524508596
            Multipole                 -0.005820339534
            Total                     -0.008127042763

       Continuum solvation contributions:
            Electronic                 0.017429395620
            Nuclear                   -0.017528769205
            Multipole                 -0.010796114938
            Total                     -0.010895488523

       Total PE energy:            -0.031381908413

 --- Writing SIRIFC interface file

 CPU and wall time for SCF :       0.810       0.840


                       .-----------------------------------.
                       | --- Final results from SIRIUS --- |
                       `-----------------------------------'


@    Spin multiplicity:           1
@    Spatial symmetry:            1 ( irrep  A   in C1  )
@    Total charge of molecule:    0

@    Final HF energy:            -112.383614534593                 
@    Nuclear repulsion:            31.249215315972
@    Electronic energy:          -143.601447942155
@    Embedding energy:             -0.031381908411

@    Final gradient norm:           0.000003308299

 
     Date and time (Linux)  : Wed Mar 30 19:03:07 2016
     Host name              : s24p28.deic.sdu.dk                      

File label for MO orbitals:  30Mar16   FOCKDIIS

 (Only coefficients > 0.0100 are printed.)

 Molecular orbitals for symmetry species 1  (A  )
 ------------------------------------------------

    Orbital         1        2        3        4        5        6        7
   1 C   :1s    -0.0005  -0.9926  -0.1223   0.1884  -0.0028  -0.0229  -0.0001
   2 C   :1s     0.0074  -0.0329   0.2741  -0.5892   0.0114   0.0663   0.0003
   3 C   :2px   -0.0004   0.0001  -0.0077  -0.0067   0.5318   0.0010   0.0039
   4 C   :2py    0.0064  -0.0009   0.1581   0.2082   0.0059   0.4561  -0.0178
   5 C   :2pz   -0.0002   0.0000  -0.0052  -0.0067   0.0040  -0.0135  -0.5913
   6 O   :1s    -0.9942  -0.0001  -0.2203  -0.1022   0.0002   0.0869   0.0003
   7 O   :1s    -0.0262   0.0059   0.7712   0.4497   0.0040  -0.4693  -0.0016
   8 O   :2px   -0.0004   0.0001   0.0196   0.0055   0.4643   0.0303   0.0080
   9 O   :2py    0.0057  -0.0016  -0.1645   0.1969   0.0474  -0.6758  -0.0233
  10 O   :2pz   -0.0002   0.0001   0.0050  -0.0067   0.0016   0.0236  -0.6901
  11 H   :1s    -0.0002   0.0065   0.0301  -0.2498   0.2878  -0.1481  -0.0015
  12 H   :1s    -0.0003   0.0065   0.0304  -0.2582  -0.2756  -0.1855   0.0009

    Orbital         8        9       10       11       12
   1 C   :1s     0.0004  -0.0000   0.2013   0.0111   0.1063
   2 C   :1s     0.0002   0.0001  -1.2622  -0.0743  -0.7186
   3 C   :2px    0.2109  -0.0075   0.0216  -1.1502   0.1092
   4 C   :2py   -0.0002   0.0265   0.4848  -0.0829  -1.1474
   5 C   :2pz   -0.0006   0.8344  -0.0151  -0.0077   0.0372
   6 O   :1s    -0.0051   0.0001  -0.0223  -0.0047  -0.1186
   7 O   :1s     0.0239  -0.0004   0.1216   0.0340   0.8884
   8 O   :2px   -0.8601   0.0058  -0.0023   0.3134   0.0420
   9 O   :2py   -0.0307  -0.0244  -0.1934  -0.0257  -0.9341
  10 O   :2pz   -0.0079  -0.7546   0.0061   0.0038   0.0300
  11 H   :1s     0.3551   0.0004   0.8687   0.8781  -0.1332
  12 H   :1s    -0.3598  -0.0005   0.9206  -0.8178  -0.0596

  Total CPU  time used in SIRIUS :   0.81 seconds
  Total wall time used in SIRIUS :   0.85 seconds

 
     Date and time (Linux)  : Wed Mar 30 19:03:07 2016
     Host name              : s24p28.deic.sdu.dk                      


                     .---------------------------------------.
                     | End of Wave Function Section (SIRIUS) |
                     `---------------------------------------'



        *****************************************************************
        ******** Output from **PROPE input processing for ABACUS ********
        *****************************************************************



 The following molecular properties will be calculated in this run:
 ------------------------------------------------------------------

 Default print level:        0

      Nuclear magnetic shieldings
      Direct calculation - no two-electron integrals written or read.
      Two-electron integrals will be calculated in parallel
      Natural orbital connection is used
      for perturbation dependent basis sets.
      Environment is modeled using the polarizable embedding scheme (PE library).

 Center of mass dipole origin  :   -3.067740   -0.312997    0.018175

 Center of mass gauge origin   :   -3.067740   -0.312997    0.018175


                 .------------------------------------------------.
                 | Starting in Static Property Section (ABACUS) - |
                 `------------------------------------------------'


 
     Date and time (Linux)  : Wed Mar 30 19:03:07 2016
     Host name              : s24p28.deic.sdu.dk                      
    Convergence for MAGFLD.1. Last residual and threshold:   0.00008   0.00010
    Convergence for MAGFLD.2. Last residual and threshold:   0.00010   0.00010
    Convergence for MAGFLD.3. Last residual and threshold:   0.00005   0.00010


   ***************************************************************************
   ************************ FINAL RESULTS from ABACUS ************************
   ***************************************************************************


 
     Date and time (Linux)  : Wed Mar 30 19:03:08 2016
     Host name              : s24p28.deic.sdu.dk                      


                             Molecular geometry (au)
                             -----------------------

 C         -3.0015786160           -1.4563174382            0.0550080378
 O         -3.1314330364            0.8240509816           -0.0184248297
 H         -1.1728925345           -2.4468589606            0.1025195320
 H         -4.7395143797           -2.6116033945            0.0761219478





                        Molecular wave function and energy
                        ----------------------------------

     Spatial symmetry   1 ( A   )
     Spin multiplicity  1
     2 * M_S            0
     State number       1
     Total charge       0

     Total energy       -112.3836145346 au (Hartrees)
                         -3058.11371401 eV
                           -295063.1345 kJ/mol
                            -70521.7817 kcal/mol


                   Scalar Breit-Pauli relativistic corrections
                   -------------------------------------------

     Darwin correction:                          0.1684586485 au
     Mass-velocity correction:                  -0.2161956004 au

     Total relativistic correction:             -0.0477369519 au ( 0.0425%)
     Non-relativistic + relativistic energy:  -112.4313514865 au



      (Note that these corrections are NOT included in the results below.)


                                  Dipole moment
                                  -------------

                 au               Debye          C m (/(10**-30)
              0.766166           1.947399           6.495822


                             Dipole moment components
                             ------------------------

                 au               Debye          C m (/(10**-30)

      x      0.07163166         0.18206951         0.60731850
      y     -0.76237494        -1.93776369        -6.46368394
      z      0.02575033         0.06545079         0.21832035


   Units:   1 a.u. =   2.54175 Debye 
            1 a.u. =   8.47835 (10**-30) C m (SI)




  ******************************************************************************
  ************************ ABACUS - CHEMICAL SHIELDINGS ************************
  ******************************************************************************



                 Shielding tensors in symmetry coordinates (ppm)
                 -----------------------------------------------

                       Bx             By             Bz

        C    x   -44.02322337   -16.53254525    -1.40874141
        C    y    -8.52710834   120.30045386     2.24016665
        C    z    -1.79389660     2.20404890   192.49399599

        O    x  -409.38447839    14.64173451    -7.87589516
        O    y     5.91521988 -1017.19070729    49.33122455
        O    z    -7.08552203    49.75389880   513.40610928

        H    x    20.16725774    -3.19338442     0.05965375
        H    y     2.97827249    20.85994704     0.18941188
        H    z    -0.14987502     0.13359533    25.85539607

        H    x    20.62084231     2.18398718    -0.11176420
        H    y    -3.27983730    20.74141199     0.15533977
        H    z     0.05280313     0.20050160    26.33136023





  Chemical shielding for C     :
  ==============================


  Shielding constant:     89.5904 ppm
  Anisotropy:           -201.8582 ppm
  Asymmetry:               0.5306    

  S parameter:           211.1179 ppm
  A parameter:             4.0074 ppm


  Total shielding tensor (ppm):
  -----------------------------

                    Bx             By             Bz

  C      x   -44.02322337   -16.53254525    -1.40874141
  C      y    -8.52710834   120.30045386     2.24016665
  C      z    -1.79389660     2.20404890   192.49399599


  Diamagnetic and paramagnetic contributions (ppm):
  -------------------------------------------------

                 Bx         By         Bz            Bx         By         Bz

  C      x   321.3659     0.3582    -0.4446     -365.3891   -16.8907    -0.9642
  C      y     0.8252   319.6959     1.8435       -9.3523  -199.3955     0.3966
  C      z    -0.5299     1.8573   378.0513       -1.2640     0.3467  -185.5573

  Diamagnetic contribution:    339.704366         Paramagnetic:    -250.113957


  Antisymmetric and traceless symmetric parts (ppm):
  --------------------------------------------------

                 Bx         By         Bz            Bx         By         Bz

  C      x     0.0000    -4.0027     0.1926     -133.6136   -12.5298    -1.6013
  C      y     4.0027     0.0000     0.0181      -12.5298    30.7100     2.2221
  C      z    -0.1926    -0.0181     0.0000       -1.6013     2.2221   102.9036


  Principal values and axes:
  --------------------------

  C         192.579145  =   89.59  + 102.99:    -0.008469  0.032195  0.999446
  C         121.173821  =   89.59  +  31.58:    -0.075274  0.996625 -0.032742
  C         -44.981740  =   89.59  - 134.57:     0.997127  0.075510  0.006017


  Chemical shielding for O     :
  ==============================


  Shielding constant:   -304.3897 ppm
  Anisotropy:           1229.1794 ppm
  Asymmetry:               0.7441    

  S parameter:          1337.7956 ppm
  A parameter:             4.3862 ppm


  Total shielding tensor (ppm):
  -----------------------------

                    Bx             By             Bz

  O      x  -409.38447839    14.64173451    -7.87589516
  O      y     5.91521988 -1017.19070729    49.33122455
  O      z    -7.08552203    49.75389880   513.40610928


  Diamagnetic and paramagnetic contributions (ppm):
  -------------------------------------------------

                 Bx         By         Bz            Bx         By         Bz

  O      x   524.1929     6.2819     0.0266     -933.5773     8.3598    -7.9025
  O      y     6.2546   415.6028     2.7380       -0.3394 -1432.7935    46.5932
  O      z     0.0150     2.6533   497.3261       -7.1005    47.1005    16.0800

  Diamagnetic contribution:    479.040591         Paramagnetic:    -783.430283


  Antisymmetric and traceless symmetric parts (ppm):
  --------------------------------------------------

                 Bx         By         Bz            Bx         By         Bz

  O      x     0.0000     4.3633    -0.3952     -104.9948    10.2785    -7.4807
  O      y    -4.3633     0.0000    -0.2113       10.2785  -712.8010    49.5426
  O      z     0.3952     0.2113     0.0000       -7.4807    49.5426   817.7958


  Principal values and axes:
  --------------------------

  O       -1018.974013  = -304.39  - 714.58:    -0.017247  0.999326 -0.032393
  O        -409.258318  = -304.39  - 104.87:     0.999821  0.017488  0.007167
  O         515.063255  = -304.39  + 819.45:    -0.007729  0.032263  0.999450


  Chemical shielding for H     :
  ==============================


  Shielding constant:     22.2942 ppm
  Anisotropy:              5.3502 ppm
  Asymmetry:               0.2018    

  S parameter:             5.3864 ppm
  A parameter:             3.0877 ppm


  Total shielding tensor (ppm):
  -----------------------------

                    Bx             By             Bz

  H      x    20.16725774    -3.19338442     0.05965375
  H      y     2.97827249    20.85994704     0.18941188
  H      z    -0.14987502     0.13359533    25.85539607


  Diamagnetic and paramagnetic contributions (ppm):
  -------------------------------------------------

                 Bx         By         Bz            Bx         By         Bz

  H      x    38.7009    -8.3859     0.4603      -18.5336     5.1925    -0.4007
  H      y   -11.5386    30.1987    -0.5416       14.5168    -9.3388     0.7310
  H      z     0.5625    -0.5098    16.4336       -0.7124     0.6434     9.4218

  Diamagnetic contribution:     28.444394         Paramagnetic:      -6.150193


  Antisymmetric and traceless symmetric parts (ppm):
  --------------------------------------------------

                 Bx         By         Bz            Bx         By         Bz

  H      x     0.0000    -3.0858     0.1048       -2.1269    -0.1076    -0.0451
  H      y     3.0858     0.0000     0.0279       -0.1076    -1.4343     0.1615
  H      z    -0.1048    -0.0279     0.0000       -0.0451     0.1615     3.5612


  Principal values and axes:
  --------------------------

  H          20.150868  =   22.29  -   2.14:     0.988805  0.149167  0.003596
  H          20.870706  =   22.29  -   1.42:    -0.148966  0.988279 -0.033368
  H          25.861026  =   22.29  +   3.57:    -0.008531  0.032459  0.999437


  Chemical shielding for H     :
  ==============================


  Shielding constant:     22.5645 ppm
  Anisotropy:              5.6593 ppm
  Asymmetry:               0.2914    

  S parameter:             5.7388 ppm
  A parameter:             2.7332 ppm


  Total shielding tensor (ppm):
  -----------------------------

                    Bx             By             Bz

  H      x    20.62084231     2.18398718    -0.11176420
  H      y    -3.27983730    20.74141199     0.15533977
  H      z     0.05280313     0.20050160    26.33136023


  Diamagnetic and paramagnetic contributions (ppm):
  -------------------------------------------------

                 Bx         By         Bz            Bx         By         Bz

  H      x    37.2413     8.8696    -0.1080      -16.6205    -6.6856    -0.0038
  H      y    12.0448    32.7637    -0.3796      -15.3246   -12.0223     0.5349
  H      z    -0.2037    -0.4111    17.2400        0.2566     0.6116     9.0914

  Diamagnetic contribution:     29.081658         Paramagnetic:      -6.517120


  Antisymmetric and traceless symmetric parts (ppm):
  --------------------------------------------------

                 Bx         By         Bz            Bx         By         Bz

  H      x     0.0000     2.7319    -0.0823       -1.9437    -0.5479    -0.0295
  H      y    -2.7319     0.0000    -0.0226       -0.5479    -1.8231     0.1779
  H      z     0.0823     0.0226     0.0000       -0.0295     0.1779     3.7668


  Principal values and axes:
  --------------------------

  H          20.128381  =   22.56  -   2.44:     0.743237  0.668845 -0.015652
  H          21.227828  =   22.56  -   1.34:    -0.668977  0.742687 -0.029756
  H          26.337406  =   22.56  +   3.77:    -0.008278  0.032587  0.999435


                         +--------------------------------+
                         ! Summary of chemical shieldings !
                         +--------------------------------+

@1  Definitions from J. Mason, Solid state Nuc. Magn. Res. 2 (1993), 285

@1 London orbitals (GIAOs) has been used.

@1 atom   shielding       dia      para     skew      span     (aniso     asym)
@1 ----------------------------------------------------------------------------
@1 C        89.5904  339.7044 -250.1140   -0.3988  237.5609  154.4831    1.6133
@1 O      -304.3897  479.0406 -783.4303    0.2051 1534.0373 1229.1794    0.7441
@1 H        22.2942   28.4444   -6.1502    0.7479    5.7102    5.3502    0.2018
@1 H        22.5645   29.0817   -6.5171    0.6459    6.2090    5.6593    0.2914



                         +--------------------------------+
                         ! Summary of chemical shieldings !
                         +--------------------------------+

@2  Definitions from Smith, Palke, and Grieg, Concepts in Mag. Res. 4 (1992), 107

@2 London orbitals (GIAOs) has been used.

@2 atom   shielding       dia      para     aniso      asym        S        A
@2 ----------------------------------------------------------------------------
@2 C        89.5904  339.7044 -250.1140 -201.8582    0.5306  211.1179    4.0074
@2 O      -304.3897  479.0406 -783.4303 1229.1794    0.7441 1337.7956    4.3862
@2 H        22.2942   28.4444   -6.1502    5.3502    0.2018    5.3864    3.0877
@2 H        22.5645   29.0817   -6.5171    5.6593    0.2914    5.7388    2.7332



   Interatomic separations (in Angstrom):
   --------------------------------------

            C           O           H           H     
            ------      ------      ------      ------
 C     :    0.000000
 O     :    1.209298    0.000000
 H     :    1.100831    2.018474    0.000000
 H     :    1.104391    2.007988    1.889439    0.000000


  Max    interatomic separation is    2.0185 Angstrom (    3.8144 Bohr)
  between atoms    3 and    2, "H     " and "O     ".

  Min HX interatomic separation is    1.1008 Angstrom (    2.0803 Bohr)

  Min YX interatomic separation is    1.2093 Angstrom (    2.2852 Bohr)


  Bond distances (Angstrom):
  --------------------------

                  atom 1     atom 2       distance
                  ------     ------       --------
  bond distance:  O          C            1.209298
  bond distance:  H          C            1.100831
  bond distance:  H          C            1.104391


  Bond angles (degrees):
  ----------------------

                  atom 1     atom 2     atom 3         angle
                  ------     ------     ------         -----
  bond angle:     O          C          H            121.724
  bond angle:     O          C          H            120.357
  bond angle:     H          C          H            117.919




 CPU time statistics for ABACUS
 ------------------------------




  Total CPU  time used in ABACUS:   0.78 seconds
  Total wall time used in ABACUS:   0.78 seconds


                   .-------------------------------------------.
                   | End of Static Property Section (ABACUS) - |
                   `-------------------------------------------'

  Total CPU  time used in DALTON:   1.61 seconds
  Total wall time used in DALTON:   1.66 seconds

 
     Date and time (Linux)  : Wed Mar 30 19:03:08 2016
     Host name              : s24p28.deic.sdu.dk                      
