

     ************************************************************************
     *************** Dalton - An Electronic Structure Program ***************
     ************************************************************************

    This is output from DALTON (Release Dalton2013 patch 0)
   ----------------------------------------------------------------------------
    NOTE:
     
    Dalton is an experimental code for the evaluation of molecular
    properties using (MC)SCF, DFT, CI, and CC wave functions.
    The authors accept no responsibility for the performance of
    the code or for the correctness of the results.
     
    The code (in whole or part) is provided under a licence and
    is not to be reproduced for further distribution without
    the written permission of the authors or their representatives.
     
    See the home page "http://daltonprogram.org" for further information.
     
    If results obtained with this code are published,
    the appropriate citations would be both of:
     
       K. Aidas, C. Angeli, K. L. Bak, V. Bakken, R. Bast,
       L. Boman, O. Christiansen, R. Cimiraglia, S. Coriani,
       P. Dahle, E. K. Dalskov, U. Ekstroem, T. Enevoldsen,
       J. J. Eriksen, P. Ettenhuber, B. Fernandez, L. Ferrighi,
       H. Fliegl, L. Frediani, K. Hald, A. Halkier, C. Haettig,
       H. Heiberg, T. Helgaker, A. C. Hennum, H. Hettema,
       E. Hjertenaes, S. Hoest, I.-M. Hoeyvik, M. F. Iozzi,
       B. Jansik, H. J. Aa. Jensen, D. Jonsson, P. Joergensen,
       J. Kauczor, S. Kirpekar, T. Kjaergaard, W. Klopper,
       S. Knecht, R. Kobayashi, H. Koch, J. Kongsted, A. Krapp,
       K. Kristensen, A. Ligabue, O. B. Lutnaes, J. I. Melo,
       K. V. Mikkelsen, R. H. Myhre, C. Neiss, C. B. Nielsen,
       P. Norman, J. Olsen, J. M. H. Olsen, A. Osted,
       M. J. Packer, F. Pawlowski, T. B. Pedersen, P. F. Provasi,
       S. Reine, Z. Rinkevicius, T. A. Ruden, K. Ruud, V. Rybkin,
       P. Salek, C. C. M. Samson, A. Sanchez de Meras, T. Saue,
       S. P. A. Sauer, B. Schimmelpfennig, K. Sneskov,
       A. H. Steindal, K. O. Sylvester-Hvid, P. R. Taylor,
       A. M. Teale, E. I. Tellgren, D. P. Tew, A. J. Thorvaldsen,
       L. Thoegersen, O. Vahtras, M. A. Watson, D. J. D. Wilson,
       M. Ziolkowski and H. Agren.
       The Dalton quantum chemistry program system.
       WIREs Comput. Mol. Sci. 2013. doi: 10.1002/wcms.1172
    
    and
    
       Dalton, a Molecular Electronic Structure Program,
       Release DALTON2013.0 (2013), see http://daltonprogram.org
   ----------------------------------------------------------------------------

    Authors in alphabetical order (major contribution(s) in parenthesis):

  Kestutis Aidas,           Vilnius University,           Lithuania   (QM/MM)
  Celestino Angeli,         University of Ferrara,        Italy       (NEVPT2)
  Keld L. Bak,              UNI-C,                        Denmark     (AOSOPPA, non-adiabatic coupling, magnetic properties)
  Vebjoern Bakken,          University of Oslo,           Norway      (DALTON; geometry optimizer, symmetry detection)
  Radovan Bast,             KTH Stockholm                 Sweden      (DALTON installation and execution frameworks)
  Linus Boman,              NTNU,                         Norway      (Cholesky decomposition and subsystems)
  Ove Christiansen,         Aarhus University,            Denmark     (CC module)
  Renzo Cimiraglia,         University of Ferrara,        Italy       (NEVPT2)
  Sonia Coriani,            University of Trieste,        Italy       (CC module, MCD in RESPONS)
  Paal Dahle,               University of Oslo,           Norway      (Parallelization)
  Erik K. Dalskov,          UNI-C,                        Denmark     (SOPPA)
  Thomas Enevoldsen,        Univ. of Southern Denmark,    Denmark     (SOPPA)
  Janus J. Eriksen,         Aarhus University,            Denmark     (PE-MP2/SOPPA, TDA)
  Berta Fernandez,          U. of Santiago de Compostela, Spain       (doublet spin, ESR in RESPONS)
  Lara Ferrighi,            Aarhus University,            Denmark     (PCM Cubic response)
  Heike Fliegl,             University of Oslo,           Norway      (CCSD(R12))
  Luca Frediani,            UiT The Arctic U. of Norway,  Norway      (PCM)
  Bin Gao,                  UiT The Arctic U. of Norway,  Norway      (Gen1Int library)
  Christof Haettig,         Ruhr-University Bochum,       Germany     (CC module)
  Kasper Hald,              Aarhus University,            Denmark     (CC module)
  Asger Halkier,            Aarhus University,            Denmark     (CC module)
  Hanne Heiberg,            University of Oslo,           Norway      (geometry analysis, selected one-electron integrals)
  Trygve Helgaker,          University of Oslo,           Norway      (DALTON; ABACUS, ERI, DFT modules, London, and much more)
  Alf Christian Hennum,     University of Oslo,           Norway      (Parity violation)
  Hinne Hettema,            University of Auckland,       New Zealand (quadratic response in RESPONS; SIRIUS supersymmetry)
  Eirik Hjertenaes,         NTNU,                         Norway      (Cholesky decomposition)
  Maria Francesca Iozzi,    University of Oslo,           Norway      (RPA)
  Brano Jansik              Technical Univ. of Ostrava    Czech Rep.  (DFT cubic response)
  Hans Joergen Aa. Jensen,  Univ. of Southern Denmark,    Denmark     (DALTON; SIRIUS, RESPONS, ABACUS modules, London, and much more)
  Dan Jonsson,              UiT The Arctic U. of Norway,  Norway      (cubic response in RESPONS module)
  Poul Joergensen,          Aarhus University,            Denmark     (RESPONS, ABACUS, and CC modules)
  Joanna Kauczor,           Linkoeping University,        Sweden      (Complex polarization propagator (CPP) module)
  Sheela Kirpekar,          Univ. of Southern Denmark,    Denmark     (Mass-velocity & Darwin integrals)
  Wim Klopper,              KIT Karlsruhe,                Germany     (R12 code in CC, SIRIUS, and ABACUS modules)
  Stefan Knecht,            ETH Zurich,                   Switzerland (Parallel CI and MCSCF)
  Rika Kobayashi,           Australian National Univ.,    Australia   (DIIS in CC, London in MCSCF)
  Henrik Koch,              NTNU,                         Norway      (CC module, Cholesky decomposition)
  Jacob Kongsted,           Univ. of Southern Denmark,    Denmark     (Polarizable embedding, QM/MM)
  Andrea Ligabue,           University of Modena,         Italy       (CTOCD, AOSOPPA)
  Ola B. Lutnaes,           University of Oslo,           Norway      (DFT Hessian)
  Juan I. Melo,             University of Buenos Aires,   Argentina   (LRESC, Relativistic Effects on NMR Shieldings)
  Kurt V. Mikkelsen,        University of Copenhagen,     Denmark     (MC-SCRF and QM/MM)
  Rolf H. Myhre,            NTNU,                         Norway      (Cholesky, subsystems and ECC2)
  Christian Neiss,          Univ. Erlangen-Nuernberg,     Germany     (CCSD(R12))
  Christian B. Nielsen,     University of Copenhagen,     Denmark     (QM/MM)
  Patrick Norman,           Linkoeping University,        Sweden      (Cubic response and complex response in RESPONS)
  Jeppe Olsen,              Aarhus University,            Denmark     (SIRIUS CI/density modules)
  Jogvan Magnus H. Olsen,   Univ. of Southern Denmark,    Denmark     (Polarizable embedding, PE library, QM/MM)
  Anders Osted,             Copenhagen University,        Denmark     (QM/MM)
  Martin J. Packer,         University of Sheffield,      UK          (SOPPA)
  Filip Pawlowski,          Kazimierz Wielki University   Poland      (CC3)
  Thomas B. Pedersen,       University of Oslo,           Norway      (Cholesky decomposition)
  Patricio F. Provasi,      University of Northeastern,   Argentina   (Analysis of coupling constants in localized orbitals)
  Zilvinas Rinkevicius,     KTH Stockholm,                Sweden      (open-shell DFT, ESR)
  Elias Rudberg,            KTH Stockholm,                Sweden      (DFT grid and basis info)
  Torgeir A. Ruden,         University of Oslo,           Norway      (Numerical derivatives in ABACUS)
  Kenneth Ruud,             UiT The Arctic U. of Norway,  Norway      (DALTON; ABACUS magnetic properties and  much more)
  Pawel Salek,              KTH Stockholm,                Sweden      (DALTON; DFT code)
  Claire C. M. Samson       University of Karlsruhe       Germany     (Boys localization, r12 integrals in ERI)
  Alfredo Sanchez de Meras, University of Valencia,       Spain       (CC module, Cholesky decomposition)
  Trond Saue,               Paul Sabatier University,     France      (direct Fock matrix construction)
  Stephan P. A. Sauer,      University of Copenhagen,     Denmark     (SOPPA(CCSD), SOPPA prop., AOSOPPA, vibrational g-factors)
  Bernd Schimmelpfennig,    Forschungszentrum Karlsruhe,  Germany     (AMFI module)
  Kristian Sneskov,         Aarhus University,            Denmark     (QM/MM, PE-CC)
  Arnfinn H. Steindal,      UiT The Arctic U. of Norway,  Norway      (parallel QM/MM)
  K. O. Sylvester-Hvid,     University of Copenhagen,     Denmark     (MC-SCRF)
  Peter R. Taylor,          VLSCI/Univ. of Melbourne,     Australia   (Symmetry handling ABACUS, integral transformation)
  Andrew M. Teale,          University of Nottingham,     England     (DFT-AC, DFT-D)
  David P. Tew,             University of Bristol,        England     (CCSD(R12))
  Olav Vahtras,             KTH Stockholm,                Sweden      (triplet response, spin-orbit, ESR, TDDFT, open-shell DFT)
  David J. Wilson,          La Trobe University,          Australia   (DFT Hessian and DFT magnetizabilities)
  Hans Agren,               KTH Stockholm,                Sweden      (SIRIUS module, RESPONS, MC-SCRF solvation model)
 --------------------------------------------------------------------------------

     Date and time (Linux)  : Sun Sep  8 21:03:10 2013
     Host name              : lpqlx131.ups-tlse.fr                    

 * Work memory size             :    64000000 =  488.28 megabytes.

 * Directories for basis set searches:
   1) /home/bast/DALTON-2013.0-Source/build/test_cc2_r12_aux_ch4_lhtr
   2) /home/bast/DALTON-2013.0-Source/build/basis


Compilation information
-----------------------

 Who compiled             | bast
 Host                     | lpqlx131.ups-tlse.fr
 System                   | Linux-3.8.5-201.fc18.x86_64
 CMake generator          | Unix Makefiles
 Processor                | x86_64
 64-bit integers          | OFF
 MPI                      | OFF
 Fortran compiler         | /usr/bin/gfortran
 Fortran compiler version | GNU Fortran (GCC) 4.7.2 20121109 (Red Hat 4.7.2-8)
 C compiler               | /usr/bin/gcc
 C compiler version       | gcc (GCC) 4.7.2 20121109 (Red Hat 4.7.2-8)
 C++ compiler             | /usr/bin/g++
 C++ compiler version     | g++ (GCC) 4.7.2 20121109 (Red Hat 4.7.2-8)
 Static linking           | OFF
 Last Git revision        | f34203295a86316e27f9e7b44f9b6769c4a046c0
 Configuration time       | 2013-09-08 20:31:27.952056


   Content of the .dal input file
 ----------------------------------

**DALTON INPUT                                    
.RUN WAVE FUNCTION                                
.DIRECT                                           
*MOLBAS                                           
.R12AUX                                           
**INTEGRALS                                       
.R12                                              
**WAVE FUNCTIONS                                  
.CC                                               
*ORBITAL INPUT                                    
.NOSUPSYM                                         
.MOSTART                                          
 H1DIAG                                           
*SCF INPUT                                        
.THRESHOLD                                        
 1D-10                                            
*CC INPUT                                         
.CC2                                              
.PRINT                                            
 3                                                
.FROIMP                                           
  1                                               
  0                                               
.THRENR                                           
 1.0D-10                                          
*CCEXCI                                           
.THREXC                                           
 1.D-8                                            
.NCCEXCI                                          
 8                                                
.LHTR                                             
*R12 INPUT                                        
#.NO HYB                                          
#.R12XXL                                          
#.NO B                                            
#.NO A'                                           
#.NO 2                                            
.CC2                                              
 1A                                               
**END OF DALTON INPUT                             


   Content of the .mol file
 ----------------------------

BASIS                                                                          
6-311G** 6-311++G(3df,3pd)                                                     
CH4: CC2-R12/Ansatz1 excitation enegies without symmetry                       
                                                                               
    4    0                                                                     
 1      6.    1                                                                
C      1.090000000000000  -0.120000000000000   7.289010000000000       *       
 1      1.    4                                                                
H      2.871530832048570   0.173652834453088   8.565741000000001       *       
H     -0.691530832048569  -0.413652834453088   8.565741000000001       *       
H      0.796347165546912   1.661530832048570   6.012279000000000       *       
H      1.383652834453088  -1.901530832048569   6.012279000000000       *       
 2      6.    1                                                                
C      1.090000000000000  -0.120000000000000   7.289010000000000       *       
 2      1.    4                                                                
H      2.871530832048570   0.173652834453088   8.565741000000001       *       
H     -0.691530832048569  -0.413652834453088   8.565741000000001       *       
H      0.796347165546912   1.661530832048570   6.012279000000000       *       
H      1.383652834453088  -1.901530832048569   6.012279000000000       *       


       *******************************************************************
       *********** Output from DALTON general input processing ***********
       *******************************************************************

 --------------------------------------------------------------------------------
   Overall default print level:    0
   Print level for DALTON.STAT:    1

    AO-direct calculation (in sections where implemented)
    HERMIT 1- and 2-electron integral sections will be executed
    "Old" integral transformation used (limited to max 255 basis functions)
    Wave function sections will be executed (SIRIUS module)
 --------------------------------------------------------------------------------


 Changes of defaults for *MOLBAS:
 --------------------------------

 Print level in molecule setup (READIN):    1

 .R12AUX: Reading auxiliary basis sets from .mol file for R12



   ****************************************************************************
   *************** Output of molecule and basis set information ***************
   ****************************************************************************


    The two title cards from your ".mol" input:
    ------------------------------------------------------------------------
 1: CH4: CC2-R12/Ansatz1 excitation enegies without symmetry                
 2:                                                                         
    ------------------------------------------------------------------------

  Atomic type no.    1
  --------------------
  Nuclear charge:   6.00000
  Number of symmetry independent centers:    1
  Number of basis sets to read;    1
  Basis set file used for this atomic type with Z =   6 :
     "/home/bast/DALTON-2013.0-Source/build/basis/6-311G**"

  Info about the basis set file: your basis has no documentation.
  Basis set: 6-311G**                                                                        

  Atomic type no.    2
  --------------------
  Nuclear charge:   1.00000
  Number of symmetry independent centers:    4
  Number of basis sets to read;    1
  Basis set file used for this atomic type with Z =   1 :
     "/home/bast/DALTON-2013.0-Source/build/basis/6-311G**"

  Info about the basis set file: your basis has no documentation.
  Basis set: 6-311G**                                                                        

  Atomic type no.    3
  --------------------
  Nuclear charge:   6.00000
  Number of symmetry independent centers:    1
  This is an auxiliary basis for R12, MBSI:    2
  Basis set file used for this atomic type with Z =   6 :
     "/home/bast/DALTON-2013.0-Source/build/basis/6-311++G(3df,3pd)"

  Info about the basis set file: your basis has no documentation.
  Basis set: 6-311++G(3df,3pd)                                                               

  Atomic type no.    4
  --------------------
  Nuclear charge:   1.00000
  Number of symmetry independent centers:    4
  This is an auxiliary basis for R12, MBSI:    2
  Basis set file used for this atomic type with Z =   1 :
     "/home/bast/DALTON-2013.0-Source/build/basis/6-311++G(3df,3pd)"

  Info about the basis set file: your basis has no documentation.
  Basis set: 6-311++G(3df,3pd)                                                               


                         SYMGRP: Point group information
                         -------------------------------

Point group: C1 


                                 Isotopic Masses
                                 ---------------

                           C          12.000000
                           H           1.007825
                           H           1.007825
                           H           1.007825
                           H           1.007825
                           C           0.000000
                           H           0.000000
                           H           0.000000
                           H           0.000000
                           H           0.000000

                       Total mass:    16.031300 amu
                       Natural abundance:   0.000 %

 Center-of-mass coordinates (a.u.):    1.090000   -0.120000    7.289010


  Atoms and basis sets
  --------------------

  Number of atom types :    4
  Total number of atoms:   10

  Basis set 1 refers to the basis "6-311G**" from the basis set library.

  Basis set 2 refers to the basis "6-311++G(3df,3pd)" from the basis set library.

  label  basis   atoms  charge   prim  cont     basis
  ------------------------------------------------------------------------------
  C        1       1    6.0000    31    18      [11s5p1d|4s3p1d]                                   
  H        1       4    1.0000     8     6      [5s1p|3s1p]                                        
  C        2       1    0.0000    52    39      [12s6p3d1f|5s4p3d1f]                               
  H        2       4    0.0000    20    18      [6s3p1d|4s3p1d]                                    
  ------------------------------------------------------------------------------
  total:          10   10.0000   195   153
  ------------------------------------------------------------------------------
  Spherical harmonic basis used.

  Threshold for neglecting AO integrals:  1.00D-12


  Cartesian Coordinates (a.u.)
  ----------------------------

  Total number of coordinates:   30
  C       :     1  x   1.0900000000    2  y  -0.1200000000    3  z   7.2890100000
  H       :     4  x   2.8715308320    5  y   0.1736528345    6  z   8.5657410000
  H       :     7  x  -0.6915308320    8  y  -0.4136528345    9  z   8.5657410000
  H       :    10  x   0.7963471655   11  y   1.6615308320   12  z   6.0122790000
  H       :    13  x   1.3836528345   14  y  -1.9015308320   15  z   6.0122790000
  C       :    16  x   1.0900000000   17  y  -0.1200000000   18  z   7.2890100000
  H       :    19  x   2.8715308320   20  y   0.1736528345   21  z   8.5657410000
  H       :    22  x  -0.6915308320   23  y  -0.4136528345   24  z   8.5657410000
  H       :    25  x   0.7963471655   26  y   1.6615308320   27  z   6.0122790000
  H       :    28  x   1.3836528345   29  y  -1.9015308320   30  z   6.0122790000


   Interatomic separations (in Angstrom):
   --------------------------------------

            C           H           H           H           H           C     
            ------      ------      ------      ------      ------      ------
 C     :    0.000000
 H     :    1.170203    0.000000
 H     :    1.170203    1.910933    0.000000
 H     :    1.170203    1.910933    1.910933    0.000000
 H     :    1.170203    1.910933    1.910933    1.910933    0.000000
 C     :    0.000000    1.170203    1.170203    1.170203    1.170203    0.000000
 H     :    1.170203    0.000000    1.910933    1.910933    1.910933    1.170203
 H     :    1.170203    1.910933    0.000000    1.910933    1.910933    1.170203
 H     :    1.170203    1.910933    1.910933    0.000000    1.910933    1.170203
 H     :    1.170203    1.910933    1.910933    1.910933    0.000000    1.170203

            H           H           H           H     
            ------      ------      ------      ------
 H     :    0.000000
 H     :    1.910933    0.000000
 H     :    1.910933    1.910933    0.000000
 H     :    1.910933    1.910933    1.910933    0.000000


  Max    interatomic separation is    1.9109 Angstrom (    3.6111 Bohr)
  between atoms    4 and    2, "H     " and "H     ".

  Min HX interatomic separation is    0.0000 Angstrom (    0.0000 Bohr)

  Min YX interatomic separation is    0.0000 Angstrom (    0.0000 Bohr)

WARNING: Number of short HX and YX bond lengths:    4    1
WARNING: If not intentional, maybe your coordinates were in Angstrom,
WARNING: but "Angstrom" was not specified in .mol file


  Bond distances (Angstrom):
  --------------------------

                  atom 1     atom 2       distance
                  ------     ------       --------
  bond distance:  H          C            1.170203
  bond distance:  H          C            1.170203
  bond distance:  H          C            1.170203
  bond distance:  H          C            1.170203


  Bond angles (degrees):
  ----------------------

                  atom 1     atom 2     atom 3         angle
                  ------     ------     ------         -----
  bond angle:     H          C          H            109.471
  bond angle:     H          C          H            109.471
  bond angle:     H          C          H            109.471
  bond angle:     H          C          H            109.471
  bond angle:     H          C          H            109.471
  bond angle:     H          C          H            109.471




 Principal moments of inertia (u*A**2) and principal axes
 --------------------------------------------------------

   IA       3.680240          0.000000    1.000000    0.000000
   IB       3.680240          1.000000    0.000000    0.000000
   IC       3.680240          0.000000    0.000000    1.000000


 Rotational constants
 --------------------

               A                   B                   C

         137322.2814         137322.2814         137322.2814 MHz
            4.580578            4.580578            4.580578 cm-1


@  Nuclear repulsion energy :   12.514560078913 Hartree

  Number of main orbitals in each symmetry:          42
  Number of auxiliary functions in each symmetry:   111

  Number of floating/multiple basis set orbitals :    5


                     .---------------------------------------.
                     | Starting in Integral Section (HERMIT) |
                     `---------------------------------------'



    *************************************************************************
    ****************** Output from HERMIT input processing ******************
    *************************************************************************


 Default print level:        1

 * Nuclear model: Point charge

 Calculation of one-electron Hamiltonian integrals.

 The following one-electron property integrals are calculated as requested:
          - overlap integrals
          - Cartesian multipole moment integrals of orders 2 and lower

 Center of mass  (bohr):      1.090000000000     -0.120000000000      7.289010000000
 Operator center (bohr):      0.000000000000      0.000000000000      0.000000000000
 Gauge origin    (bohr):      0.000000000000      0.000000000000      0.000000000000
 Dipole origin   (bohr):      0.000000000000      0.000000000000      0.000000000000


     ************************************************************************
     ************************** Output from HERINT **************************
     ************************************************************************

 >>>> Total CPU  time used in HERMIT:   0.24 seconds
 >>>> Total wall time used in HERMIT:   0.24 seconds


                        .----------------------------------.
                        | End of Integral Section (HERMIT) |
                        `----------------------------------'



                   .--------------------------------------------.
                   | Starting in Wave Function Section (SIRIUS) |
                   `--------------------------------------------'

 NCCEXCI for singlet:           8

 >>>> Detected R12 input:
 Direct Fock matrix formation switched on!
 Scale factors for CC excitations manifolds:
 for bra states (projection manifold):   1.0000000000000000     
 for ket states (operator manifold)  :   1.0000000000000000     

 **********************************************************************
 *SIRIUS* a direct, restricted step, second order MCSCF program       *
 **********************************************************************

 
     Date and time (Linux)  : Sun Sep  8 21:03:11 2013
     Host name              : lpqlx131.ups-tlse.fr                    

 Title lines from ".mol" input file:
     CH4: CC2-R12/Ansatz1 excitation enegies without symmetry                
                                                                             

 Print level on unit LUPRI =   2 is   0
 Print level on unit LUW4  =   2 is   5

@    (Integral direct) CC calculation.

@    This is a combination run starting with
@              a restricted, closed shell Hartree-Fock calculation

 Fock matrices are calculated directly without use of integrals on disk.

 Initial molecular orbitals are obtained according to
 ".MOSTART H1DIAG" input option

     Wave function specification
     ============================

     For the specification of the Coupled Cluster: see later.

@    For the wave function of type :      >>> CC <<<
@    Number of closed shell electrons          10
@    Number of electrons in active shells       0
@    Total charge of the molecule               0

@    Spin multiplicity and 2 M_S                1         0
     Total number of symmetries                 1
@    Reference state symmetry                   1

     Orbital specifications
     ======================
     Abelian symmetry species          All |    1
                                       --- |  ---
@    Occupied SCF orbitals               5 |    5
     Secondary orbitals                 37 |   37
     Total number of orbitals           42 |   42
     Number of basis functions         153 |  153

     Optimization information
     ========================
@    Number of configurations                 1
@    Number of orbital rotations            185
     ------------------------------------------
@    Total number of variables              186

     Maximum number of Fock   iterations      0
     Maximum number of DIIS   iterations     60
     Maximum number of QC-SCF iterations     60
     Threshold for SCF convergence     1.00D-10


 Changes of defaults for CC:
 ---------------------------


 -This is a direct atomic orbital integral based
  calculation for coupled cluster wave function

 -Implicit frozen core calculation
 -Excitation energies calculated
  


 >>>>> DIIS optimization of Hartree-Fock <<<<<

 C1-DIIS algorithm; max error vectors =   10

 Iter      Total energy        Error norm    Delta(E)  DIIS dim.
 -----------------------------------------------------------------------------
   1  Screening settings (-IFTHRS, DIFDEN)   -8    T
@  1    -26.9208461510        1.73607D+01   -2.69D+01    1
      Virial theorem: -V/T =      1.397424
@      MULPOP C      -3.96; H       0.99; H       0.99; H       0.99; H       0.99; 
 -----------------------------------------------------------------------------
   2  Screening settings (-IFTHRS, DIFDEN)   -8    T
@  2    -34.5740137506        5.98235D+00   -7.65D+00    2
      Virial theorem: -V/T =      2.092202
@      MULPOP C       7.24; H      -1.81; H      -1.81; H      -1.81; H      -1.81; 
 -----------------------------------------------------------------------------
   3  Screening settings (-IFTHRS, DIFDEN)   -8    T
@  3    -38.7812868918        4.97171D+00   -4.21D+00    3
      Virial theorem: -V/T =      1.865551
@      MULPOP C      -2.05; H       0.51; H       0.51; H       0.51; H       0.51; 
 -----------------------------------------------------------------------------
   4  Screening settings (-IFTHRS, DIFDEN)   -8    T
@  4    -40.0920858817        1.20614D+00   -1.31D+00    4
      Virial theorem: -V/T =      1.982551
@      MULPOP C      -0.78; H       0.19; H       0.19; H       0.19; H       0.19; 
 -----------------------------------------------------------------------------
   5  Screening settings (-IFTHRS, DIFDEN)   -8    T
@  5    -40.1914985469        6.81150D-02   -9.94D-02    5
      Virial theorem: -V/T =      2.012916
@      MULPOP C      -0.36; H       0.09; H       0.09; H       0.09; H       0.09; 
 -----------------------------------------------------------------------------
   6  Screening settings (-IFTHRS, DIFDEN)  -10    F
@  6    -40.1917302489        2.38626D-02   -2.32D-04    6
      Virial theorem: -V/T =      2.011954
@      MULPOP C      -0.38; H       0.09; H       0.09; H       0.09; H       0.09; 
 -----------------------------------------------------------------------------
   7  Screening settings (-IFTHRS, DIFDEN)  -10    T
@  7    -40.1917714459        1.95575D-03   -4.12D-05    7
      Virial theorem: -V/T =      2.011289
@      MULPOP C      -0.38; H       0.10; H       0.10; H       0.10; H       0.10; 
 -----------------------------------------------------------------------------
   8  Screening settings (-IFTHRS, DIFDEN)  -12    F
@  8    -40.1917720842        2.23607D-04   -6.38D-07    8
      Virial theorem: -V/T =      2.011253
@      MULPOP C      -0.38; H       0.10; H       0.10; H       0.10; H       0.10; 
 -----------------------------------------------------------------------------
   9  Screening settings (-IFTHRS, DIFDEN)  -12    T
@  9    -40.1917720926        2.77398D-05   -8.32D-09    9
      Virial theorem: -V/T =      2.011254
@      MULPOP C      -0.38; H       0.09; H       0.09; H       0.09; H       0.09; 
 -----------------------------------------------------------------------------
  10  Screening settings (-IFTHRS, DIFDEN)  -12    T
@ 10    -40.1917720926        1.90471D-06   -6.94D-11   10
      Virial theorem: -V/T =      2.011255
@      MULPOP C      -0.38; H       0.09; H       0.09; H       0.09; H       0.09; 
 -----------------------------------------------------------------------------
  11  Screening settings (-IFTHRS, DIFDEN)  -17    F
@ 11    -40.1917720926        2.04069D-07   -2.27D-13   10
      Virial theorem: -V/T =      2.011255
@      MULPOP C      -0.38; H       0.09; H       0.09; H       0.09; H       0.09; 
 -----------------------------------------------------------------------------
  12  Screening settings (-IFTHRS, DIFDEN)  -17    T
@ 12    -40.1917720926        3.20200D-08    7.11D-15   10
      Virial theorem: -V/T =      2.011255
@      MULPOP C      -0.38; H       0.09; H       0.09; H       0.09; H       0.09; 
 -----------------------------------------------------------------------------
  13  Screening settings (-IFTHRS, DIFDEN)  -17    T
@ 13    -40.1917720926        6.93970D-10    2.84D-14   10
      Virial theorem: -V/T =      2.011255
@      MULPOP C      -0.38; H       0.09; H       0.09; H       0.09; H       0.09; 
 -----------------------------------------------------------------------------
  14  Screening settings (-IFTHRS, DIFDEN)  -17    T
@ 14    -40.1917720926        1.71060D-11   -7.11D-14   10

@ *** DIIS converged in  14 iterations !
@     Converged SCF energy, gradient:    -40.191772092640    1.71D-11
    - total time used in SIRFCK :              0.00 seconds


 *** SCF orbital energy analysis ***

 Only the five lowest virtual orbital energies printed in each symmetry.

 Number of electrons :   10
 Orbital occupations :    5

 Sym       Hartree-Fock orbital energies

  1    -11.24614520    -0.91114126    -0.52478334    -0.52478334    -0.52478334
         0.15222200     0.22923252     0.22923252     0.22923252     0.41945542

    E(LUMO) :     0.15222200 au (symmetry 1)
  - E(HOMO) :    -0.52478334 au (symmetry 1)
  ------------------------------------------
    gap     :     0.67700534 au

 >>> Writing SIRIFC interface file <<<

  Canonical primary and secondary basis sets
  ISYM       NORB1 MBAS1       NORB2 MBAS2
     1          42    42         111   111

 Computation of exchange matrix done [5]

 AUXILIARY BASIS LOW EIGENVALUES
 ISYM         EIGENVALUE
   1      0.000000000000
 >>>  Time used in R12AUX     is   1.09 seconds

 >>>> CPU and wall time for SCF :       2.843       2.873


                       .-----------------------------------.
                       | >>> Final results from SIRIUS <<< |
                       `-----------------------------------'


@    Spin multiplicity:           1
@    Spatial symmetry:            1
@    Total charge of molecule:    0

@    Final HF energy:             -40.191772092640                 
@    Nuclear repulsion:            12.514560078913
@    Electronic energy:           -52.706332171553

@    Final gradient norm:           0.000000000017

 
     Date and time (Linux)  : Sun Sep  8 21:03:14 2013
     Host name              : lpqlx131.ups-tlse.fr                    

 (Only coefficients >0.0100 are printed.)

 Molecular orbitals for symmetry species  1
 ------------------------------------------

    Orbital         1        2        3        4        5        6        7
   1 C   :1s     0.5636  -0.1015  -0.0000  -0.0000  -0.0000   0.0530  -0.0000
   2 C   :1s     0.4666  -0.1682   0.0000  -0.0000  -0.0000   0.0852  -0.0000
   3 C   :1s     0.0034   0.4331   0.0000   0.0000   0.0000  -0.0983   0.0000
   4 C   :1s    -0.0008   0.2981  -0.0000  -0.0000  -0.0000  -1.9759   0.0000
   5 C   :2px   -0.0000   0.0000  -0.0000  -0.0003   0.1818   0.0000   0.0187
   6 C   :2py    0.0000   0.0000   0.0000  -0.1818  -0.0003  -0.0000  -0.1262
   7 C   :2pz   -0.0000  -0.0000   0.1818   0.0000   0.0000   0.0000   0.0719
   8 C   :2px   -0.0000  -0.0000  -0.0000  -0.0005   0.2931  -0.0000   0.0138
   9 C   :2py   -0.0000   0.0000   0.0000  -0.2931  -0.0005   0.0000  -0.0934
  10 C   :2pz    0.0000   0.0000   0.2931   0.0000   0.0000  -0.0000   0.0531
  11 C   :2px    0.0000   0.0000  -0.0000  -0.0003   0.2049  -0.0000   0.1436
  12 C   :2py    0.0000  -0.0000   0.0000  -0.2049  -0.0003  -0.0000  -0.9695
  13 C   :2pz   -0.0000   0.0000   0.2049   0.0000   0.0000   0.0000   0.5520
  14 C   :3d2-   0.0000   0.0000   0.0103   0.0000   0.0000  -0.0000  -0.0037
  15 C   :3d1-   0.0000   0.0000  -0.0000   0.0303   0.0103  -0.0000  -0.0199
  17 C   :3d1+  -0.0000  -0.0000  -0.0000  -0.0103   0.0303   0.0000   0.0036
  18 C   :3d2+  -0.0000   0.0000   0.0303   0.0000   0.0000  -0.0000  -0.0108
  19 H   :1s     0.0003   0.0770   0.0961  -0.0223   0.1340   0.0184  -0.0091
  20 H   :1s     0.0002   0.1094   0.1589  -0.0369   0.2217  -0.0089   0.0379
  21 H   :1s     0.0001   0.0088   0.0754  -0.0175   0.1051   0.7492  -0.5775
  22 H   :2px   -0.0001  -0.0154  -0.0133   0.0031  -0.0088  -0.0008  -0.0060
  24 H   :2pz   -0.0001  -0.0110   0.0002   0.0022  -0.0133  -0.0006  -0.0027
  25 H   :1s     0.0003   0.0770   0.0961   0.0223  -0.1340   0.0184  -0.0099
  26 H   :1s     0.0002   0.1094   0.1589   0.0369  -0.2217  -0.0089   0.0411
  27 H   :1s     0.0001   0.0088   0.0754   0.0175  -0.1051   0.7492  -0.6267
  28 H   :2px    0.0001   0.0154   0.0133   0.0031  -0.0088   0.0008   0.0076
  30 H   :2pz   -0.0001  -0.0110   0.0002  -0.0022   0.0133  -0.0006  -0.0031
  31 H   :1s     0.0003   0.0770  -0.0961  -0.1340  -0.0223   0.0184   0.0333
  32 H   :1s     0.0002   0.1094  -0.1589  -0.2217  -0.0369  -0.0089  -0.1386
  33 H   :1s     0.0001   0.0088  -0.0754  -0.1051  -0.0175   0.7492   2.1138
  35 H   :2py   -0.0001  -0.0154   0.0133   0.0088   0.0031  -0.0008   0.0204
  36 H   :2pz    0.0001   0.0110   0.0002  -0.0133  -0.0022   0.0006  -0.0151
  37 H   :1s     0.0003   0.0770  -0.0961   0.1340   0.0223   0.0184  -0.0143
  38 H   :1s     0.0002   0.1094  -0.1589   0.2217   0.0369  -0.0089   0.0597
  39 H   :1s     0.0001   0.0088  -0.0754   0.1051   0.0175   0.7492  -0.9096
  41 H   :2py    0.0001   0.0154  -0.0133   0.0088   0.0031   0.0008   0.0068
  42 H   :2pz    0.0001   0.0110   0.0002   0.0133   0.0022   0.0006   0.0093



 >>>> Total CPU  time used in SIRIUS :      2.88 seconds
 >>>> Total wall time used in SIRIUS :      2.91 seconds

 
     Date and time (Linux)  : Sun Sep  8 21:03:14 2013
     Host name              : lpqlx131.ups-tlse.fr                    


                     .---------------------------------------.
                     | End of Wave Function Section (SIRIUS) |
                     `---------------------------------------'



                    .------------------------------------------.
                    | Starting in Coupled Cluster Section (CC) |
                    `------------------------------------------'

  

 *******************************************************************************
 *******************************************************************************
 *                                                                             *
 *                                                                             *
 *                    START OF COUPLED CLUSTER CALCULATION                     *
 *                                                                             *
 *                                                                             *
 *******************************************************************************
 *******************************************************************************



 CCR12 ANSATZ =   1

 CCR12 APPROX =   2

   NRHF   :       4
   NRHFS  :       5
   NORB1  :      42
   NORB2  :     111

 Number of primary orbitals             :           42
 Number of secondary orbitals           :          111
 Total number of orbitals               :          153
 Total number of basis functions        :          153
 Number of (i|p) integrals              :          168
 Number of (i|p') integrals             :          612
 Number of (i|u') integrals             :          612
 Number of (Ip'|jL) integrals           :          612
 Number of (ip'|jq) integrals           :        88788
 Threshold for R12 contributions            =  0.00000    
 Threshold for singular value decomposition = 0.100000E-11

 The B matrix is transformed into an orthogonal basis
 and inverted by diagonalization

 ******************************************************************************
 The MP2-R12/A and MP2-R12/B energies are computed as described in:
 W. Klopper, J. Chem. Phys. 120, 10890-10895 (2004).
 To avoid the hybride scheme, the keyword '.NO HYB'
 must be specified in the Dalton input file.
 ------------------------------------------------------------------------------
 Ansatz 1 is used and results are printed for approximations A and B.
 ******************************************************************************

 Core memory required by CCSD_R12 :         491991  (double words)

 Computation of (ip'|r12|jq) integrals done
 >>>  Time used in R  [5]     is   4.51 seconds
 Backtransformation of (ip'|r12|jq') integrals done
 Computation of V^aj_kl intermediate done

 >>> Time used for V^aj_kl is    0.37 seconds

 Computation of (ip'|1/r12|jq) integrals done
 >>>  Time used in 1/R[5]     is   4.69 seconds
 Computation of (i* p'|r12|jq) integrals done
 >>>  Time used in R  [5]     is   4.85 seconds
 Computation of (i'p|r12|jq) integrals done
 >>>  Time used in R  [5]     is   8.32 seconds
 >>>  Time used in TWOINT     is   1.39 seconds
 >>>  Time used in TWOINT     is   1.79 seconds
 >>>  Time used in TWOINT     is   1.18 seconds
 >>>  Time used in TWOINT     is   0.78 seconds
 >>>  Time used in TWOINT     is   0.64 seconds
 >>>  Time used in TWOINT     is   0.78 seconds
 >>>  Time used in TWOINT     is   0.64 seconds
 >>>  Time used in TWOINT     is   0.78 seconds
 >>>  Time used in TWOINT     is   0.64 seconds
 >>>  Time used in TWOINT     is   0.78 seconds
 >>>  Time used in TWOINT     is   0.64 seconds
 >>>  Time used in TWOINT     is   0.21 seconds
 >>>  Time used in TWOINT     is   0.28 seconds
 >>>  Time used in TWOINT     is   0.35 seconds
 >>>  Time used in TWOINT     is   0.28 seconds
 >>>  Time used in TWOINT     is   0.13 seconds
 >>>  Time used in TWOINT     is   0.19 seconds
 >>>  Time used in TWOINT     is   0.18 seconds
 >>>  Time used in TWOINT     is   0.13 seconds
 >>>  Time used in TWOINT     is   0.19 seconds
 >>>  Time used in TWOINT     is   0.18 seconds
 >>>  Time used in TWOINT     is   0.13 seconds
 >>>  Time used in TWOINT     is   0.19 seconds
 >>>  Time used in TWOINT     is   0.18 seconds
 >>>  Time used in TWOINT     is   0.13 seconds
 >>>  Time used in TWOINT     is   0.19 seconds
 >>>  Time used in TWOINT     is   0.18 seconds
 Computation of (ip'|[T,r12]|jq) integrals done
 >>>  Time used in T,R[5]     is  15.88 seconds


                 +-----------------------------------------------+
                 ! MP2-R12 ansatz := (1 - P1 - P2 + P1*P2) * R12 !
                 +-----------------------------------------------+


 SECOND-ORDER PAIR ENERGIES:

                    1   -0.008552696    0.000000000
                    2   -0.012167435   -0.004524398
                    3   -0.013386563    0.000000000
                    4   -0.012167435   -0.004524398
                    5   -0.013412621   -0.011368248
                    6   -0.017304160    0.000000000
                    7   -0.012167435   -0.004524398
                    8   -0.013412621   -0.011368248
                    9   -0.005577427   -0.011368248
                   10   -0.017304160    0.000000000

 MP2 =   -0.173130492   -0.125452553   -0.047677939


                         +--------------------------------+
                         ! Auxiliary-basis MP2-R12 method !
                         +--------------------------------+


 SECOND-ORDER R12/A PAIR ENERGIES:

   1   -0.008552696   -0.010623222    0.000000000   -0.000000000     1.62962         1.93487    
   2   -0.012167435   -0.014443622   -0.004524398   -0.004706073     1.62962         1.93487    
   3   -0.013386563   -0.016082139    0.000000000   -0.000000000     1.62962         1.93487    
   4   -0.012167435   -0.014443622   -0.004524398   -0.004706073     1.62962         1.93487    
   5   -0.013412621   -0.015786039   -0.011368248   -0.012119637     1.62962         1.93487    
   6   -0.017304160   -0.020486189    0.000000000   -0.000000000     1.62962         1.93487    
   7   -0.012167435   -0.014443622   -0.004524398   -0.004706073     1.62962         1.93487    
   8   -0.013412621   -0.015786039   -0.011368248   -0.012119637     1.62962         1.93487    
   9   -0.005577427   -0.006977940   -0.011368248   -0.012119637     1.62962         1.93487    
  10   -0.017304160   -0.020486189    0.000000000   -0.000000000     1.62962         1.93487    

       -0.125452553   -0.149558622   -0.047677939   -0.050477130

              MP2-R12/A   correlation energy =   -0.200035752

 SECOND-ORDER R12/B PAIR ENERGIES:

   1   -0.008552696   -0.010011093    0.000000000   -0.000000000     3.27397         3.66842    
   2   -0.012167435   -0.014035374   -0.004524398   -0.004674765     2.88761         3.28207    
   3   -0.013386563   -0.015365166    0.000000000   -0.000000000     2.50126         2.89571    
   4   -0.012167435   -0.014035374   -0.004524398   -0.004674765     2.88761         3.28207    
   5   -0.013412621   -0.015248325   -0.011368248   -0.011870315     2.50126         2.89571    
   6   -0.017304160   -0.019729192    0.000000000   -0.000000000     2.50126         2.89571    
   7   -0.012167435   -0.014035374   -0.004524398   -0.004674765     2.88761         3.28207    
   8   -0.013412621   -0.015248325   -0.011368248   -0.011870315     2.50126         2.89571    
   9   -0.005577427   -0.006520274   -0.011368248   -0.011870315     2.50126         2.89571    
  10   -0.017304160   -0.019729192    0.000000000   -0.000000000     2.50126         2.89571    

       -0.125452553   -0.143957687   -0.047677939   -0.049635241

              MP2-R12/B   correlation energy =   -0.193592928
 Time for MP2-R12 part cpu :   38.328000000000003     
 Time for MP2-R12 part wall:   40.254999995231628     
   

 *******************************************************************
 *                                                                 *
 *<<<<<<<<<<                                             >>>>>>>>>>*
 *<<<<<<<<<< OUTPUT FROM COUPLED CLUSTER ENERGY PROGRAM  >>>>>>>>>>*
 *<<<<<<<<<<                                             >>>>>>>>>>*
 *                                                                 *
 *******************************************************************


             The Direct Coupled Cluster Energy Program
             -----------------------------------------


          Number of t1 amplitudes                 :       148
          Number of t2 amplitudes                 :     11026
          Number of t2' amplitudes for R12 part   :       136
          Total number of amplitudes in ccsd      :     11310

 Iter.  1: Coupled cluster MP2-R12/A energy :     -40.3918078441904811
     Conventional correlation energy:    -0.1731304917318113
     R12 correlation energy         :    -0.0269052598181773
     Total correlation energy       :    -0.2000357515499885


       Iteration no.:  1
       -----------------

       Time used in   RHS - TOTAL  :       2.31 seconds
       Norm^2 of omega1 after ccvec:        0.1281490663D-02
       Norm^2 of omega2 after ccvec:        0.2435262188D-27
       Norm^2 of Omegar12  in NXTAM:        0.1465127471D-26
 Iter.  1: Coupled cluster CC2-R12/A energy :     -40.3916935949244973
     Conventional correlation energy:    -0.1730162424658417
     R12 correlation energy         :    -0.0269052598181669
     Total correlation energy       :    -0.1999215022840086


       Iteration no.:  2
       -----------------

       Time used in   RHS - TOTAL  :       2.31 seconds
       Norm^2 of omega1 after ccvec:        0.1355310791D-04
       Norm^2 of omega2 after ccvec:        0.7515428262D-04
       Norm^2 of Omegar12  in NXTAM:        0.1226332566D-07
 Iter.  2: Coupled cluster CC2-R12/A energy :     -40.3926590544014488
     Conventional correlation energy:    -0.1739488095193522
     R12 correlation energy         :    -0.0269381522416032
     Total correlation energy       :    -0.2008869617609554


       Iteration no.:  3
       -----------------

       Time used in   RHS - TOTAL  :       2.32 seconds
       Norm^2 of omega1 after ccvec:        0.3800795962D-05
       Norm^2 of omega2 after ccvec:        0.2252815510D-05
       Norm^2 of Omegar12  in NXTAM:        0.8058125045D-09
 Iter.  3: Coupled cluster CC2-R12/A energy :     -40.3929289102158151
     Conventional correlation energy:    -0.1742186415846376
     R12 correlation energy         :    -0.0269381759906841
     Total correlation energy       :    -0.2011568175753217


       Iteration no.:  4
       -----------------

       Time used in   RHS - TOTAL  :       2.34 seconds
       Norm^2 of omega1 after ccvec:        0.9336834600D-07
       Norm^2 of omega2 after ccvec:        0.8325515832D-07
       Norm^2 of Omegar12  in NXTAM:        0.2672301114D-10
 Iter.  4: Coupled cluster CC2-R12/A energy :     -40.3929133535775193
     Conventional correlation energy:    -0.1741993520765632
     R12 correlation energy         :    -0.0269419088604662
     Total correlation energy       :    -0.2011412609370294


       Iteration no.:  5
       -----------------

       Time used in   RHS - TOTAL  :       2.34 seconds
       Norm^2 of omega1 after ccvec:        0.4038927875D-08
       Norm^2 of omega2 after ccvec:        0.1898526171D-08
       Norm^2 of Omegar12  in NXTAM:        0.6240698971D-12
 Iter.  5: Coupled cluster CC2-R12/A energy :     -40.3929126360079351
     Conventional correlation energy:    -0.1741981113411839
     R12 correlation energy         :    -0.0269424320262635
     Total correlation energy       :    -0.2011405433674474


       Iteration no.:  6
       -----------------

       Time used in   RHS - TOTAL  :       2.31 seconds
       Norm^2 of omega1 after ccvec:        0.4502848575D-10
       Norm^2 of omega2 after ccvec:        0.5328535493D-10
       Norm^2 of Omegar12  in NXTAM:        0.1098112841D-13
 Iter.  6: Coupled cluster CC2-R12/A energy :     -40.3929124268356503
     Conventional correlation energy:    -0.1741977787114379
     R12 correlation energy         :    -0.0269425554837210
     Total correlation energy       :    -0.2011403341951589


       Iteration no.:  7
       -----------------

       Time used in   RHS - TOTAL  :       2.33 seconds
       Norm^2 of omega1 after ccvec:        0.1436571099D-11
       Norm^2 of omega2 after ccvec:        0.6988838950D-12
       Norm^2 of Omegar12  in NXTAM:        0.1823181603D-15
 Iter.  7: Coupled cluster CC2-R12/A energy :     -40.3929123972163424
     Conventional correlation energy:    -0.1741977267980701
     R12 correlation energy         :    -0.0269425777777818
     Total correlation energy       :    -0.2011403045758519


       Iteration no.:  8
       -----------------

       Time used in   RHS - TOTAL  :       2.35 seconds
       Norm^2 of omega1 after ccvec:        0.5149985152D-13
       Norm^2 of omega2 after ccvec:        0.3267548122D-13
       Norm^2 of Omegar12  in NXTAM:        0.1782905229D-17
 Iter.  8: Coupled cluster CC2-R12/A energy :     -40.3929123945848332
     Conventional correlation energy:    -0.1741977246960573
     R12 correlation energy         :    -0.0269425772482832
     Total correlation energy       :    -0.2011403019443405


       Iteration no.:  9
       -----------------

       Time used in   RHS - TOTAL  :       2.36 seconds
       Norm^2 of omega1 after ccvec:        0.5539034295D-15
       Norm^2 of omega2 after ccvec:        0.7471905570D-15
       Norm^2 of Omegar12  in NXTAM:        0.5240688295D-19
 Iter.  9: Coupled cluster CC2-R12/A energy :     -40.3929123941128765
     Conventional correlation energy:    -0.1741977244656923
     R12 correlation energy         :    -0.0269425770066963
     Total correlation energy       :    -0.2011403014723886


       Iteration no.: 10
       -----------------

       Time used in   RHS - TOTAL  :       2.33 seconds
       Norm^2 of omega1 after ccvec:        0.4146212742D-16
       Norm^2 of omega2 after ccvec:        0.5191752741D-16
       Norm^2 of Omegar12  in NXTAM:        0.6032297900D-20
 Iter. 10: Coupled cluster CC2-R12/A energy :     -40.3929123947405344
     Conventional correlation energy:    -0.1741977250680762
     R12 correlation energy         :    -0.0269425770319664
     Total correlation energy       :    -0.2011403021000426


       Iteration no.: 11
       -----------------

       Time used in   RHS - TOTAL  :       2.32 seconds
       Norm^2 of omega1 after ccvec:        0.3276318996D-17
       Norm^2 of omega2 after ccvec:        0.2045530777D-17
       Norm^2 of Omegar12  in NXTAM:        0.1883613376D-21
 Iter. 11: Coupled cluster CC2-R12/A energy :     -40.3929123947571398
     Conventional correlation energy:    -0.1741977250832534
     R12 correlation energy         :    -0.0269425770333943
     Total correlation energy       :    -0.2011403021166476


 CC2-R12/A energy converged to within   0.10D-09 is          -40.392912394757
 Final 2-norm of the CC vector function:  2.30691347D-09
 R12       energy converged to within   0.10D-09 is     -0.026942577


                    +------------------------------------------+
                    ! Largest amplitudes in converged solution !
                    +------------------------------------------+



          CC_PRAM:Overall Contribution of the Different Components
          --------------------------------------------------------



          Single Excitation Contribution :               1.4163 %

          Double Excitation Contribution :              98.5837 %

          ||T1||/||T2||                  :               0.1199

          Tau1 diagnostic                :               0.0074

          Norm of Total Amplitude Vector :               0.1753


 +=============================================================================+
 | symmetry|  orbital index  |   Excitation Numbers             |   Amplitude  |
 |  Index  |   a   b   i   j |      NAI      NBJ |     NAIBJ    |              |
 +=============================================================================+
 | 1   1   |   3       2     |       40          |              |   -0.004440  |
 | 1   1   |   7       2     |       44          |              |    0.004688  |
 | 1   1   |   9       2     |       46          |              |    0.006741  |
 | 1   1   |  27       2     |       64          |              |   -0.004298  |
 | 1   1   |   2       3     |       76          |              |    0.004670  |
 | 1   1   |   5       3     |       79          |              |   -0.005302  |
 | 1   1   |  10       3     |       84          |              |    0.006587  |
 | 1   1   |   4       4     |      115          |              |    0.004905  |
 | 1   1   |   6       4     |      117          |              |    0.004718  |
 | 1   1   |  11       4     |      122          |              |    0.006594  |
 +-----------------------------------------------------------------------------+
 | 1 1 1 1 |   1   1   1   1 |        1        1 |            1 |   -0.011773  |
 | 1 1 1 1 |   8   1   1   1 |        8        1 |           29 |   -0.008708  |
 | 1 1 1 1 |  12   1   1   1 |       12        1 |           67 |    0.008728  |
 | 1 1 1 1 |   2   1   2   1 |       39        1 |          742 |    0.006855  |
 | 1 1 1 1 |   3   1   2   1 |       40        1 |          781 |   -0.011443  |
 | 1 1 1 1 |   9   1   2   1 |       46        1 |         1036 |    0.014719  |
 | 1 1 1 1 |   2   1   3   1 |       76        1 |         2851 |    0.012037  |
 | 1 1 1 1 |  10   1   3   1 |       84        1 |         3487 |    0.014383  |
 | 1 1 1 1 |   4   1   4   1 |      115        1 |         6556 |    0.012642  |
 | 1 1 1 1 |  11   1   4   1 |      122        1 |         7382 |    0.014397  |
 | 1 1 1 1 |   2   2   1   1 |        2        2 |            3 |   -0.006649  |
 | 1 1 1 1 |   3   3   1   1 |        3        3 |            6 |   -0.006649  |
 | 1 1 1 1 |   4   4   1   1 |        4        4 |           10 |   -0.006649  |
 | 1 1 1 1 |   5   5   1   1 |        5        5 |           15 |   -0.008194  |
 | 1 1 1 1 |   8   5   3   1 |       82        5 |         3326 |   -0.007013  |
 | 1 1 1 1 |   6   6   1   1 |        6        6 |           21 |   -0.008194  |
 | 1 1 1 1 |   7   7   1   1 |        7        7 |           28 |   -0.008194  |
 | 1 1 1 1 |   8   8   1   1 |        8        8 |           36 |   -0.011025  |
 | 1 1 1 1 |   3   8   2   1 |       40        8 |          788 |   -0.008241  |
 | 1 1 1 1 |   9   8   2   1 |       46        8 |         1043 |    0.013788  |
 | 1 1 1 1 |   2   8   3   1 |       76        8 |         2858 |    0.008669  |
 | 1 1 1 1 |  10   8   3   1 |       84        8 |         3494 |    0.013474  |
 | 1 1 1 1 |   4   8   4   1 |      115        8 |         6563 |    0.009105  |
 | 1 1 1 1 |  11   8   4   1 |      122        8 |         7389 |    0.013487  |
 | 1 1 1 1 |   9   9   1   1 |        9        9 |           45 |   -0.009329  |
 | 1 1 1 1 |   1   9   2   1 |       38        9 |          712 |    0.006664  |
 | 1 1 1 1 |   8   9   2   1 |       45        9 |          999 |    0.007443  |
 | 1 1 1 1 |  10  10   1   1 |       10       10 |           55 |   -0.009329  |
 | 1 1 1 1 |   8  10   3   1 |       82       10 |         3331 |    0.007274  |
 | 1 1 1 1 |  11  11   1   1 |       11       11 |           66 |   -0.009329  |
 | 1 1 1 1 |   8  11   4   1 |      119       11 |         7032 |    0.007281  |
 | 1 1 1 1 |  12  12   1   1 |       12       12 |           78 |   -0.010281  |
 | 1 1 1 1 |   3  12   2   1 |       40       12 |          792 |    0.007210  |
 | 1 1 1 1 |   9  12   2   1 |       46       12 |         1047 |   -0.012865  |
 | 1 1 1 1 |   2  12   3   1 |       76       12 |         2862 |   -0.007584  |
 | 1 1 1 1 |  10  12   3   1 |       84       12 |         3498 |   -0.012572  |
 | 1 1 1 1 |   4  12   4   1 |      115       12 |         6567 |   -0.007965  |
 | 1 1 1 1 |  11  12   4   1 |      122       12 |         7393 |   -0.012584  |
 | 1 1 1 1 |  13  13   1   1 |       13       13 |           91 |   -0.009741  |
 | 1 1 1 1 |  14  14   1   1 |       14       14 |          105 |   -0.009741  |
 | 1 1 1 1 |   1   1   2   2 |       38       38 |          741 |   -0.008883  |
 | 1 1 1 1 |   8   1   2   2 |       45       38 |         1028 |   -0.006866  |
 | 1 1 1 1 |   2   2   2   2 |       39       39 |          780 |   -0.010079  |
 | 1 1 1 1 |   9   2   2   2 |       46       39 |         1074 |   -0.009510  |
 | 1 1 1 1 |   2   2   3   2 |       76       39 |         2889 |   -0.009459  |
 | 1 1 1 1 |  10   2   3   2 |       84       39 |         3525 |   -0.007217  |
 | 1 1 1 1 |   4   2   4   2 |      115       39 |         6594 |   -0.007570  |
 | 1 1 1 1 |  11   2   4   2 |      122       39 |         7420 |   -0.007390  |
 | 1 1 1 1 |   3   3   2   2 |       40       40 |          820 |   -0.016133  |
 | 1 1 1 1 |   9   3   2   2 |       46       40 |         1075 |    0.015532  |
 | 1 1 1 1 |   2   3   3   2 |       76       40 |         2890 |    0.010517  |
 | 1 1 1 1 |   3   3   3   2 |       77       40 |         2966 |    0.007436  |
 | 1 1 1 1 |  10   3   3   2 |       84       40 |         3526 |    0.012383  |
 | 1 1 1 1 |   3   3   4   2 |      114       40 |         6481 |    0.007428  |
 | 1 1 1 1 |   4   3   4   2 |      115       40 |         6595 |    0.011563  |
 | 1 1 1 1 |  11   3   4   2 |      122       40 |         7421 |    0.012292  |
 | 1 1 1 1 |   4   4   2   2 |       41       41 |          861 |   -0.007931  |
 | 1 1 1 1 |   5   5   2   2 |       42       42 |          903 |   -0.018820  |
 | 1 1 1 1 |  18   5   2   2 |       55       42 |         1527 |    0.007502  |
 | 1 1 1 1 |   6   5   3   2 |       80       42 |         3202 |   -0.006837  |
 | 1 1 1 1 |   7   5   3   2 |       81       42 |         3282 |    0.012926  |
 | 1 1 1 1 |   8   5   3   2 |       82       42 |         3363 |    0.008191  |
 | 1 1 1 1 |  14   5   4   2 |      125       42 |         7792 |    0.010973  |
 | 1 1 1 1 |   6   6   2   2 |       43       43 |          946 |   -0.017092  |
 | 1 1 1 1 |  14   6   3   2 |       88       43 |         3871 |    0.009764  |
 | 1 1 1 1 |   6   6   4   2 |      117       43 |         6829 |    0.007968  |
 | 1 1 1 1 |   7   6   4   2 |      118       43 |         6946 |   -0.010562  |
 | 1 1 1 1 |   8   6   4   2 |      119       43 |         7064 |    0.007146  |
 | 1 1 1 1 |   7   7   2   2 |       44       44 |          990 |   -0.012376  |
 | 1 1 1 1 |   7   7   4   2 |      118       44 |         6947 |   -0.007949  |
 | 1 1 1 1 |   8   8   2   2 |       45       45 |         1035 |   -0.014153  |
 | 1 1 1 1 |   5   8   3   2 |       79       45 |         3126 |    0.008191  |
 | 1 1 1 1 |   6   8   4   2 |      117       45 |         6831 |    0.007146  |
 | 1 1 1 1 |   9   9   2   2 |       46       46 |         1081 |   -0.025483  |
 | 1 1 1 1 |   2   9   3   2 |       76       46 |         2896 |   -0.013345  |
 | 1 1 1 1 |  10   9   3   2 |       84       46 |         3532 |   -0.019315  |
 | 1 1 1 1 |   4   9   4   2 |      115       46 |         6601 |   -0.013907  |
 | 1 1 1 1 |  11   9   4   2 |      122       46 |         7427 |   -0.019345  |
 | 1 1 1 1 |  13  13   2   2 |       50       50 |         1275 |   -0.019391  |
 | 1 1 1 1 |   5  13   3   2 |       79       50 |         3131 |   -0.010385  |
 | 1 1 1 1 |  18  13   3   2 |       92       50 |         4236 |    0.006640  |
 | 1 1 1 1 |   6  13   4   2 |      117       50 |         6836 |   -0.009060  |
 | 1 1 1 1 |  18  18   2   2 |       55       55 |         1540 |   -0.008815  |
 | 1 1 1 1 |  14  18   4   2 |      125       55 |         7805 |   -0.007703  |
 | 1 1 1 1 |  19  19   2   2 |       56       56 |         1596 |   -0.008148  |
 | 1 1 1 1 |  14  19   3   2 |       88       56 |         3884 |    0.007138  |
 | 1 1 1 1 |   1   1   3   3 |       75       75 |         2850 |   -0.008883  |
 | 1 1 1 1 |   8   1   3   3 |       82       75 |         3396 |   -0.006866  |
 | 1 1 1 1 |   2   2   3   3 |       76       76 |         2926 |   -0.020118  |
 | 1 1 1 1 |  10   2   3   3 |       84       76 |         3562 |   -0.017998  |
 | 1 1 1 1 |   4   2   4   3 |      115       76 |         6631 |   -0.009439  |
 | 1 1 1 1 |  11   2   4   3 |      122       76 |         7457 |   -0.010908  |
 | 1 1 1 1 |   3   3   3   3 |       77       77 |         3003 |   -0.009428  |
 | 1 1 1 1 |  10   3   3   3 |       84       77 |         3563 |   -0.009071  |
 | 1 1 1 1 |   5   5   3   3 |       79       79 |         3160 |   -0.022947  |
 | 1 1 1 1 |  10   5   3   3 |       84       79 |         3565 |    0.007181  |
 | 1 1 1 1 |  18   5   3   3 |       92       79 |         4265 |    0.006648  |
 | 1 1 1 1 |   6   5   4   3 |      117       79 |         6865 |   -0.006824  |
 | 1 1 1 1 |   6   6   3   3 |       80       80 |         3240 |   -0.009493  |
 | 1 1 1 1 |   7   7   3   3 |       81       81 |         3321 |   -0.015849  |
 | 1 1 1 1 |   8   7   3   3 |       82       81 |         3402 |   -0.007219  |
 | 1 1 1 1 |  13   7   3   3 |       87       81 |         3822 |   -0.006744  |
 | 1 1 1 1 |  14   7   4   3 |      125       81 |         7831 |   -0.007056  |
 | 1 1 1 1 |   8   8   3   3 |       82       82 |         3403 |   -0.014153  |
 | 1 1 1 1 |  10  10   3   3 |       84       84 |         3570 |   -0.027639  |
 | 1 1 1 1 |   4  10   4   3 |      115       84 |         6639 |   -0.011252  |
 | 1 1 1 1 |  11  10   4   3 |      122       84 |         7465 |   -0.015610  |
 | 1 1 1 1 |  13  13   3   3 |       87       87 |         3828 |   -0.008847  |
 | 1 1 1 1 |  14  14   3   3 |       88       88 |         3916 |   -0.015876  |
 | 1 1 1 1 |   7  14   4   3 |      118       88 |         6991 |    0.007056  |
 | 1 1 1 1 |  17  17   3   3 |       91       91 |         4186 |   -0.008870  |
 | 1 1 1 1 |  18  18   3   3 |       92       92 |         4278 |   -0.008819  |
 | 1 1 1 1 |  20  20   3   3 |       94       94 |         4465 |   -0.007837  |
 | 1 1 1 1 |   1   1   4   4 |      112      112 |         6328 |   -0.008883  |
 | 1 1 1 1 |   8   1   4   4 |      119      112 |         7133 |   -0.006866  |
 | 1 1 1 1 |   3   3   4   4 |      114      114 |         6555 |   -0.008583  |
 | 1 1 1 1 |   4   3   4   4 |      115      114 |         6669 |   -0.006673  |
 | 1 1 1 1 |  11   3   4   4 |      122      114 |         7495 |   -0.007915  |
 | 1 1 1 1 |   4   4   4   4 |      115      115 |         6670 |   -0.021614  |
 | 1 1 1 1 |  11   4   4   4 |      122      115 |         7496 |   -0.019235  |
 | 1 1 1 1 |   6   6   4   4 |      117      117 |         6903 |   -0.021703  |
 | 1 1 1 1 |   7   7   4   4 |      118      118 |         7021 |   -0.020064  |
 | 1 1 1 1 |   8   7   4   4 |      119      118 |         7139 |    0.007219  |
 | 1 1 1 1 |  13   7   4   4 |      124      118 |         7744 |    0.006744  |
 | 1 1 1 1 |  20   7   4   4 |      131      118 |         8633 |   -0.007578  |
 | 1 1 1 1 |   8   8   4   4 |      119      119 |         7140 |   -0.014153  |
 | 1 1 1 1 |  11  11   4   4 |      122      122 |         7503 |   -0.027681  |
 | 1 1 1 1 |  13  13   4   4 |      124      124 |         7750 |   -0.008847  |
 | 1 1 1 1 |  14  14   4   4 |      125      125 |         7875 |   -0.015876  |
 | 1 1 1 1 |  16  16   4   4 |      127      127 |         8128 |   -0.008867  |
 | 1 1 1 1 |  19  19   4   4 |      130      130 |         8515 |   -0.008507  |
 | 1 1 1 1 |  20  20   4   4 |      131      131 |         8646 |   -0.009126  |
 +=============================================================================+


          Norm of Printed Amplitude Vector :             0.1371

          Printed all single excitations greater than 0.003967

          Printed all double excitations greater than 0.006619





             +-------------------------------------------------------+
             ! Final results from the Coupled Cluster energy program !
             +-------------------------------------------------------+



            Total SCF   energy:                   -40.1917720926

            Total MP2-R12/A energy:               -40.3918078442

            Total CC2-R12/A energy:               -40.3929123948




                   +--------------------------------------------+
                   ! Calculating singlet intermediates for CCLR !
                   +--------------------------------------------+



       Time used in   RHS - TOTAL  :       2.45 seconds


            E-intermediates calculated 
            Fock-intermediate calculated 


   

 *******************************************************************
 *                                                                 *
 *<<<<<<<<<< OUTPUT FROM COUPLED CLUSTER LINEAR RESPONSE >>>>>>>>>>*
 *                                                                 *
 *<<<<<<<<<<     CALCULATION OF EXCITATION ENERGIES      >>>>>>>>>>*
 *                                                                 *
 *******************************************************************



                            +--------------------------+
                            !  CC2 Excitation Energies !
                            +--------------------------+


 --------------------------
 Symmetry class Nr.:     1
 Multiplicity      :     1
 --------------------------

 Length of Excitation vectors in this class is:     11310
 Converging for  8 roots.
  >> output from FNDMN3 <<
  NUMBER OF ELEMENTS OBTAINED IN FNDMN3            3
  FROM FNDMN3 : 
    PLACES OF LOWEST ELEMENTS 
     1 :    112     75     38
  MIN AND MAX IN SELECTED SUPSPACE   0.67700533843953592       0.67700533843954414     
Try to use right eigenvector as start for a left eigenvector.
 could not find required file CCRE_1___1
 IOPTSV is    33 ... program continues nevertheless.
 Vector nr.  1 of type RE and symmetry  1 was ot found on file.
 Start vector guessed from diagonal
 ... selected element no.112
Try to use right eigenvector as start for a left eigenvector.
 could not find required file CCRE_1___2
 IOPTSV is    33 ... program continues nevertheless.
 Vector nr.  2 of type RE and symmetry  1 was ot found on file.
 Start vector guessed from diagonal
 ... selected element no. 75
Try to use right eigenvector as start for a left eigenvector.
 could not find required file CCRE_1___3
 IOPTSV is    33 ... program continues nevertheless.
 Vector nr.  3 of type RE and symmetry  1 was ot found on file.
 Start vector guessed from diagonal
 ... selected element no. 38
Try to use right eigenvector as start for a left eigenvector.
 could not find required file CCRE_1___4
 IOPTSV is    33 ... program continues nevertheless.
 Vector nr.  4 of type RE and symmetry  1 was ot found on file.
 Start vector guessed from diagonal
 ... selected element no.113
Try to use right eigenvector as start for a left eigenvector.
 could not find required file CCRE_1___5
 IOPTSV is    33 ... program continues nevertheless.
 Vector nr.  5 of type RE and symmetry  1 was ot found on file.
 Start vector guessed from diagonal
 ... selected element no. 76
Try to use right eigenvector as start for a left eigenvector.
 could not find required file CCRE_1___6
 IOPTSV is    33 ... program continues nevertheless.
 Vector nr.  6 of type RE and symmetry  1 was ot found on file.
 Start vector guessed from diagonal
 ... selected element no. 39
Try to use right eigenvector as start for a left eigenvector.
 could not find required file CCRE_1___7
 IOPTSV is    33 ... program continues nevertheless.
 Vector nr.  7 of type RE and symmetry  1 was ot found on file.
 Start vector guessed from diagonal
 ... selected element no.114
Try to use right eigenvector as start for a left eigenvector.
 could not find required file CCRE_1___8
 IOPTSV is    33 ... program continues nevertheless.
 Vector nr.  8 of type RE and symmetry  1 was ot found on file.
 Start vector guessed from diagonal
 ... selected element no. 77



 >>>>> COUPLED CLUSTER RESPONSE SOLVER <<<<<

    Iter  #Vectors  time (min)   residual
    --------------------------------------

 REDUCED EIGENVALUES real part:

               Column   1
       1       0.48810365
       2       0.48885538
       3       0.49014269
       4       0.56601031
       5       0.56651031
       6       0.57036496
       7       0.57168682
       8       0.59505763
    ==== End of matrix output ====
  
 ROOT:  1 RESIDUAL TOT: 4.68476D-01
 ROOT:  2 RESIDUAL TOT: 4.71464D-01
 ROOT:  3 RESIDUAL TOT: 4.76494D-01
 ROOT:  4 RESIDUAL TOT: 4.84934D-01
 ROOT:  5 RESIDUAL TOT: 4.88061D-01
 ROOT:  6 RESIDUAL TOT: 5.00354D-01
 ROOT:  7 RESIDUAL TOT: 4.97138D-01
 ROOT:  8 RESIDUAL TOT: 4.90279D-01
      1       8         0.03     0.50E+00

 Lowest eigenvalues in this iteration: 

               Column   1
       1       0.48810365
       2       0.48885538
       3       0.49014269
       4       0.56601031
       5       0.56651031
       6       0.57036496
       7       0.57168682
       8       0.59505763
    ==== End of matrix output ====
 Dimension of the reduced space:    16
 >>> TIME USED IN THIS MICRO ITERATION        1.53


 REDUCED EIGENVALUES real part:

               Column   1
       1       0.41890120
       2       0.41905820
       3       0.41929693
       4       0.49215632
       5       0.49305846
       6       0.49402199
       7       0.49518460
       8       0.51721974
    ==== End of matrix output ====
  
 ROOT:  1 RESIDUAL TOT: 4.26329D-02
 ROOT:  2 RESIDUAL TOT: 4.29219D-02
 ROOT:  3 RESIDUAL TOT: 4.35610D-02
 ROOT:  4 RESIDUAL TOT: 5.72699D-02
 ROOT:  5 RESIDUAL TOT: 5.33584D-02
 ROOT:  6 RESIDUAL TOT: 5.48637D-02
 ROOT:  7 RESIDUAL TOT: 5.22097D-02
 ROOT:  8 RESIDUAL TOT: 8.56285D-02
      2       8         0.03     0.86E-01

 Lowest eigenvalues in this iteration: 

               Column   1
       1       0.41890120
       2       0.41905820
       3       0.41929693
       4       0.49215632
       5       0.49305846
       6       0.49402199
       7       0.49518460
       8       0.51721974
    ==== End of matrix output ====
 Dimension of the reduced space:    24
 >>> TIME USED IN THIS MICRO ITERATION        1.59


 REDUCED EIGENVALUES real part:

               Column   1
       1       0.41712883
       2       0.41721331
       3       0.41735127
       4       0.48520220
       5       0.48805028
       6       0.48863931
       7       0.49170212
       8       0.50968438
    ==== End of matrix output ====
  
 ROOT:  1 RESIDUAL TOT: 2.01543D-02
 ROOT:  2 RESIDUAL TOT: 2.07418D-02
 ROOT:  3 RESIDUAL TOT: 2.17996D-02
 ROOT:  4 RESIDUAL TOT: 5.38395D-02
 ROOT:  5 RESIDUAL TOT: 4.83392D-02
 ROOT:  6 RESIDUAL TOT: 4.45580D-02
 ROOT:  7 RESIDUAL TOT: 3.45655D-02
 ROOT:  8 RESIDUAL TOT: 6.71110D-02
      3       8         0.03     0.67E-01

 Lowest eigenvalues in this iteration: 

               Column   1
       1       0.41712883
       2       0.41721331
       3       0.41735127
       4       0.48520220
       5       0.48805028
       6       0.48863931
       7       0.49170212
       8       0.50968438
    ==== End of matrix output ====
 Dimension of the reduced space:    32
 >>> TIME USED IN THIS MICRO ITERATION        1.56


 REDUCED EIGENVALUES real part:

               Column   1
       1       0.41651445
       2       0.41657843
       3       0.41662560
       4       0.48242908
       5       0.48565018
       6       0.48643113
       7       0.49029962
       8       0.49795324
    ==== End of matrix output ====
  
 ROOT:  1 RESIDUAL TOT: 7.22860D-03
 ROOT:  2 RESIDUAL TOT: 7.59539D-03
 ROOT:  3 RESIDUAL TOT: 8.96288D-03
 ROOT:  4 RESIDUAL TOT: 2.16620D-02
 ROOT:  5 RESIDUAL TOT: 1.87945D-02
 ROOT:  6 RESIDUAL TOT: 1.94410D-02
 ROOT:  7 RESIDUAL TOT: 1.06280D-02
 ROOT:  8 RESIDUAL TOT: 6.39898D-02
      4       8         0.02     0.64E-01

 Lowest eigenvalues in this iteration: 

               Column   1
       1       0.41651445
       2       0.41657843
       3       0.41662560
       4       0.48242908
       5       0.48565018
       6       0.48643113
       7       0.49029962
       8       0.49795324
    ==== End of matrix output ====
 Dimension of the reduced space:    40
 >>> TIME USED IN THIS MICRO ITERATION        1.57


 REDUCED EIGENVALUES real part:

               Column   1
       1       0.41648828
       2       0.41652372
       3       0.41656124
       4       0.48182492
       5       0.48508145
       6       0.48593615
       7       0.49020129
       8       0.49458541
    ==== End of matrix output ====
  
 ROOT:  1 RESIDUAL TOT: 3.34556D-03
 ROOT:  2 RESIDUAL TOT: 4.38225D-03
 ROOT:  3 RESIDUAL TOT: 6.32229D-03
 ROOT:  4 RESIDUAL TOT: 1.68081D-02
 ROOT:  5 RESIDUAL TOT: 1.65298D-02
 ROOT:  6 RESIDUAL TOT: 1.87730D-02
 ROOT:  7 RESIDUAL TOT: 6.07116D-03
 ROOT:  8 RESIDUAL TOT: 4.72232D-02
      5       8         0.03     0.47E-01

 Lowest eigenvalues in this iteration: 

               Column   1
       1       0.41648828
       2       0.41652372
       3       0.41656124
       4       0.48182492
       5       0.48508145
       6       0.48593615
       7       0.49020129
       8       0.49458541
    ==== End of matrix output ====
 Dimension of the reduced space:    48
 >>> TIME USED IN THIS MICRO ITERATION        1.59


 REDUCED EIGENVALUES real part:

               Column   1
       1       0.41649778
       2       0.41652552
       3       0.41653999
       4       0.48158057
       5       0.48484562
       6       0.48526044
       7       0.49022771
       8       0.49189167
    ==== End of matrix output ====
  
 ROOT:  1 RESIDUAL TOT: 1.72184D-03
 ROOT:  2 RESIDUAL TOT: 3.43076D-03
 ROOT:  3 RESIDUAL TOT: 4.63953D-03
 ROOT:  4 RESIDUAL TOT: 1.10413D-02
 ROOT:  5 RESIDUAL TOT: 1.43242D-02
 ROOT:  6 RESIDUAL TOT: 2.27826D-02
 ROOT:  7 RESIDUAL TOT: 3.73442D-03
 ROOT:  8 RESIDUAL TOT: 3.19301D-02
      6       8         0.02     0.32E-01

 Lowest eigenvalues in this iteration: 

               Column   1
       1       0.41649778
       2       0.41652552
       3       0.41653999
       4       0.48158057
       5       0.48484562
       6       0.48526044
       7       0.49022771
       8       0.49189167
    ==== End of matrix output ====
 Dimension of the reduced space:    56
 >>> TIME USED IN THIS MICRO ITERATION        1.60


 REDUCED EIGENVALUES real part:

               Column   1
       1       0.41647662
       2       0.41648500
       3       0.41650042
       4       0.48125944
       5       0.48310359
       6       0.48424740
       7       0.49016232
       8       0.49085706
    ==== End of matrix output ====
  
 ROOT:  1 RESIDUAL TOT: 2.64144D-03
 ROOT:  2 RESIDUAL TOT: 1.15985D-03
 ROOT:  3 RESIDUAL TOT: 1.58616D-03
 ROOT:  4 RESIDUAL TOT: 1.20120D-02
 ROOT:  5 RESIDUAL TOT: 3.68413D-02
 ROOT:  6 RESIDUAL TOT: 2.20097D-02
 ROOT:  7 RESIDUAL TOT: 2.98273D-03
 ROOT:  8 RESIDUAL TOT: 1.91238D-02
      7       8         0.02     0.37E-01

 Lowest eigenvalues in this iteration: 

               Column   1
       1       0.41647662
       2       0.41648500
       3       0.41650042
       4       0.48125944
       5       0.48310359
       6       0.48424740
       7       0.49016232
       8       0.49085706
    ==== End of matrix output ====
 Dimension of the reduced space:    64
 >>> TIME USED IN THIS MICRO ITERATION        1.62

         1 4.16489614D-01-9.70319598D-07 *** CCRED  WARNING **** COMPLEX VALUE.

         2 4.16489614D-01 9.70319598D-07 *** CCRED  WARNING **** COMPLEX VALUE.


 REDUCED EIGENVALUES real part:

               Column   1
       1       0.41648961
       2       0.41648961
       3       0.41649118
       4       0.48102002
       5       0.48126775
       6       0.48233195
       7       0.49006459
       8       0.49041741
    ==== End of matrix output ====

 REDUCED EIGENVALUES imaginary part:

               Column   1
       1    -9.703196D-07
       2     9.703196D-07
    ==== End of matrix output ====
 **WARNING CCRED: COMPLEX EIGENVALUES.
  
 ROOT:  1 RESIDUAL TOT: 5.83892D-04
 ROOT:  2 RESIDUAL TOT: 5.45307D-04
 ROOT:  3 RESIDUAL TOT: 7.93437D-04
 ROOT:  4 RESIDUAL TOT: 1.16249D-02
 ROOT:  5 RESIDUAL TOT: 2.37986D-02
 ROOT:  6 RESIDUAL TOT: 3.06407D-02
 ROOT:  7 RESIDUAL TOT: 1.12524D-02
 ROOT:  8 RESIDUAL TOT: 1.12441D-02
      8       8         0.02     0.31E-01

 Lowest eigenvalues in this iteration: 

               Column   1
       1       0.41648961
       2       0.41648961
       3       0.41649118
       4       0.48102002
       5       0.48126775
       6       0.48233195
       7       0.49006459
       8       0.49041741
    ==== End of matrix output ====
 Dimension of the reduced space:    72
 >>> TIME USED IN THIS MICRO ITERATION        1.64


 REDUCED EIGENVALUES real part:

               Column   1
       1       0.41648773
       2       0.41648910
       3       0.41648934
       4       0.48095776
       5       0.48104015
       6       0.48104938
       7       0.48995112
       8       0.49032644
    ==== End of matrix output ====
  
 ROOT:  1 RESIDUAL TOT: 3.41480D-04
 ROOT:  2 RESIDUAL TOT: 1.98007D-04
 ROOT:  3 RESIDUAL TOT: 3.42005D-04
 ROOT:  4 RESIDUAL TOT: 6.32917D-03
 ROOT:  5 RESIDUAL TOT: 1.35417D-02
 ROOT:  6 RESIDUAL TOT: 1.26252D-02
 ROOT:  7 RESIDUAL TOT: 1.10677D-02
 ROOT:  8 RESIDUAL TOT: 8.81100D-03
      9       8         0.02     0.14E-01

 Lowest eigenvalues in this iteration: 

[...]
 | 1 1 1 1 |   1   4   3   1 |       75        4 |         2779 |    0.015203  |
 | 1 1 1 1 |   2   4   3   1 |       76        4 |         2854 |    0.009280  |
 | 1 1 1 1 |   3   4   3   1 |       77        4 |         2930 |   -0.009770  |
 | 1 1 1 1 |   6   4   3   1 |       80        4 |         3164 |   -0.010498  |
 | 1 1 1 1 |   7   4   3   1 |       81        4 |         3244 |    0.023637  |
 | 1 1 1 1 |   8   4   3   1 |       82        4 |         3325 |    0.021185  |
 | 1 1 1 1 |  13   4   3   1 |       87        4 |         3745 |    0.011460  |
 | 1 1 1 1 |  14   4   3   1 |       88        4 |         3832 |   -0.011692  |
 | 1 1 1 1 |  20   4   3   1 |       94        4 |         4375 |    0.013336  |
 | 1 1 1 1 |   3   4   4   1 |      114        4 |         6445 |   -0.010238  |
 | 1 1 1 1 |   6   4   4   1 |      117        4 |         6790 |   -0.013350  |
 | 1 1 1 1 |   7   4   4   1 |      118        4 |         6907 |    0.013436  |
 | 1 1 1 1 |  14   4   4   1 |      125        4 |         7754 |    0.017008  |
 | 1 1 1 1 |   4   8   3   1 |       78        8 |         3011 |   -0.017048  |
 | 1 1 1 1 |  11   8   3   1 |       85        8 |         3578 |    0.009060  |
 | 1 1 1 1 |   2   8   4   1 |      113        8 |         6336 |   -0.013143  |
 | 1 1 1 1 |   4  12   3   1 |       78       12 |         3015 |    0.014914  |
 | 1 1 1 1 |  11  12   3   1 |       85       12 |         3582 |   -0.011293  |
 | 1 1 1 1 |   2  12   4   1 |      113       12 |         6340 |    0.011498  |
 | 1 1 1 1 |  10  12   4   1 |      121       12 |         7272 |   -0.009787  |
 | 1 1 1 1 |   4   1   3   2 |       78       38 |         3041 |   -0.010274  |
 | 1 1 1 1 |   5   1   3   2 |       79       38 |         3119 |   -0.015578  |
 | 1 1 1 1 |   6   1   3   2 |       80       38 |         3198 |    0.012553  |
 | 1 1 1 1 |   2   1   4   2 |      113       38 |         6366 |    0.010547  |
 | 1 1 1 1 |   6   1   4   2 |      117       38 |         6824 |   -0.013872  |
 | 1 1 1 1 |   2   2   2   2 |       39       39 |          780 |    0.016031  |
 | 1 1 1 1 |   3   2   2   2 |       40       39 |          819 |   -0.011378  |
 | 1 1 1 1 |   5   2   2   2 |       42       39 |          900 |   -0.009658  |
 | 1 1 1 1 |   6   2   2   2 |       43       39 |          942 |   -0.009797  |
 | 1 1 1 1 |   3   2   3   2 |       77       39 |         2965 |    0.008920  |
 | 1 1 1 1 |   4   2   3   2 |       78       39 |         3042 |    0.015840  |
 | 1 1 1 1 |   6   2   3   2 |       80       39 |         3199 |   -0.011419  |
 | 1 1 1 1 |   7   2   3   2 |       81       39 |         3279 |    0.013022  |
 | 1 1 1 1 |   9   2   3   2 |       83       39 |         3442 |    0.017488  |
 | 1 1 1 1 |  10   2   3   2 |       84       39 |         3525 |    0.012446  |
 | 1 1 1 1 |  11   2   3   2 |       85       39 |         3609 |   -0.012717  |
 | 1 1 1 1 |   1   2   4   2 |      112       39 |         6255 |    0.011551  |
 | 1 1 1 1 |   2   2   4   2 |      113       39 |         6367 |    0.011004  |
 | 1 1 1 1 |   3   2   4   2 |      114       39 |         6480 |    0.022928  |
 | 1 1 1 1 |   7   2   4   2 |      118       39 |         6942 |   -0.015500  |
 | 1 1 1 1 |   8   2   4   2 |      119       39 |         7060 |    0.012247  |
 | 1 1 1 1 |   9   2   4   2 |      120       39 |         7179 |   -0.016176  |
 | 1 1 1 1 |  11   2   4   2 |      122       39 |         7420 |    0.010498  |
 | 1 1 1 1 |  13   2   4   2 |      124       39 |         7665 |    0.011409  |
 | 1 1 1 1 |   3   3   2   2 |       40       40 |          820 |    0.024919  |
 | 1 1 1 1 |   4   3   3   2 |       78       40 |         3043 |   -0.028978  |
 | 1 1 1 1 |  10   3   3   2 |       84       40 |         3526 |   -0.022052  |
 | 1 1 1 1 |  11   3   3   2 |       85       40 |         3610 |    0.021738  |
 | 1 1 1 1 |   2   3   4   2 |      113       40 |         6368 |   -0.033352  |
 | 1 1 1 1 |   3   3   4   2 |      114       40 |         6481 |   -0.013264  |
 | 1 1 1 1 |   4   3   4   2 |      115       40 |         6595 |   -0.012525  |
 | 1 1 1 1 |  10   3   4   2 |      121       40 |         7300 |    0.013191  |
 | 1 1 1 1 |  11   3   4   2 |      122       40 |         7421 |   -0.018059  |
 | 1 1 1 1 |   4   4   2   2 |       41       41 |          861 |    0.013611  |
 | 1 1 1 1 |   5   4   2   2 |       42       41 |          902 |    0.017618  |
 | 1 1 1 1 |   1   4   3   2 |       75       41 |         2816 |   -0.011569  |
 | 1 1 1 1 |   3   4   3   2 |       77       41 |         2967 |    0.014412  |
 | 1 1 1 1 |   6   4   3   2 |       80       41 |         3201 |    0.010259  |
 | 1 1 1 1 |   7   4   3   2 |       81       41 |         3281 |   -0.024603  |
 | 1 1 1 1 |   8   4   3   2 |       82       41 |         3362 |   -0.011045  |
 | 1 1 1 1 |   9   4   3   2 |       83       41 |         3444 |   -0.023938  |
 | 1 1 1 1 |  10   4   3   2 |       84       41 |         3527 |    0.009048  |
 | 1 1 1 1 |  13   4   3   2 |       87       41 |         3782 |   -0.011298  |
 | 1 1 1 1 |   3   4   4   2 |      114       41 |         6482 |    0.011095  |
 | 1 1 1 1 |   7   4   4   2 |      118       41 |         6944 |    0.012350  |
 | 1 1 1 1 |   8   4   4   2 |      119       41 |         7062 |   -0.013942  |
 | 1 1 1 1 |   9   4   4   2 |      120       41 |         7181 |    0.013693  |
 | 1 1 1 1 |  14   4   4   2 |      125       41 |         7791 |   -0.009767  |
 | 1 1 1 1 |   1   5   3   2 |       75       42 |         2817 |    0.011755  |
 | 1 1 1 1 |   2   5   3   2 |       76       42 |         2892 |    0.011642  |
 | 1 1 1 1 |   3   5   3   2 |       77       42 |         2968 |   -0.018512  |
 | 1 1 1 1 |   1   5   4   2 |      112       42 |         6258 |   -0.016724  |
 | 1 1 1 1 |   3   5   4   2 |      114       42 |         6483 |    0.009710  |
 | 1 1 1 1 |   8   5   4   2 |      119       42 |         7063 |   -0.012654  |
 | 1 1 1 1 |   1   6   3   2 |       75       43 |         2818 |   -0.022309  |
 | 1 1 1 1 |   8   6   3   2 |       82       43 |         3364 |   -0.014338  |
 | 1 1 1 1 |   1   6   4   2 |      112       43 |         6259 |    0.010972  |
 | 1 1 1 1 |   3   6   4   2 |      114       43 |         6484 |    0.012312  |
 | 1 1 1 1 |   1   7   3   2 |       75       44 |         2819 |   -0.010338  |
 | 1 1 1 1 |   4   8   3   2 |       78       45 |         3048 |   -0.020111  |
 | 1 1 1 1 |   5   8   3   2 |       79       45 |         3126 |   -0.009134  |
 | 1 1 1 1 |   2   8   4   2 |      113       45 |         6373 |    0.019272  |
 | 1 1 1 1 |   3   8   4   2 |      114       45 |         6486 |    0.008826  |
 | 1 1 1 1 |   9   9   2   2 |       46       46 |         1081 |   -0.014978  |
 | 1 1 1 1 |   2   9   3   2 |       76       46 |         2896 |   -0.024706  |
 | 1 1 1 1 |   4   9   3   2 |       78       46 |         3049 |    0.032425  |
 | 1 1 1 1 |  11   9   3   2 |       85       46 |         3616 |   -0.016390  |
 | 1 1 1 1 |   2   9   4   2 |      113       46 |         6374 |    0.020443  |
 | 1 1 1 1 |   4   9   4   2 |      115       46 |         6601 |   -0.020574  |
 | 1 1 1 1 |  10   9   4   2 |      121       46 |         7306 |   -0.018897  |
 | 1 1 1 1 |   3  10   3   2 |       77       47 |         2973 |    0.015816  |
 | 1 1 1 1 |   3  11   3   2 |       77       48 |         2974 |   -0.013932  |
 | 1 1 1 1 |   3  11   4   2 |      114       48 |         6489 |    0.013299  |
 | 1 1 1 1 |   4  13   3   2 |       78       50 |         3053 |    0.016076  |
 | 1 1 1 1 |   2  13   4   2 |      113       50 |         6378 |   -0.015792  |
 | 1 1 1 1 |   1   1   4   3 |      112       75 |         6291 |    0.012363  |
 | 1 1 1 1 |   6   1   4   3 |      117       75 |         6861 |    0.014009  |
 | 1 1 1 1 |   7   1   4   3 |      118       75 |         6978 |   -0.026506  |
 | 1 1 1 1 |   9   1   4   3 |      120       75 |         7215 |   -0.011015  |
 | 1 1 1 1 |   2   2   3   3 |       76       76 |         2926 |   -0.025282  |
 | 1 1 1 1 |   4   2   3   3 |       78       76 |         3079 |    0.018556  |
 | 1 1 1 1 |   2   2   4   3 |      113       76 |         6404 |    0.026013  |
 | 1 1 1 1 |   4   2   4   3 |      115       76 |         6631 |   -0.023073  |
 | 1 1 1 1 |   5   2   4   3 |      116       76 |         6746 |    0.009802  |
 | 1 1 1 1 |  10   2   4   3 |      121       76 |         7336 |   -0.032956  |
 | 1 1 1 1 |   3   3   3   3 |       77       77 |         3003 |   -0.009434  |
 | 1 1 1 1 |   7   3   3   3 |       81       77 |         3317 |    0.009941  |
 | 1 1 1 1 |   8   3   3   3 |       82       77 |         3398 |    0.008875  |
 | 1 1 1 1 |   2   3   4   3 |      113       77 |         6405 |    0.010684  |
 | 1 1 1 1 |   3   3   4   3 |      114       77 |         6518 |    0.016261  |
 | 1 1 1 1 |   5   3   4   3 |      116       77 |         6747 |    0.009231  |
 | 1 1 1 1 |   6   3   4   3 |      117       77 |         6863 |    0.009915  |
 | 1 1 1 1 |   8   3   4   3 |      119       77 |         7098 |    0.011200  |
 | 1 1 1 1 |  10   3   4   3 |      121       77 |         7337 |   -0.015595  |
 | 1 1 1 1 |  11   3   4   3 |      122       77 |         7458 |    0.013090  |
 | 1 1 1 1 |  14   3   4   3 |      125       77 |         7827 |    0.009437  |
 | 1 1 1 1 |   4   4   3   3 |       78       78 |         3081 |   -0.019186  |
 | 1 1 1 1 |   5   4   3   3 |       79       78 |         3159 |    0.025058  |
 | 1 1 1 1 |   3   4   4   3 |      114       78 |         6519 |    0.012133  |
 | 1 1 1 1 |   4   4   4   3 |      115       78 |         6633 |    0.035452  |
 | 1 1 1 1 |   6   4   4   3 |      117       78 |         6864 |    0.019828  |
 | 1 1 1 1 |   7   4   4   3 |      118       78 |         6981 |    0.013086  |
 | 1 1 1 1 |  10   4   4   3 |      121       78 |         7338 |    0.011285  |
 | 1 1 1 1 |  11   4   4   3 |      122       78 |         7459 |    0.042196  |
 | 1 1 1 1 |   2   5   4   3 |      113       79 |         6407 |   -0.024730  |
 | 1 1 1 1 |   3   5   4   3 |      114       79 |         6520 |   -0.011541  |
 | 1 1 1 1 |   1   6   4   3 |      112       80 |         6296 |   -0.012753  |
 | 1 1 1 1 |   4   6   4   3 |      115       80 |         6635 |   -0.014156  |
 | 1 1 1 1 |   1   7   4   3 |      112       81 |         6297 |    0.024128  |
 | 1 1 1 1 |   8   7   4   3 |      119       81 |         7102 |    0.011711  |
 | 1 1 1 1 |   7   8   4   3 |      118       82 |         6985 |   -0.014330  |
 | 1 1 1 1 |  20   8   4   3 |      131       82 |         8597 |   -0.010052  |
 | 1 1 1 1 |   1   9   4   3 |      112       83 |         6299 |    0.009751  |
 | 1 1 1 1 |  10  10   3   3 |       84       84 |         3570 |    0.009090  |
 | 1 1 1 1 |  11  10   3   3 |       85       84 |         3654 |   -0.013199  |
 | 1 1 1 1 |   2  10   4   3 |      113       84 |         6412 |    0.038766  |
 | 1 1 1 1 |   3  10   4   3 |      114       84 |         6525 |    0.019978  |
 | 1 1 1 1 |   4  10   4   3 |      115       84 |         6639 |   -0.009109  |
 | 1 1 1 1 |  10  10   4   3 |      121       84 |         7344 |   -0.008824  |
 | 1 1 1 1 |  11  10   4   3 |      122       84 |         7465 |    0.011895  |
 | 1 1 1 1 |   3  11   4   3 |      114       85 |         6526 |   -0.014030  |
 | 1 1 1 1 |   4  11   4   3 |      115       85 |         6640 |   -0.034999  |
 | 1 1 1 1 |  11  11   4   3 |      122       85 |         7466 |   -0.011577  |
 | 1 1 1 1 |   8  20   4   3 |      119       94 |         7115 |    0.009936  |
 | 1 1 1 1 |   3   2   4   4 |      114      113 |         6554 |    0.009428  |
 | 1 1 1 1 |   4   2   4   4 |      115      113 |         6668 |    0.010600  |
 | 1 1 1 1 |   6   2   4   4 |      117      113 |         6899 |   -0.018006  |
 | 1 1 1 1 |   7   2   4   4 |      118      113 |         7016 |   -0.015935  |
 | 1 1 1 1 |   6   3   4   4 |      117      114 |         6900 |   -0.012304  |
 | 1 1 1 1 |   8   3   4   4 |      119      114 |         7135 |   -0.008875  |
 | 1 1 1 1 |   4   4   4   4 |      115      115 |         6670 |   -0.010043  |
 | 1 1 1 1 |   6   4   4   4 |      117      115 |         6901 |    0.012237  |
 | 1 1 1 1 |  11  10   4   4 |      122      121 |         7502 |   -0.010275  |
 +=============================================================================+


          Norm of Printed Amplitude Vector :             0.9590

          Printed all single excitations greater than 0.160769

          Printed all double excitations greater than 0.008789


 Analysis of the Coupled Cluster Excitation Vector Number :  8
 -------------------------------------------------------------

          Excitation Energy :                            13.3285 eV


          CC_PRAM:Overall Contribution of the Different Components
          --------------------------------------------------------



          Single Excitation Contribution :              92.8524 %

          Double Excitation Contribution :               7.1476 %

          ||T1||/||T2||                  :               3.6043

          Norm of Total Amplitude Vector :               0.9994


 +=============================================================================+
 | symmetry|  orbital index  |   Excitation Numbers             |   Amplitude  |
 |  Index  |   a   b   i   j |      NAI      NBJ |     NAIBJ    |              |
 +=============================================================================+
 | 1   1   |   2       2     |       39          |              |   -0.326182  |
 | 1   1   |   3       2     |       40          |              |    0.544511  |
 | 1   1   |   4       2     |       41          |              |   -0.197348  |
 | 1   1   |   2       3     |       76          |              |    0.234117  |
 | 1   1   |   3       3     |       77          |              |    0.218707  |
 | 1   1   |   4       3     |       78          |              |    0.216488  |
 | 1   1   |   2       4     |      113          |              |    0.328086  |
 | 1   1   |   3       4     |      114          |              |    0.306156  |
 | 1   1   |   4       4     |      115          |              |    0.302457  |
 +-----------------------------------------------------------------------------+
 | 1 1 1 1 |   3   3   2   2 |       40       40 |          820 |   -0.046935  |
 +=============================================================================+


          Norm of Printed Amplitude Vector :             0.9415

          Printed all single excitations greater than 0.160600

          Printed all double excitations greater than 0.044558

 --------------------------
 Symmetry class Nr.:     1
 Multiplicity      :     3
 --------------------------

 Length of Excitation vectors in this class is:     22336
 No Excitation Energies calculated in this symmetry class

 *******************************************************************

 Ground state energy is target 

 Ecorr =                    -40.39291239475713979346

 *******************************************************************
  

 *******************************************************************************
 *******************************************************************************
 *                                                                             *
 *                                                                             *
 *                   SUMMARY OF COUPLED CLUSTER CALCULATION                    *
 *                                                                             *
 *                                                                             *
 *******************************************************************************
 *******************************************************************************

                                                                                
                                                                                
            Total SCF   energy:                   -40.1917720926                
            Total MP2-R12/A energy:               -40.3918078442                
            Total CC2-R12/A energy:               -40.3929123948                
                                                                                
                                                                                
 +=============================================================================+
 |  sym. | Exci.  |        CC2-R12/A  Excitation energies            | ||T1||  |
 |(spin, |        +------------------------------------------------------------+
 | spat) |        |     Hartree    |       eV.      |     cm-1       |    %    |
 +=============================================================================+
 | ^1A   |    1   |     0.4164885  |      11.33323  |     91408.663  |  93.31  |
 | ^1A   |    2   |     0.4164885  |      11.33323  |     91408.663  |  93.30  |
 | ^1A   |    3   |     0.4164885  |      11.33323  |     91408.663  |  93.32  |
 | ^1A   |    4   |     0.4809386  |      13.08701  |    105553.832  |  93.46  |
 | ^1A   |    5   |     0.4809386  |      13.08701  |    105553.832  |  93.42  |
 | ^1A   |    6   |     0.4809386  |      13.08701  |    105553.832  |  93.45  |
 | ^1A   |    7   |     0.4898135  |      13.32850  |    107501.646  |  93.05  |
 | ^1A   |    8   |     0.4898135  |      13.32850  |    107501.646  |  92.85  |
 +=============================================================================+
                                                                                
                                                                                
     Total energies in Hartree:                                                 
             1 ^1A        -39.9764238774                                        
             2 ^1A        -39.9764238774                                        
             3 ^1A        -39.9764238774                                        
             4 ^1A        -39.9119737466                                        
             5 ^1A        -39.9119737466                                        
             6 ^1A        -39.9119737466                                        
             7 ^1A        -39.9030988513                                        
             8 ^1A        -39.9030988513                                        

  1 a.u. =        27.21138 eV.  
  1 a.u. =    219474.62934 cm-1.
  

 *******************************************************************************
 *******************************************************************************
 *                                                                             *
 *                                                                             *
 *                      END OF COUPLED CLUSTER CALCULATION                     *
 *                                                                             *
 *                                                                             *
 *******************************************************************************
 *******************************************************************************


 >>>> CPU and wall time for CC :     101.098     107.463

 
     Date and time (Linux)  : Sun Sep  8 21:05:01 2013
     Host name              : lpqlx131.ups-tlse.fr                    


                      .-------------------------------------.
                      | End of Coupled Cluster Section (CC) |
                      `-------------------------------------'

 >>>> Total CPU  time used in DALTON:  1 minute  44 seconds
 >>>> Total wall time used in DALTON:  1 minute  51 seconds

 
     Date and time (Linux)  : Sun Sep  8 21:05:01 2013
     Host name              : lpqlx131.ups-tlse.fr                    
