

     ************************************************************************
     *************** Dalton - An Electronic Structure Program ***************
     ************************************************************************

    This is output from DALTON 2014.0
   ----------------------------------------------------------------------------
    NOTE:
     
    Dalton is an experimental code for the evaluation of molecular
    properties using (MC)SCF, DFT, CI, and CC wave functions.
    The authors accept no responsibility for the performance of
    the code or for the correctness of the results.
     
    The code (in whole or part) is provided under a licence and
    is not to be reproduced for further distribution without
    the written permission of the authors or their representatives.
     
    See the home page "http://daltonprogram.org" for further information.
     
    If results obtained with this code are published,
    the appropriate citations would be both of:
     
       K. Aidas, C. Angeli, K. L. Bak, V. Bakken, R. Bast,
       L. Boman, O. Christiansen, R. Cimiraglia, S. Coriani,
       J. Cukras, P. Dahle, E. K. Dalskov, U. Ekstroem,
       T. Enevoldsen, J. J. Eriksen, P. Ettenhuber, B. Fernandez,
       L. Ferrighi, H. Fliegl, L. Frediani, K. Hald, A. Halkier,
       C. Haettig, H. Heiberg, T. Helgaker, A. C. Hennum,
       H. Hettema, E. Hjertenaes, S. Hoest, I.-M. Hoeyvik,
       M. F. Iozzi, B. Jansik, H. J. Aa. Jensen, D. Jonsson,
       P. Joergensen, M. Kaminski, J. Kauczor, S. Kirpekar,
       T. Kjaergaard, W. Klopper, S. Knecht, R. Kobayashi, H. Koch,
       J. Kongsted, A. Krapp, K. Kristensen, A. Ligabue,
       O. B. Lutnaes, J. I. Melo, K. V. Mikkelsen, R. H. Myhre,
       C. Neiss, C. B. Nielsen, P. Norman, J. Olsen,
       J. M. H. Olsen, A. Osted, M. J. Packer, F. Pawlowski,
       T. B. Pedersen, P. F. Provasi, S. Reine, Z. Rinkevicius,
       T. A. Ruden, K. Ruud, V. Rybkin, P. Salek, C. C. M. Samson,
       A. Sanchez de Meras, T. Saue, S. P. A. Sauer,
       B. Schimmelpfennig, K. Sneskov, A. H. Steindal,
       K. O. Sylvester-Hvid, P. R. Taylor, A. M. Teale,
       E. I. Tellgren, D. P. Tew, A. J. Thorvaldsen, L. Thoegersen,
       O. Vahtras, M. A. Watson, D. J. D. Wilson, M. Ziolkowski
       and H. Agren,
       "The Dalton quantum chemistry program system",
       WIREs Comput. Mol. Sci. 2013. (doi: 10.1002/wcms.1172)
    
    and
    
       Dalton, a Molecular Electronic Structure Program,
       Release DALTON2014.0 (2014), see http://daltonprogram.org
   ----------------------------------------------------------------------------

    Authors in alphabetical order (major contribution(s) in parenthesis):

  Kestutis Aidas,           Vilnius University,           Lithuania   (QM/MM)
  Celestino Angeli,         University of Ferrara,        Italy       (NEVPT2)
  Keld L. Bak,              UNI-C,                        Denmark     (AOSOPPA, non-adiabatic coupling, magnetic properties)
  Vebjoern Bakken,          University of Oslo,           Norway      (DALTON; geometry optimizer, symmetry detection)
  Radovan Bast,             KTH Stockholm,                Sweden      (DALTON installation and execution frameworks)
  Pablo Baudin,             University of Valencia,       Spain       (Cholesky excitation energies)
  Linus Boman,              NTNU,                         Norway      (Cholesky decomposition and subsystems)
  Ove Christiansen,         Aarhus University,            Denmark     (CC module)
  Renzo Cimiraglia,         University of Ferrara,        Italy       (NEVPT2)
  Sonia Coriani,            University of Trieste,        Italy       (CC module, MCD in RESPONS)
  Janusz Cukras,            University of Trieste,        Italy       (MChD in RESPONS)
  Paal Dahle,               University of Oslo,           Norway      (Parallelization)
  Erik K. Dalskov,          UNI-C,                        Denmark     (SOPPA)
  Thomas Enevoldsen,        Univ. of Southern Denmark,    Denmark     (SOPPA)
  Janus J. Eriksen,         Aarhus University,            Denmark     (Polarizable embedding model, TDA)
  Berta Fernandez,          U. of Santiago de Compostela, Spain       (doublet spin, ESR in RESPONS)
  Lara Ferrighi,            Aarhus University,            Denmark     (PCM Cubic response)
  Heike Fliegl,             University of Oslo,           Norway      (CCSD(R12))
  Luca Frediani,            UiT The Arctic U. of Norway,  Norway      (PCM)
  Bin Gao,                  UiT The Arctic U. of Norway,  Norway      (Gen1Int library)
  Christof Haettig,         Ruhr-University Bochum,       Germany     (CC module)
  Kasper Hald,              Aarhus University,            Denmark     (CC module)
  Asger Halkier,            Aarhus University,            Denmark     (CC module)
  Erik D. Hedegaard,        Univ. of Southern Denmark,    Denmark     (Polarizable embedding model, QM/MM)
  Hanne Heiberg,            University of Oslo,           Norway      (geometry analysis, selected one-electron integrals)
  Trygve Helgaker,          University of Oslo,           Norway      (DALTON; ABACUS, ERI, DFT modules, London, and much more)
  Alf Christian Hennum,     University of Oslo,           Norway      (Parity violation)
  Hinne Hettema,            University of Auckland,       New Zealand (quadratic response in RESPONS; SIRIUS supersymmetry)
  Eirik Hjertenaes,         NTNU,                         Norway      (Cholesky decomposition)
  Maria Francesca Iozzi,    University of Oslo,           Norway      (RPA)
  Brano Jansik              Technical Univ. of Ostrava    Czech Rep.  (DFT cubic response)
  Hans Joergen Aa. Jensen,  Univ. of Southern Denmark,    Denmark     (DALTON; SIRIUS, RESPONS, ABACUS modules, London, and much more)
  Dan Jonsson,              UiT The Arctic U. of Norway,  Norway      (cubic response in RESPONS module)
  Poul Joergensen,          Aarhus University,            Denmark     (RESPONS, ABACUS, and CC modules)
  Maciej Kaminski,          University of Warsaw,         Poland      (CPPh in RESPONS)
  Joanna Kauczor,           Linkoeping University,        Sweden      (Complex polarization propagator (CPP) module)
  Sheela Kirpekar,          Univ. of Southern Denmark,    Denmark     (Mass-velocity & Darwin integrals)
  Wim Klopper,              KIT Karlsruhe,                Germany     (R12 code in CC, SIRIUS, and ABACUS modules)
  Stefan Knecht,            ETH Zurich,                   Switzerland (Parallel CI and MCSCF)
  Rika Kobayashi,           Australian National Univ.,    Australia   (DIIS in CC, London in MCSCF)
  Henrik Koch,              NTNU,                         Norway      (CC module, Cholesky decomposition)
  Jacob Kongsted,           Univ. of Southern Denmark,    Denmark     (Polarizable embedding model, QM/MM)
  Andrea Ligabue,           University of Modena,         Italy       (CTOCD, AOSOPPA)
  Nanna H. List             Univ. of Southern Denmark,    Denmark     (Polarizable embedding model)
  Ola B. Lutnaes,           University of Oslo,           Norway      (DFT Hessian)
  Juan I. Melo,             University of Buenos Aires,   Argentina   (LRESC, Relativistic Effects on NMR Shieldings)
  Kurt V. Mikkelsen,        University of Copenhagen,     Denmark     (MC-SCRF and QM/MM)
  Rolf H. Myhre,            NTNU,                         Norway      (Cholesky, subsystems and ECC2)
  Christian Neiss,          Univ. Erlangen-Nuernberg,     Germany     (CCSD(R12))
  Christian B. Nielsen,     University of Copenhagen,     Denmark     (QM/MM)
  Patrick Norman,           Linkoeping University,        Sweden      (Cubic response and complex response in RESPONS)
  Jeppe Olsen,              Aarhus University,            Denmark     (SIRIUS CI/density modules)
  Jogvan Magnus H. Olsen,   Univ. of Southern Denmark,    Denmark     (Polarizable embedding model, QM/MM)
  Anders Osted,             Copenhagen University,        Denmark     (QM/MM)
  Martin J. Packer,         University of Sheffield,      UK          (SOPPA)
  Filip Pawlowski,          Kazimierz Wielki University,  Poland      (CC3)
  Morten N. Pedersen,       Univ. of Southern Denmark,    Denmark     (Polarizable embedding model)
  Thomas B. Pedersen,       University of Oslo,           Norway      (Cholesky decomposition)
  Patricio F. Provasi,      University of Northeastern,   Argentina   (Analysis of coupling constants in localized orbitals)
  Zilvinas Rinkevicius,     KTH Stockholm,                Sweden      (open-shell DFT, ESR)
  Elias Rudberg,            KTH Stockholm,                Sweden      (DFT grid and basis info)
  Torgeir A. Ruden,         University of Oslo,           Norway      (Numerical derivatives in ABACUS)
  Kenneth Ruud,             UiT The Arctic U. of Norway,  Norway      (DALTON; ABACUS magnetic properties and much more)
  Pawel Salek,              KTH Stockholm,                Sweden      (DALTON; DFT code)
  Claire C. M. Samson       University of Karlsruhe       Germany     (Boys localization, r12 integrals in ERI)
  Alfredo Sanchez de Meras, University of Valencia,       Spain       (CC module, Cholesky decomposition)
  Trond Saue,               Paul Sabatier University,     France      (direct Fock matrix construction)
  Stephan P. A. Sauer,      University of Copenhagen,     Denmark     (SOPPA(CCSD), SOPPA prop., AOSOPPA, vibrational g-factors)
  Bernd Schimmelpfennig,    Forschungszentrum Karlsruhe,  Germany     (AMFI module)
  Kristian Sneskov,         Aarhus University,            Denmark     (Polarizable embedding model, QM/MM)
  Arnfinn H. Steindal,      UiT The Arctic U. of Norway,  Norway      (parallel QM/MM, Polarizable embedding model)
  Casper Steinmann,         Univ. of Southern Denmark,    Denmark     (QFIT, Polarizable embedding model)
  K. O. Sylvester-Hvid,     University of Copenhagen,     Denmark     (MC-SCRF)
  Peter R. Taylor,          VLSCI/Univ. of Melbourne,     Australia   (Symmetry handling ABACUS, integral transformation)
  Andrew M. Teale,          University of Nottingham,     England     (DFT-AC, DFT-D)
  David P. Tew,             University of Bristol,        England     (CCSD(R12))
  Olav Vahtras,             KTH Stockholm,                Sweden      (triplet response, spin-orbit, ESR, TDDFT, open-shell DFT)
  David J. Wilson,          La Trobe University,          Australia   (DFT Hessian and DFT magnetizabilities)
  Hans Agren,               KTH Stockholm,                Sweden      (SIRIUS module, RESPONS, MC-SCRF solvation model)
 --------------------------------------------------------------------------------

     Date and time (Linux)  : Fri Nov  7 14:20:11 2014
     Host name              : nat-100219.local                        

 * Work memory size             :    64000000 =  488.28 megabytes.

 * Directories for basis set searches:
   1) /Users/hjj/prog/gitDalton_repo_2013/build_dal14_mpi49/test/dft_hsrohf
   2) /Users/hjj/prog/gitDalton_repo_2013/build_dal14_mpi49/basis


Compilation information
-----------------------

 Who compiled             | hjj
 Host                     | nat-100219.local
 System                   | Darwin-13.4.0
 CMake generator          | Unix Makefiles
 Processor                | x86_64
 64-bit integers          | OFF
 MPI                      | ON
 Fortran compiler         | /opt/local/bin/mpif90
 C compiler               | /opt/local/bin/mpicc
 C compiler version       | gcc-mp-4.9 (MacPorts gcc49 4.9.1_1) 4.9.1
 C++ compiler             | /opt/local/bin/mpicxx
 C++ compiler version     | unknown
 BLAS                     | /opt/local/lib/libf77blas.a;/usr/lib/libcblas.dyli
                          | b;/opt/local/lib/libatlas.a
 LAPACK                   | /opt/local/lib/libatlas.a;/usr/lib/liblapack.dylib
 Static linking           | OFF
 Last Git revision        | 37bb0c4f8391f7f0b855b133c7117149c8dfeea8
 Configuration time       | 2014-11-07 14:13:18.731344

 * Sequential calculation.


   Content of the .dal input file
 ----------------------------------

**DALTON                                          
.RUN WAVE                                         
.DIRECT                                           
**WAVE FUNCTION                                   
.DFT                                              
 LDA                                              
*SCF INPUT                                        
.SHIFT                                            
 -0.15                                            
#.DFTTHR                                          
#1e-15 1e-15 1e-15                                
#.RADINT                                          
#1e-15                                            
#.ANGINT                                          
#41                                               
.DOUBLY                                           
 2 0 0 0                                          
.SINGLY                                           
 1 1 1 0                                          
**END OF                                          


   Content of the .mol file
 ----------------------------

BASIS                                                                          
STO-3G                                                                         
H atom. DFT test.                                                              
TEST.                                                                          
    2             *                                                            
        6.   1                                                                 
C         0.000000         0.000000         0.000000                           
        1.   2                                                                 
H        0.0000000         0.741767         0.930527                           
H        0.0000000        -0.741767         0.930527                           
                                                                               


       *******************************************************************
       *********** Output from DALTON general input processing ***********
       *******************************************************************

 --------------------------------------------------------------------------------
   Overall default print level:    0
   Print level for DALTON.STAT:    1

    AO-direct calculation (in sections where implemented)
    HERMIT 1- and 2-electron integral sections will be executed
    "Old" integral transformation used (limited to max 255 basis functions)
    Wave function sections will be executed (SIRIUS module)
 --------------------------------------------------------------------------------


   ****************************************************************************
   *************** Output of molecule and basis set information ***************
   ****************************************************************************


    The two title cards from your ".mol" input:
    ------------------------------------------------------------------------
 1: H atom. DFT test.                                                       
 2: TEST.                                                                   
    ------------------------------------------------------------------------



@ WARNING - deprecated old .mol fixed format input has been detected:
    2             *                                                             
@ WARNING - this input format may not be supported in future releases.




  Atomic type no.    1
  --------------------
  Nuclear charge:   6.00000
  Number of symmetry independent centers:    1
  Number of basis sets to read;    2
  Basis set file used for this atomic type with Z =   6 :
     "/Users/hjj/prog/gitDalton_repo_2013/build_dal14_mpi49/basis/STO-3G"

  Atomic type no.    2
  --------------------
  Nuclear charge:   1.00000
  Number of symmetry independent centers:    2
  Number of basis sets to read;    2
  Basis set file used for this atomic type with Z =   1 :
     "/Users/hjj/prog/gitDalton_repo_2013/build_dal14_mpi49/basis/STO-3G"


                      SYMADD: Requested addition of symmetry
                      --------------------------------------

 Symmetry test threshold:  5.00E-06

@   The molecule is centered at center of mass and rotated
@   so principal axes of inertia are along coordinate axes.

 Symmetry class found: C(2v)          

 Symmetry Independent Centres             
 ----------------------------
       6 :      0.00000000     0.00000000    -0.13382303  Isotope  1
       1 :      0.00000000     0.74176700     0.79670397  Isotope  1

 The following elements were found:   X  Y     


                         SYMGRP: Point group information
                         -------------------------------

@    Full point group is: C(2v)          
@    Represented as:      C2v

@  * The irrep name for each symmetry:    1: A1     2: B1     3: B2     4: A2 

   * The point group was generated by:

      Reflection in the yz-plane
      Reflection in the xz-plane

   * Group multiplication table

        |  E   C2z  Oxz  Oyz
   -----+--------------------
     E  |  E   C2z  Oxz  Oyz
    C2z | C2z   E   Oyz  Oxz
    Oxz | Oxz  Oyz   E   C2z
    Oyz | Oyz  Oxz  C2z   E 

   * Character table

        |  E   C2z  Oxz  Oyz
   -----+--------------------
    A1  |   1    1    1    1
    B1  |   1   -1    1   -1
    B2  |   1   -1   -1    1
    A2  |   1    1   -1   -1

   * Direct product table

        | A1   B1   B2   A2 
   -----+--------------------
    A1  | A1   B1   B2   A2 
    B1  | B1   A1   A2   B2 
    B2  | B2   A2   A1   B1 
    A2  | A2   B2   B1   A1 


                                 Isotopic Masses
                                 ---------------

                           C          12.000000
                           H   _1      1.007825
                           H   _2      1.007825

                       Total mass:    14.015650 amu
                       Natural abundance:  98.870 %

 Center-of-mass coordinates (a.u.):    0.000000    0.000000    0.000000


  Atoms and basis sets
  --------------------

  Number of atom types :    2
  Total number of atoms:    3

  Basis set used is "STO-3G" from the basis set library.

  label    atoms   charge   prim   cont     basis
  ----------------------------------------------------------------------
  C           1    6.0000    15     5      [6s3p|2s1p]                                        
  H           2    1.0000     3     1      [3s|1s]                                            
  ----------------------------------------------------------------------
  total:      3    8.0000    21     7
  ----------------------------------------------------------------------

  Threshold for neglecting AO integrals:  1.00D-12


  Cartesian Coordinates (a.u.)
  ----------------------------

  Total number of coordinates:    9
  C       :     1  x   0.0000000000    2  y   0.0000000000    3  z  -0.1338230298
  H   / 1 :     4  x   0.0000000000    5  y   0.7417670000    6  z   0.7967039702
  H   / 2 :     7  x   0.0000000000    8  y  -0.7417670000    9  z   0.7967039702


  Symmetry Coordinates
  --------------------

  Number of coordinates in each symmetry:     3    2    3    1

  Symmetry  A1  ( 1)

    1   C     z    3
    2   H     y    [  5  -    8 ]/2
    3   H     z    [  6  +    9 ]/2

  Symmetry  B1  ( 2)

    4   C     x    1
    5   H     x    [  4  +    7 ]/2

  Symmetry  B2  ( 3)

    6   C     y    2
    7   H     y    [  5  +    8 ]/2
    8   H     z    [  6  -    9 ]/2

  Symmetry  A2  ( 4)

    9   H     x    [  4  -    7 ]/2


   Interatomic separations (in Angstrom):
   --------------------------------------

            C           H   _1      H   _2
            ------      ------      ------
 C     :    0.000000
 H   _1:    0.629721    0.000000
 H   _2:    0.629721    0.785052    0.000000


  Max    interatomic separation is    0.7851 Angstrom (    1.4835 Bohr)
  between atoms    3 and    2, "H   _2" and "H   _1".

  Min HX interatomic separation is    0.6297 Angstrom (    1.1900 Bohr)

@ WARNING: Number of short HX and YX bond lengths:    2    0
@ WARNING: If not intentional, maybe your coordinates were in Angstrom,
@ WARNING: but "Angstrom" was not specified in .mol file


  Bond distances (Angstrom):
  --------------------------

                  atom 1     atom 2       distance
                  ------     ------       --------
  bond distance:  H   _1     C            0.629721
  bond distance:  H   _2     C            0.629721
  bond distance:  H   _2     H   _1       0.785052


  Bond angles (degrees):
  ----------------------

                  atom 1     atom 2     atom 3         angle
                  ------     ------     ------         -----
  bond angle:     H   _1     C          H   _2        77.120
  bond angle:     C          H   _1     H   _2        51.440
  bond angle:     C          H   _2     H   _1        51.440




 Principal moments of inertia (u*A**2) and principal axes
 --------------------------------------------------------

   IA       0.310565          0.000000    0.000000    1.000000
   IB       0.418450          0.000000    1.000000    0.000000
   IC       0.729015          1.000000    0.000000    0.000000


 Rotational constants
 --------------------

@    The molecule is planar.

               A                   B                   C

        1627289.3852        1207741.1057         693235.6769 MHz
           54.280531           40.285907           23.123853 cm-1


@  Nuclear repulsion energy :   10.758104072289 Hartree


  Symmetry Orbitals
  -----------------

  Number of orbitals in each symmetry:           4    1    2    0


  Symmetry  A1 ( 1)

    1     C        1s         1
    2     C        1s         2
    3     C        2pz        5
    4     H        1s         6 +    7


  Symmetry  B1 ( 2)

    5     C        2px        3


  Symmetry  B2 ( 3)

    6     C        2py        4
    7     H        1s         6 -    7


  No orbitals in symmetry  A2 ( 4)

  Symmetries of electric field:  B1 (2)  B2 (3)  A1 (1)

  Symmetries of magnetic field:  B2 (3)  B1 (2)  A2 (4)


                     .---------------------------------------.
                     | Starting in Integral Section (HERMIT) |
                     `---------------------------------------'



 ***************************************************************************************
 ****************** Output from **INTEGRALS input processing (HERMIT) ******************
 ***************************************************************************************


 - Using defaults, no **INTEGRALS input found

 Default print level:        1

 * Nuclear model: Point charge

 Calculation of one-electron Hamiltonian integrals.

 Center of mass  (bohr):      0.000000000000      0.000000000000      0.000000000000
 Operator center (bohr):      0.000000000000      0.000000000000      0.000000000000
 Gauge origin    (bohr):      0.000000000000      0.000000000000      0.000000000000
 Dipole origin   (bohr):      0.000000000000      0.000000000000      0.000000000000


     ************************************************************************
     ************************** Output from HERINT **************************
     ************************************************************************

 >>>> Total CPU  time used in HERMIT:   0.00 seconds
 >>>> Total wall time used in HERMIT:   0.00 seconds


                        .----------------------------------.
                        | End of Integral Section (HERMIT) |
                        `----------------------------------'



                   .--------------------------------------------.
                   | Starting in Wave Function Section (SIRIUS) |
                   `--------------------------------------------'


 *** Output from Huckel module :

     Using EWMO model:          F
     Using EHT  model:          T
     Number of Huckel orbitals each symmetry:    4    1    2    0

 Huckel EHT eigenvalues for symmetry :  1
          -11.460872      -1.198492      -0.451898      -0.107870

 Huckel EHT eigenvalues for symmetry :  2
           -0.406900

 Huckel EHT eigenvalues for symmetry :  3
           -0.494440      -0.150728

 **********************************************************************
 *SIRIUS* a direct, restricted step, second order MCSCF program       *
 **********************************************************************

 
     Date and time (Linux)  : Fri Nov  7 14:20:11 2014
     Host name              : nat-100219.local                        

 Title lines from ".mol" input file:
     H atom. DFT test.                                                       
     TEST.                                                                   

 Print level on unit LUPRI =   2 is   0
 Print level on unit LUW4  =   2 is   5

@    Restricted, high spin open shell Kohn-Sham DFT calculation.
 Fock matrices are calculated directly without use of integrals on disk.

 Initial molecular orbitals are obtained according to
 ".MOSTART EHT   " input option

     Wave function specification
     ============================
@    Wave function type        >>> KS-DFT <<<
@    Number of closed shell electrons           4
@    Number of electrons in active shells       3
@    Total charge of the molecule               1

@    Spin multiplicity and 2 M_S                4         3
@    Total number of symmetries                 4 (point group: C2v)
@    Reference state symmetry                   4 (irrep name : A2 )
 
     This is a DFT calculation of type: LDA

     Orbital specifications
     ======================
     Abelian symmetry species          All |    1    2    3    4
                                           |  A1   B1   B2   A2 
                                       --- |  ---  ---  ---  ---
@    Occupied SCF orbitals               2 |    2    0    0    0
@    Open shell SCF orbitals             3 |    1    1    1    0
     Secondary orbitals                  2 |    1    0    1    0
     Total number of orbitals            7 |    4    1    2    0
     Number of basis functions           7 |    4    1    2    0

     Optimization information
     ========================
@    Number of configurations                 1
@    Number of orbital rotations              6
     ------------------------------------------
@    Total number of variables                7

     Maximum number of Fock   iterations      0
     Maximum number of DIIS   iterations     60
     Maximum number of QC-SCF iterations     60
     Threshold for SCF convergence     1.00D-05
 
     This is a DFT calculation of type: LDA


 *********************************************
 ***** DIIS optimization of Hartree-Fock *****
 *********************************************

 C1-DIIS algorithm; max error vectors =    6

 Iter      Total energy        Error norm    Delta(E)  DIIS dim.
 -----------------------------------------------------------------------------
   1  Screening settings (-IFTHRS, JTDIIS, DIFDEN, times)   -5    1    F  1.41D-03  2.00D-03
@  1    -36.4851473572        1.48324D+00   -3.65D+01    1
      Virial theorem: -V/T =      1.941532
@      MULPOP C       0.65; H   _1  0.18; H   _2  0.18; 
   1  Level shift: doubly occupied orbital energies shifted by -1.05D-01
               and singly occupied orbital energies shifted by -5.25D-02
 -----------------------------------------------------------------------------
   2  Screening settings (-IFTHRS, JTDIIS, DIFDEN, times)   -6    2    F  1.32D-03  2.00D-03
@  2    -36.6119303784        6.12929D-02   -1.27D-01    2
      Virial theorem: -V/T =      1.947505
@      MULPOP C       0.03; H   _1  0.48; H   _2  0.48; 
   2  Level shift: doubly occupied orbital energies shifted by -7.35D-02
               and singly occupied orbital energies shifted by -3.67D-02
 -----------------------------------------------------------------------------
   3  Screening settings (-IFTHRS, JTDIIS, DIFDEN, times)   -7    3    F  1.20D-03  1.00D-03
@  3    -36.6123590822        9.40227D-03   -4.29D-04    3
      Virial theorem: -V/T =      1.947067
@      MULPOP C      -0.01; H   _1  0.50; H   _2  0.50; 
   3  Level shift: doubly occupied orbital energies shifted by -5.14D-02
               and singly occupied orbital energies shifted by -2.57D-02
 -----------------------------------------------------------------------------
   4  Screening settings (-IFTHRS, JTDIIS, DIFDEN, times)   -8    4    F  1.19D-03  1.00D-03
@  4    -36.6123658819        2.58501D-04   -6.80D-06    4
      Virial theorem: -V/T =      1.947167
@      MULPOP C      -0.00; H   _1  0.50; H   _2  0.50; 
 -----------------------------------------------------------------------------
   5  Screening settings (-IFTHRS, JTDIIS, DIFDEN, times)   -9    5    F  1.19D-03  1.00D-03
@  5    -36.6123658902        1.26729D-05   -8.30D-09    5
      Virial theorem: -V/T =      1.947167
@      MULPOP C      -0.00; H   _1  0.50; H   _2  0.50; 
 -----------------------------------------------------------------------------
   6  Screening settings (-IFTHRS, JTDIIS, DIFDEN, times)   -9    6    F  2.27D-03  2.00D-03
@  6    -36.6123658902        1.59427D-06   -2.98D-11    6

@ *** DIIS converged in   6 iterations !
@     Converged SCF energy, gradient:    -36.612365890220    1.59D-06
    - total time used in SIRFCK :              0.00 seconds


 *** SCF orbital energy analysis ***

 Orbital energy analysis for an open-shell system.
 Orbital energies are not well-defined for open-shell systems
   here is used block diagonalization of the FD=FC+FV Fock matrix.
 NOTE that Koopmans' theorem is not fulfilled for this case.

 Only the five lowest virtual orbital energies printed in each symmetry.

 Number of electrons :    4
 Orbital occupations :    2    0    0    0

 Sym       Kohn-Sham orbital energies

1 A1    -10.48306698    -1.39985606    -0.69960496     0.78883121

2 B1     -0.68353390

3 B2     -0.93827758     0.38467644

    E(LUMO) :     0.38467644 au (symmetry 3)
  - E(HOMO) :    -1.39985606 au (symmetry 1)
  ------------------------------------------
    gap     :     1.78453250 au

and energy and symmetry of HSROHF open shell orbitals:
    -0.69960496         1
    -0.68353390         2
    -0.93827758         3

 NOTE: MOLECULAR ORBITALS ARE NOT CANONICAL HARTREE-FOCK ORBITALS

 Largest off-diagonal Fock matrix element is  2.82D-02

 >>> Writing SIRIFC interface file

 >>>> CPU and wall time for SCF :       0.510       0.520


                       .-----------------------------------.
                       | >>> Final results from SIRIUS <<< |
                       `-----------------------------------'


@    Spin multiplicity:           4
@    Spatial symmetry:            4 ( irrep  A2  in C2v )
@    Total charge of molecule:    1

@    Final DFT energy:            -36.612365890220                 
@    Nuclear repulsion:            10.758104072289
@    Electronic energy:           -47.370469962509

@    Final gradient norm:           0.000001594270

 
     Date and time (Linux)  : Fri Nov  7 14:20:11 2014
     Host name              : nat-100219.local                        

 (Only coefficients >0.0100 are printed.)

 Molecular orbitals for symmetry species 1  (A1 )
 ------------------------------------------------

    Orbital         1        2        3        4
   1 C   :1s     0.9908  -0.2239   0.1713   0.0970
   2 C   :1s     0.0692   0.4965  -0.7448  -3.3005
   3 C   :2pz    0.0275   0.4296   0.7304  -1.8268
   4 H   :1s    -0.0243   0.2083   0.0766   2.1028

 Molecular orbitals for symmetry species 2  (B1 )
 ------------------------------------------------

    Orbital         1
   1 C   :2px    1.0000

 Molecular orbitals for symmetry species 3  (B2 )
 ------------------------------------------------

    Orbital         1        2
   1 C   :2py    0.6983  -1.3918
   2 H   :1s     0.4170   1.7627



 >>>> Total CPU  time used in SIRIUS :      0.51 seconds
 >>>> Total wall time used in SIRIUS :      0.52 seconds

 
     Date and time (Linux)  : Fri Nov  7 14:20:11 2014
     Host name              : nat-100219.local                        

 NOTE:    2 warnings have been issued.
 Check output, result, and error files for "WARNING".


                     .---------------------------------------.
                     | End of Wave Function Section (SIRIUS) |
                     `---------------------------------------'

 >>>> Total CPU  time used in DALTON:   0.54 seconds
 >>>> Total wall time used in DALTON:   0.55 seconds

 
     Date and time (Linux)  : Fri Nov  7 14:20:11 2014
     Host name              : nat-100219.local                        
