

     ************************************************************************
     *************** Dalton - An Electronic Structure Program ***************
     ************************************************************************

    This is output from DALTON (Release Dalton2013 patch 0)
   ----------------------------------------------------------------------------
    NOTE:
     
    Dalton is an experimental code for the evaluation of molecular
    properties using (MC)SCF, DFT, CI, and CC wave functions.
    The authors accept no responsibility for the performance of
    the code or for the correctness of the results.
     
    The code (in whole or part) is provided under a licence and
    is not to be reproduced for further distribution without
    the written permission of the authors or their representatives.
     
    See the home page "http://daltonprogram.org" for further information.
     
    If results obtained with this code are published,
    the appropriate citations would be both of:
     
       K. Aidas, C. Angeli, K. L. Bak, V. Bakken, R. Bast,
       L. Boman, O. Christiansen, R. Cimiraglia, S. Coriani,
       P. Dahle, E. K. Dalskov, U. Ekstroem, T. Enevoldsen,
       J. J. Eriksen, P. Ettenhuber, B. Fernandez, L. Ferrighi,
       H. Fliegl, L. Frediani, K. Hald, A. Halkier, C. Haettig,
       H. Heiberg, T. Helgaker, A. C. Hennum, H. Hettema,
       E. Hjertenaes, S. Hoest, I.-M. Hoeyvik, M. F. Iozzi,
       B. Jansik, H. J. Aa. Jensen, D. Jonsson, P. Joergensen,
       J. Kauczor, S. Kirpekar, T. Kjaergaard, W. Klopper,
       S. Knecht, R. Kobayashi, H. Koch, J. Kongsted, A. Krapp,
       K. Kristensen, A. Ligabue, O. B. Lutnaes, J. I. Melo,
       K. V. Mikkelsen, R. H. Myhre, C. Neiss, C. B. Nielsen,
       P. Norman, J. Olsen, J. M. H. Olsen, A. Osted,
       M. J. Packer, F. Pawlowski, T. B. Pedersen, P. F. Provasi,
       S. Reine, Z. Rinkevicius, T. A. Ruden, K. Ruud, V. Rybkin,
       P. Salek, C. C. M. Samson, A. Sanchez de Meras, T. Saue,
       S. P. A. Sauer, B. Schimmelpfennig, K. Sneskov,
       A. H. Steindal, K. O. Sylvester-Hvid, P. R. Taylor,
       A. M. Teale, E. I. Tellgren, D. P. Tew, A. J. Thorvaldsen,
       L. Thoegersen, O. Vahtras, M. A. Watson, D. J. D. Wilson,
       M. Ziolkowski and H. Agren.
       The Dalton quantum chemistry program system.
       WIREs Comput. Mol. Sci. 2013. doi: 10.1002/wcms.1172
    
    and
    
       Dalton, a Molecular Electronic Structure Program,
       Release DALTON2013.0 (2013), see http://daltonprogram.org
   ----------------------------------------------------------------------------

    Authors in alphabetical order (major contribution(s) in parenthesis):

  Kestutis Aidas,           Vilnius University,           Lithuania   (QM/MM)
  Celestino Angeli,         University of Ferrara,        Italy       (NEVPT2)
  Keld L. Bak,              UNI-C,                        Denmark     (AOSOPPA, non-adiabatic coupling, magnetic properties)
  Vebjoern Bakken,          University of Oslo,           Norway      (DALTON; geometry optimizer, symmetry detection)
  Radovan Bast,             KTH Stockholm                 Sweden      (DALTON installation and execution frameworks)
  Linus Boman,              NTNU,                         Norway      (Cholesky decomposition and subsystems)
  Ove Christiansen,         Aarhus University,            Denmark     (CC module)
  Renzo Cimiraglia,         University of Ferrara,        Italy       (NEVPT2)
  Sonia Coriani,            University of Trieste,        Italy       (CC module, MCD in RESPONS)
  Paal Dahle,               University of Oslo,           Norway      (Parallelization)
  Erik K. Dalskov,          UNI-C,                        Denmark     (SOPPA)
  Thomas Enevoldsen,        Univ. of Southern Denmark,    Denmark     (SOPPA)
  Janus J. Eriksen,         Aarhus University,            Denmark     (PE-MP2/SOPPA, TDA)
  Berta Fernandez,          U. of Santiago de Compostela, Spain       (doublet spin, ESR in RESPONS)
  Lara Ferrighi,            Aarhus University,            Denmark     (PCM Cubic response)
  Heike Fliegl,             University of Oslo,           Norway      (CCSD(R12))
  Luca Frediani,            UiT The Arctic U. of Norway,  Norway      (PCM)
  Bin Gao,                  UiT The Arctic U. of Norway,  Norway      (Gen1Int library)
  Christof Haettig,         Ruhr-University Bochum,       Germany     (CC module)
  Kasper Hald,              Aarhus University,            Denmark     (CC module)
  Asger Halkier,            Aarhus University,            Denmark     (CC module)
  Hanne Heiberg,            University of Oslo,           Norway      (geometry analysis, selected one-electron integrals)
  Trygve Helgaker,          University of Oslo,           Norway      (DALTON; ABACUS, ERI, DFT modules, London, and much more)
  Alf Christian Hennum,     University of Oslo,           Norway      (Parity violation)
  Hinne Hettema,            University of Auckland,       New Zealand (quadratic response in RESPONS; SIRIUS supersymmetry)
  Eirik Hjertenaes,         NTNU,                         Norway      (Cholesky decomposition)
  Maria Francesca Iozzi,    University of Oslo,           Norway      (RPA)
  Brano Jansik              Technical Univ. of Ostrava    Czech Rep.  (DFT cubic response)
  Hans Joergen Aa. Jensen,  Univ. of Southern Denmark,    Denmark     (DALTON; SIRIUS, RESPONS, ABACUS modules, London, and much more)
  Dan Jonsson,              UiT The Arctic U. of Norway,  Norway      (cubic response in RESPONS module)
  Poul Joergensen,          Aarhus University,            Denmark     (RESPONS, ABACUS, and CC modules)
  Joanna Kauczor,           Linkoeping University,        Sweden      (Complex polarization propagator (CPP) module)
  Sheela Kirpekar,          Univ. of Southern Denmark,    Denmark     (Mass-velocity & Darwin integrals)
  Wim Klopper,              KIT Karlsruhe,                Germany     (R12 code in CC, SIRIUS, and ABACUS modules)
  Stefan Knecht,            ETH Zurich,                   Switzerland (Parallel CI and MCSCF)
  Rika Kobayashi,           Australian National Univ.,    Australia   (DIIS in CC, London in MCSCF)
  Henrik Koch,              NTNU,                         Norway      (CC module, Cholesky decomposition)
  Jacob Kongsted,           Univ. of Southern Denmark,    Denmark     (Polarizable embedding, QM/MM)
  Andrea Ligabue,           University of Modena,         Italy       (CTOCD, AOSOPPA)
  Ola B. Lutnaes,           University of Oslo,           Norway      (DFT Hessian)
  Juan I. Melo,             University of Buenos Aires,   Argentina   (LRESC, Relativistic Effects on NMR Shieldings)
  Kurt V. Mikkelsen,        University of Copenhagen,     Denmark     (MC-SCRF and QM/MM)
  Rolf H. Myhre,            NTNU,                         Norway      (Cholesky, subsystems and ECC2)
  Christian Neiss,          Univ. Erlangen-Nuernberg,     Germany     (CCSD(R12))
  Christian B. Nielsen,     University of Copenhagen,     Denmark     (QM/MM)
  Patrick Norman,           Linkoeping University,        Sweden      (Cubic response and complex response in RESPONS)
  Jeppe Olsen,              Aarhus University,            Denmark     (SIRIUS CI/density modules)
  Jogvan Magnus H. Olsen,   Univ. of Southern Denmark,    Denmark     (Polarizable embedding, PE library, QM/MM)
  Anders Osted,             Copenhagen University,        Denmark     (QM/MM)
  Martin J. Packer,         University of Sheffield,      UK          (SOPPA)
  Filip Pawlowski,          Kazimierz Wielki University   Poland      (CC3)
  Thomas B. Pedersen,       University of Oslo,           Norway      (Cholesky decomposition)
  Patricio F. Provasi,      University of Northeastern,   Argentina   (Analysis of coupling constants in localized orbitals)
  Zilvinas Rinkevicius,     KTH Stockholm,                Sweden      (open-shell DFT, ESR)
  Elias Rudberg,            KTH Stockholm,                Sweden      (DFT grid and basis info)
  Torgeir A. Ruden,         University of Oslo,           Norway      (Numerical derivatives in ABACUS)
  Kenneth Ruud,             UiT The Arctic U. of Norway,  Norway      (DALTON; ABACUS magnetic properties and  much more)
  Pawel Salek,              KTH Stockholm,                Sweden      (DALTON; DFT code)
  Claire C. M. Samson       University of Karlsruhe       Germany     (Boys localization, r12 integrals in ERI)
  Alfredo Sanchez de Meras, University of Valencia,       Spain       (CC module, Cholesky decomposition)
  Trond Saue,               Paul Sabatier University,     France      (direct Fock matrix construction)
  Stephan P. A. Sauer,      University of Copenhagen,     Denmark     (SOPPA(CCSD), SOPPA prop., AOSOPPA, vibrational g-factors)
  Bernd Schimmelpfennig,    Forschungszentrum Karlsruhe,  Germany     (AMFI module)
  Kristian Sneskov,         Aarhus University,            Denmark     (QM/MM, PE-CC)
  Arnfinn H. Steindal,      UiT The Arctic U. of Norway,  Norway      (parallel QM/MM)
  K. O. Sylvester-Hvid,     University of Copenhagen,     Denmark     (MC-SCRF)
  Peter R. Taylor,          VLSCI/Univ. of Melbourne,     Australia   (Symmetry handling ABACUS, integral transformation)
  Andrew M. Teale,          University of Nottingham,     England     (DFT-AC, DFT-D)
  David P. Tew,             University of Bristol,        England     (CCSD(R12))
  Olav Vahtras,             KTH Stockholm,                Sweden      (triplet response, spin-orbit, ESR, TDDFT, open-shell DFT)
  David J. Wilson,          La Trobe University,          Australia   (DFT Hessian and DFT magnetizabilities)
  Hans Agren,               KTH Stockholm,                Sweden      (SIRIUS module, RESPONS, MC-SCRF solvation model)
 --------------------------------------------------------------------------------

     Date and time (Linux)  : Sun Sep  8 21:08:40 2013
     Host name              : lpqlx131.ups-tlse.fr                    

 * Work memory size             :    64000000 =  488.28 megabytes.

 * Directories for basis set searches:
   1) /home/bast/DALTON-2013.0-Source/build/test_cc2_r12_aux_h2o_a2
   2) /home/bast/DALTON-2013.0-Source/build/basis


Compilation information
-----------------------

 Who compiled             | bast
 Host                     | lpqlx131.ups-tlse.fr
 System                   | Linux-3.8.5-201.fc18.x86_64
 CMake generator          | Unix Makefiles
 Processor                | x86_64
 64-bit integers          | OFF
 MPI                      | OFF
 Fortran compiler         | /usr/bin/gfortran
 Fortran compiler version | GNU Fortran (GCC) 4.7.2 20121109 (Red Hat 4.7.2-8)
 C compiler               | /usr/bin/gcc
 C compiler version       | gcc (GCC) 4.7.2 20121109 (Red Hat 4.7.2-8)
 C++ compiler             | /usr/bin/g++
 C++ compiler version     | g++ (GCC) 4.7.2 20121109 (Red Hat 4.7.2-8)
 Static linking           | OFF
 Last Git revision        | f34203295a86316e27f9e7b44f9b6769c4a046c0
 Configuration time       | 2013-09-08 20:31:27.952056


   Content of the .dal input file
 ----------------------------------

**DALTON INPUT                                    
.RUN WAVE FUNCTION                                
*MOLBAS                                           
.R12AUX                                           
**INTEGRALS                                       
.R12                                              
**WAVE FUNCTION                                   
.CC                                               
*ORBITAL INPUT                                    
.MOSTART                                          
 H1DIAG                                           
.R12ORB                                           
 1                                                
*SCF INPUT                                        
.THRESH                                           
 1.0D-10                                          
*CC INPUT                                         
.CC2                                              
.PRINT                                            
 3                                                
.FREEZE                                           
 1 0                                              
.THRENR                                           
 1.0D-12                                          
.MAX IT                                           
 100                                              
*CCEXCI                                           
.THREXC                                           
 1.D-10                                           
.NCCEXCI                                          
 8                                                
*R12 INPUT                                        
.NO HYB                                           
.CC2                                              
 2B                                               
**END OF DALTON INPUT                             


   Content of the .mol file
 ----------------------------

BASIS                                                                          
6-311G 6-311++G**                                                              
H2O without symmetry                                                           
                                                                               
    4    0                                                                     
 1      8.    1                                                                
O     0.0 -0.2249058930 0.0                                                    
 1      1.    2                                                                
H     1.45235 0.899623 0.0                                                     
H    -1.45235 0.899623 0.0                                                     
 2      8.    1                                                                
O     0.0 -0.2249058930 0.0                                                    
 2      1.    2                                                                
H     1.45235 0.899623 0.0                                                     
H    -1.45235 0.899623 0.0                                                     


       *******************************************************************
       *********** Output from DALTON general input processing ***********
       *******************************************************************

 --------------------------------------------------------------------------------
   Overall default print level:    0
   Print level for DALTON.STAT:    1

    HERMIT 1- and 2-electron integral sections will be executed
    "Old" integral transformation used (limited to max 255 basis functions)
    Wave function sections will be executed (SIRIUS module)
 --------------------------------------------------------------------------------


 Changes of defaults for *MOLBAS:
 --------------------------------

 Print level in molecule setup (READIN):    1

 .R12AUX: Reading auxiliary basis sets from .mol file for R12



   ****************************************************************************
   *************** Output of molecule and basis set information ***************
   ****************************************************************************


    The two title cards from your ".mol" input:
    ------------------------------------------------------------------------
 1: H2O without symmetry                                                    
 2:                                                                         
    ------------------------------------------------------------------------

  Atomic type no.    1
  --------------------
  Nuclear charge:   8.00000
  Number of symmetry independent centers:    1
  Number of basis sets to read;    1
  Basis set file used for this atomic type with Z =   8 :
     "/home/bast/DALTON-2013.0-Source/build/basis/6-311G"

  Atomic type no.    2
  --------------------
  Nuclear charge:   1.00000
  Number of symmetry independent centers:    2
  Number of basis sets to read;    1
  Basis set file used for this atomic type with Z =   1 :
     "/home/bast/DALTON-2013.0-Source/build/basis/6-311G"

  Atomic type no.    3
  --------------------
  Nuclear charge:   8.00000
  Number of symmetry independent centers:    1
  This is an auxiliary basis for R12, MBSI:    2
  Basis set file used for this atomic type with Z =   8 :
     "/home/bast/DALTON-2013.0-Source/build/basis/6-311++G**"

  Info about the basis set file: your basis has no documentation.
  Basis set: 6-311++G**                                                                      

  Atomic type no.    4
  --------------------
  Nuclear charge:   1.00000
  Number of symmetry independent centers:    2
  This is an auxiliary basis for R12, MBSI:    2
  Basis set file used for this atomic type with Z =   1 :
     "/home/bast/DALTON-2013.0-Source/build/basis/6-311++G**"

  Info about the basis set file: your basis has no documentation.
  Basis set: 6-311++G**                                                                      


                         SYMGRP: Point group information
                         -------------------------------

Point group: C1 


                                 Isotopic Masses
                                 ---------------

                           O          15.994915
                           H           1.007825
                           H           1.007825
                           O           0.000000
                           H           0.000000
                           H           0.000000

                       Total mass:    18.010565 amu
                       Natural abundance:   0.000 %

 Center-of-mass coordinates (a.u.):    0.000000   -0.099054    0.000000


  Atoms and basis sets
  --------------------

  Number of atom types :    4
  Total number of atoms:    6

  Basis set 1 refers to the basis "6-311G" from the basis set library.

  Basis set 2 refers to the basis "6-311++G**" from the basis set library.

  label  basis   atoms  charge   prim  cont     basis
  ------------------------------------------------------------------------------
  O        1       1    8.0000    26    13      [11s5p|4s3p]                                       
  H        1       2    1.0000     5     3      [5s|3s]                                            
  O        2       1    0.0000    35    22      [12s6p1d|5s4p1d]                                   
  H        2       2    0.0000     9     7      [6s1p|4s1p]                                        
  ------------------------------------------------------------------------------
  total:           6   10.0000    89    55
  ------------------------------------------------------------------------------
  Spherical harmonic basis used.

  Threshold for neglecting AO integrals:  1.00D-12


  Cartesian Coordinates (a.u.)
  ----------------------------

  Total number of coordinates:   18
  O       :     1  x   0.0000000000    2  y  -0.2249058930    3  z   0.0000000000
  H       :     4  x   1.4523500000    5  y   0.8996230000    6  z   0.0000000000
  H       :     7  x  -1.4523500000    8  y   0.8996230000    9  z   0.0000000000
  O       :    10  x   0.0000000000   11  y  -0.2249058930   12  z   0.0000000000
  H       :    13  x   1.4523500000   14  y   0.8996230000   15  z   0.0000000000
  H       :    16  x  -1.4523500000   17  y   0.8996230000   18  z   0.0000000000


   Interatomic separations (in Angstrom):
   --------------------------------------

            O           H           H           O           H           H     
            ------      ------      ------      ------      ------      ------
 O     :    0.000000
 H     :    0.972000    0.000000
 H     :    0.972000    1.537101    0.000000
 O     :    0.000000    0.972000    0.972000    0.000000
 H     :    0.972000    0.000000    1.537101    0.972000    0.000000
 H     :    0.972000    1.537101    0.000000    0.972000    1.537101    0.000000


  Max    interatomic separation is    1.5371 Angstrom (    2.9047 Bohr)
  between atoms    3 and    2, "H     " and "H     ".

  Min HX interatomic separation is    0.0000 Angstrom (    0.0000 Bohr)

  Min YX interatomic separation is    0.0000 Angstrom (    0.0000 Bohr)

WARNING: Number of short HX and YX bond lengths:    2    5
WARNING: If not intentional, maybe your coordinates were in Angstrom,
WARNING: but "Angstrom" was not specified in .mol file


  Bond distances (Angstrom):
  --------------------------

                  atom 1     atom 2       distance
                  ------     ------       --------
  bond distance:  H          O            0.972000
  bond distance:  H          O            0.972000


  Bond angles (degrees):
  ----------------------

                  atom 1     atom 2     atom 3         angle
                  ------     ------     ------         -----
  bond angle:     H          O          H            104.500




 Principal moments of inertia (u*A**2) and principal axes
 --------------------------------------------------------

   IA       0.633889          1.000000    0.000000    0.000000
   IB       1.190584          0.000000    1.000000    0.000000
   IC       1.824473          0.000000    0.000000    1.000000


 Rotational constants
 --------------------

 The molecule is planar.

               A                   B                   C

         797267.3370         424479.9976         277000.0210 MHz
           26.593976           14.159129            9.239726 cm-1


@  Nuclear repulsion energy :    9.055004525638 Hartree

  Number of main orbitals in each symmetry:          19
  Number of auxiliary functions in each symmetry:    36

  Number of floating/multiple basis set orbitals :    3


                     .---------------------------------------.
                     | Starting in Integral Section (HERMIT) |
                     `---------------------------------------'



    *************************************************************************
    ****************** Output from HERMIT input processing ******************
    *************************************************************************


 Default print level:        1

 * Nuclear model: Point charge

 Calculation of one- and two-electron Hamiltonian integrals.

 The following one-electron property integrals are calculated as requested:
          - overlap integrals
          - Cartesian multipole moment integrals of orders 2 and lower

 Center of mass  (bohr):      0.000000000000     -0.099054390664      0.000000000000
 Operator center (bohr):      0.000000000000      0.000000000000      0.000000000000
 Gauge origin    (bohr):      0.000000000000      0.000000000000      0.000000000000
 Dipole origin   (bohr):      0.000000000000      0.000000000000      0.000000000000


     ************************************************************************
     ************************** Output from HERINT **************************
     ************************************************************************


 Threshold for neglecting two-electron integrals:  1.00D-12
 Number of two-electron integrals written:        9694 (  0.8% )
 Megabytes written:                              0.117

 >>>> Total CPU  time used in HERMIT:   0.05 seconds
 >>>> Total wall time used in HERMIT:   0.05 seconds


                        .----------------------------------.
                        | End of Integral Section (HERMIT) |
                        `----------------------------------'



                   .--------------------------------------------.
                   | Starting in Wave Function Section (SIRIUS) |
                   `--------------------------------------------'

 NCCEXCI for singlet:           8

 >>>> Detected R12 input:
 Direct Fock matrix formation switched on!
 Scale factors for CC excitations manifolds:
 for bra states (projection manifold):   1.0000000000000000     
 for ket states (operator manifold)  :   1.0000000000000000     

 **********************************************************************
 *SIRIUS* a direct, restricted step, second order MCSCF program       *
 **********************************************************************

 
     Date and time (Linux)  : Sun Sep  8 21:08:40 2013
     Host name              : lpqlx131.ups-tlse.fr                    

 Title lines from ".mol" input file:
     H2O without symmetry                                                    
                                                                             

 Print level on unit LUPRI =   2 is   0
 Print level on unit LUW4  =   2 is   5

@    (Integral direct) CC calculation.

@    This is a combination run starting with
@              a restricted, closed shell Hartree-Fock calculation

 Fock matrices are calculated directly without use of integrals on disk.

 Initial molecular orbitals are obtained according to
 ".MOSTART H1DIAG" input option

     Wave function specification
     ============================

     For the specification of the Coupled Cluster: see later.

@    For the wave function of type :      >>> CC <<<
@    Number of closed shell electrons          10
@    Number of electrons in active shells       0
@    Total charge of the molecule               0

@    Spin multiplicity and 2 M_S                1         0
     Total number of symmetries                 1
@    Reference state symmetry                   1

     Orbital specifications
     ======================
     Abelian symmetry species          All |    1
                                       --- |  ---
@    Occupied SCF orbitals               5 |    5
     Secondary orbitals                 14 |   14
     Total number of orbitals           19 |   19
     Number of basis functions          55 |   55

     Optimization information
     ========================
@    Number of configurations                 1
@    Number of orbital rotations             70
     ------------------------------------------
@    Total number of variables               71

     Maximum number of Fock   iterations      0
     Maximum number of DIIS   iterations     60
     Maximum number of QC-SCF iterations     60
     Threshold for SCF convergence     1.00D-10


 Changes of defaults for CC:
 ---------------------------


 -Implicit frozen core calculation
 -Excitation energies calculated
  


 >>>>> DIIS optimization of Hartree-Fock <<<<<

 C1-DIIS algorithm; max error vectors =   10

 Iter      Total energy        Error norm    Delta(E)  DIIS dim.
 -----------------------------------------------------------------------------
   1  Screening settings (-IFTHRS, DIFDEN)   -7    T

***  INFO  GETGAB: GABAOXXX not found on AOPROPER. Regenerating.
@  1    -61.9064868849        2.30241D+01   -6.19D+01    1
      Virial theorem: -V/T =      1.513486
@      MULPOP O      -1.89; H       0.95; H       0.95; 
 -----------------------------------------------------------------------------
   2  Screening settings (-IFTHRS, DIFDEN)   -7    T
@  2    -67.5183719652        8.23744D+00   -5.61D+00    2
      Virial theorem: -V/T =      2.101881
@      MULPOP O       5.53; H      -2.77; H      -2.77; 
 -----------------------------------------------------------------------------
   3  Screening settings (-IFTHRS, DIFDEN)   -7    T
@  3    -73.7989315582        7.47588D+00   -6.28D+00    3
      Virial theorem: -V/T =      1.837753
@      MULPOP O      -1.68; H       0.84; H       0.84; 
 -----------------------------------------------------------------------------
   4  Screening settings (-IFTHRS, DIFDEN)   -7    T
@  4    -75.6877048599        2.58523D+00   -1.89D+00    4
      Virial theorem: -V/T =      1.948019
@      MULPOP O      -1.30; H       0.65; H       0.65; 
 -----------------------------------------------------------------------------
   5  Screening settings (-IFTHRS, DIFDEN)   -7    T
@  5    -76.0063796622        1.33067D-01   -3.19D-01    5
      Virial theorem: -V/T =      1.999631
@      MULPOP O      -0.88; H       0.44; H       0.44; 
 -----------------------------------------------------------------------------
   6  Screening settings (-IFTHRS, DIFDEN)   -9    F
@  6    -76.0082538736        7.28542D-02   -1.87D-03    6
      Virial theorem: -V/T =      2.001202
@      MULPOP O      -0.80; H       0.40; H       0.40; 
 -----------------------------------------------------------------------------
   7  Screening settings (-IFTHRS, DIFDEN)   -9    T
@  7    -76.0085436998        8.05379D-03   -2.90D-04    7
      Virial theorem: -V/T =      1.999713
@      MULPOP O      -0.79; H       0.40; H       0.40; 
 -----------------------------------------------------------------------------
   8  Screening settings (-IFTHRS, DIFDEN)   -9    T
@  8    -76.0085548901        1.44595D-03   -1.12D-05    8
      Virial theorem: -V/T =      1.999736
@      MULPOP O      -0.79; H       0.40; H       0.40; 
 -----------------------------------------------------------------------------
   9  Screening settings (-IFTHRS, DIFDEN)  -11    F
@  9    -76.0085552884        2.64137D-04   -3.98D-07    9
      Virial theorem: -V/T =      1.999736
@      MULPOP O      -0.79; H       0.40; H       0.40; 
 -----------------------------------------------------------------------------
  10  Screening settings (-IFTHRS, DIFDEN)  -11    T
@ 10    -76.0085552985        6.66374D-05   -1.01D-08   10
      Virial theorem: -V/T =      1.999736
@      MULPOP O      -0.79; H       0.40; H       0.40; 
 -----------------------------------------------------------------------------
  11  Screening settings (-IFTHRS, DIFDEN)  -11    T
@ 11    -76.0085552989        1.06287D-05   -3.37D-10   10
      Virial theorem: -V/T =      1.999735
@      MULPOP O      -0.79; H       0.40; H       0.40; 
 -----------------------------------------------------------------------------
  12  Screening settings (-IFTHRS, DIFDEN)  -13    F
@ 12    -76.0085552989        8.16565D-07   -7.67D-12   10
      Virial theorem: -V/T =      1.999735
@      MULPOP O      -0.79; H       0.40; H       0.40; 
 -----------------------------------------------------------------------------
  13  Screening settings (-IFTHRS, DIFDEN)  -16    F
@ 13    -76.0085552989        1.02986D-07    0.00D+00   10
      Virial theorem: -V/T =      1.999735
@      MULPOP O      -0.79; H       0.40; H       0.40; 
 -----------------------------------------------------------------------------
  14  Screening settings (-IFTHRS, DIFDEN)  -16    T
@ 14    -76.0085552989        9.29853D-09   -1.42D-14   10
      Virial theorem: -V/T =      1.999735
@      MULPOP O      -0.79; H       0.40; H       0.40; 
 -----------------------------------------------------------------------------
  15  Screening settings (-IFTHRS, DIFDEN)  -16    T
@ 15    -76.0085552989        7.17402D-10   -2.84D-14   10
      Virial theorem: -V/T =      1.999735
@      MULPOP O      -0.79; H       0.40; H       0.40; 
 -----------------------------------------------------------------------------
  16  Screening settings (-IFTHRS, DIFDEN)  -16    T
@ 16    -76.0085552989        6.72432D-11   -1.42D-14   10

@ *** DIIS converged in  16 iterations !
@     Converged SCF energy, gradient:    -76.008555298862    6.72D-11
    - total time used in SIRFCK :              0.00 seconds


 *** SCF orbital energy analysis ***

 Only the five lowest virtual orbital energies printed in each symmetry.

 Number of electrons :   10
 Orbital occupations :    5

 Sym       Hartree-Fock orbital energies

  1    -20.55592147    -1.35102480    -0.70370486    -0.56185905    -0.50342293
         0.13921191     0.21169558     0.55054994     0.58845705     1.00026935

    E(LUMO) :     0.13921191 au (symmetry 1)
  - E(HOMO) :    -0.50342293 au (symmetry 1)
  ------------------------------------------
    gap     :     0.64263484 au

 >>> Writing SIRIFC interface file <<<

  Canonical primary and secondary basis sets
  ISYM       NORB1 MBAS1       NORB2 MBAS2
     1          19    19          36    36

 Computation of exchange matrix done [6]

 AUXILIARY BASIS LOW EIGENVALUES
 ISYM         EIGENVALUE
   1      0.000049708918
 >>>  Time used in R12AUX     is   0.14 seconds

 >>>> CPU and wall time for SCF :       0.287       0.289


                       .-----------------------------------.
                       | >>> Final results from SIRIUS <<< |
                       `-----------------------------------'


@    Spin multiplicity:           1
@    Spatial symmetry:            1
@    Total charge of molecule:    0

@    Final HF energy:             -76.008555298862                 
@    Nuclear repulsion:             9.055004525638
@    Electronic energy:           -85.063559824500

@    Final gradient norm:           0.000000000067

 
     Date and time (Linux)  : Sun Sep  8 21:08:40 2013
     Host name              : lpqlx131.ups-tlse.fr                    

 (Only coefficients >0.0100 are printed.)

 Molecular orbitals for symmetry species  1
 ------------------------------------------

    Orbital         2        3        4        5        6        7        8
   1 O   :1s    -0.1134   0.0000  -0.0407   0.0000  -0.0336  -0.0000  -0.0000
   2 O   :1s    -0.1903   0.0000  -0.0688   0.0000  -0.0549  -0.0000  -0.0000
   3 O   :1s     0.5437  -0.0000   0.2107   0.0000   0.1062   0.0000   0.0000
   4 O   :1s     0.4447  -0.0000   0.2804   0.0000   0.8499   0.0000   0.0000
   5 O   :2px   -0.0000   0.2202   0.0000   0.0000   0.0000  -0.1268   0.1298
   6 O   :2py    0.0402   0.0000  -0.2509   0.0000   0.0819   0.0000   0.0000
   7 O   :2pz    0.0000   0.0000   0.0000   0.2938   0.0000   0.0000   0.0000
   8 O   :2px   -0.0000   0.3665   0.0000   0.0000   0.0000  -0.1479   0.1938
   9 O   :2py    0.0904   0.0000  -0.3802   0.0000   0.1352   0.0000   0.0000
  10 O   :2pz    0.0000   0.0000   0.0000   0.4406   0.0000   0.0000   0.0000
  11 O   :2px   -0.0000   0.2281   0.0000   0.0000  -0.0000  -0.5262   1.0399
  12 O   :2py    0.0556  -0.0000  -0.3818   0.0000   0.2260   0.0000   0.0000
  13 O   :2pz    0.0000   0.0000   0.0000   0.4866   0.0000   0.0000   0.0000
  14 H   :1s     0.0956   0.1568  -0.0890   0.0000  -0.0390   0.0267  -0.0865
  15 H   :1s     0.0391   0.2014  -0.1100   0.0000   0.0361  -0.0962  -1.4112
  16 H   :1s    -0.0037   0.0526  -0.0334   0.0000  -0.8239   1.5270   0.8063
  17 H   :1s     0.0956  -0.1568  -0.0890   0.0000  -0.0390  -0.0267   0.0865
  18 H   :1s     0.0391  -0.2014  -0.1100   0.0000   0.0361   0.0962   1.4112
  19 H   :1s    -0.0037  -0.0526  -0.0334   0.0000  -0.8239  -1.5270  -0.8063



 >>>> Total CPU  time used in SIRIUS :      0.29 seconds
 >>>> Total wall time used in SIRIUS :      0.29 seconds

 
     Date and time (Linux)  : Sun Sep  8 21:08:40 2013
     Host name              : lpqlx131.ups-tlse.fr                    


                     .---------------------------------------.
                     | End of Wave Function Section (SIRIUS) |
                     `---------------------------------------'



                    .------------------------------------------.
                    | Starting in Coupled Cluster Section (CC) |
                    `------------------------------------------'

  

 *******************************************************************************
 *******************************************************************************
 *                                                                             *
 *                                                                             *
 *                    START OF COUPLED CLUSTER CALCULATION                     *
 *                                                                             *
 *                                                                             *
 *******************************************************************************
 *******************************************************************************


  I am freezing!
  >> output from FNDMN3 <<
  NUMBER OF ELEMENTS OBTAINED IN FNDMN3            1
  FROM FNDMN3 : 
    PLACES OF LOWEST ELEMENTS 
     1 :      1
  MIN AND MAX IN SELECTED SUPSPACE   -20.555921468345090       -20.555921468345090     
 Freezing HF-orbital   1 of symmetry   1 and with orbital energy  -20.5559
 In total frozen-core per symmetry-class:  1
 


 CCR12 ANSATZ =   2

 CCR12 APPROX =  10


  I am freezing!
 Freezing HF-orbital   1 of symmetry   1 and with orbital energy  -20.5559
 In total frozen-core per symmetry-class:  1
 
   NRHF   :       5
   NRHFS  :       6
   NORB1  :      19
   NORB2  :      36

 Number of primary orbitals             :           19
 Number of secondary orbitals           :           36
 Total number of orbitals               :           55
 Total number of basis functions        :           55
 Number of (i|p') integrals             :          275
 Number of (i|u') integrals             :          275
 Number of (Ip'|1/r12|jL) integrals     :          275
 Number of (ip'|1/r12|jq') integrals    :        37950
 Number of (ip'|r12|jq') integrals      :        37950
 Number of (ip'|[T1,r12]|jq') integrals :        75625
 Threshold for R12 contributions            =  0.00000    
 Threshold for singular value decomposition = 0.100000E-11

 The B matrix is transformed into an orthogonal basis
 and inverted by diagonalization

 ******************************************************************************
 The MP2-R12/A and MP2-R12/B energies are computed as described in:
 W. Klopper and C. C. M. Samson, J. Chem. Phys. 116, 6397-6410 (2002).
 ------------------------------------------------------------------------------
 Ansatz 2 is used and results are printed for approximations A and B.
 ******************************************************************************

 Core memory required by CCSD_R12 :         205987  (double words)

 Computation of (ip'|r12|jq') integrals done
 >>>  Time used in R  [6]     is   2.06 seconds
 Backtransformation of (ip'|r12|jq') integrals done
 Computation of V^aj_kl intermediate done

 >>> Time used for V^aj_kl is    0.01 seconds

 Computation of (ip'|1/r12|jq') integrals done
 >>>  Time used in 1/R[5]     is   0.71 seconds
 Computation of (ip'|r12|jq')X(p'r')(kr'|r12|lq') integrals done
 Computation of (i'p'|r12|jq') integrals done
 >>>  Time used in R  [6]     is   2.11 seconds
 Computation of (ip'|[T,r12]|jq') integrals done
 >>>  Time used in T,R[5]     is   1.03 seconds


                 +-----------------------------------------------+
                 ! MP2-R12 ansatz := (1 - O1 - O2 + O1*O2) * R12 !
                 +-----------------------------------------------+



                         +--------------------------------+
                         ! Auxiliary-basis MP2-R12 method !
                         +--------------------------------+


 SECOND-ORDER R12/A   PAIR ENERGIES:

   1   -0.006307917   -0.014536331    0.000000000   -0.000000000    0.239281E-01    0.482425    
   2   -0.009083517   -0.018658750   -0.005268403   -0.008090653    0.241510E-01    0.485384    
   3   -0.015713492   -0.026977973    0.000000000   -0.000000000    0.244240E-01    0.489486    
   4   -0.006726494   -0.014237561   -0.004985686   -0.008130533    0.242062E-01    0.486165    
   5   -0.011371386   -0.018420634   -0.011120957   -0.025360182    0.244912E-01    0.490608    
   6   -0.011772679   -0.026918466    0.000000000   -0.000000000    0.245608E-01    0.491835    
   7   -0.006740954   -0.015690896   -0.005299964   -0.009434592    0.242296E-01    0.486503    
   8   -0.006360905   -0.013351873   -0.011517441   -0.028226514    0.245196E-01    0.491100    
   9   -0.006784382   -0.017683808   -0.011723341   -0.029069588    0.245901E-01    0.492374    
  10   -0.010482080   -0.027686072    0.000000000   -0.000000000    0.246196E-01    0.492935    

       -0.091343806   -0.194162363   -0.049915792   -0.108312062

              MP2-R12/A   correlation energy =   -0.302474425

 SECOND-ORDER R12/B   PAIR ENERGIES:

   1   -0.006307917   -0.011871904    0.000000000   -0.000000000    0.203698         1.67884    
   2   -0.009083517   -0.016033387   -0.005268403   -0.007149185    0.165825         1.41192    
   3   -0.015713492   -0.023993147    0.000000000   -0.000000000    0.127363         1.14302    
   4   -0.006726494   -0.011752415   -0.004985686   -0.007004406    0.157460         1.35319    
   5   -0.011371386   -0.016382026   -0.011120957   -0.021033733    0.118811         1.08374    
   6   -0.011772679   -0.022494628    0.000000000   -0.000000000    0.110197         1.02431    
   7   -0.006740954   -0.012449023   -0.005299964   -0.007933314    0.154005         1.32897    
   8   -0.006360905   -0.010766742   -0.011517441   -0.022990092    0.115271         1.05928    
   9   -0.006784382   -0.013584906   -0.011723341   -0.023784460    0.106627        0.999777    
  10   -0.010482080   -0.022700021    0.000000000   -0.000000000    0.103042        0.975213    

       -0.091343806   -0.162028201   -0.049915792   -0.089895190

              MP2-R12/B   correlation energy =   -0.251923390
 >>>  Time used in E(R12)     is   0.84 seconds
 Time for MP2-R12 part cpu :   6.7830000000000004     
 Time for MP2-R12 part wall:   6.8490000069141388     

  I am freezing!
  >> output from FNDMN3 <<
  NUMBER OF ELEMENTS OBTAINED IN FNDMN3            1
  FROM FNDMN3 : 
    PLACES OF LOWEST ELEMENTS 
     1 :      1
  MIN AND MAX IN SELECTED SUPSPACE   -20.555921468345090       -20.555921468345090     
 Freezing HF-orbital   1 of symmetry   1 and with orbital energy  -20.5559
 In total frozen-core per symmetry-class:  1
 
 Preparing R12 Ansatz 2/3 ... ONEAUX= F
   

 *******************************************************************
 *                                                                 *
 *<<<<<<<<<<                                             >>>>>>>>>>*
 *<<<<<<<<<< OUTPUT FROM COUPLED CLUSTER ENERGY PROGRAM  >>>>>>>>>>*
 *<<<<<<<<<<                                             >>>>>>>>>>*
 *                                                                 *
 *******************************************************************


             The Direct Coupled Cluster Energy Program
             -----------------------------------------


          Number of t1 amplitudes                 :        56
          Number of t2 amplitudes                 :      1596
          Number of t2' amplitudes for R12 part   :       210
          Total number of amplitudes in ccsd      :      1862

 Iter.  1: Coupled cluster MP2-R12/B energy :     -76.2604786890918831
     Conventional correlation energy:    -0.0836012860512341
     R12 correlation energy         :    -0.1683221041784566
     Total correlation energy       :    -0.2519233902296907


       Iteration no.:  1
       -----------------

       Time used in   RHS - TOTAL  :       0.18 seconds
       Norm^2 of omega1 after ccvec:        0.3670044148D-02
       Norm^2 of omega2 after ccvec:        0.2320816274D-28
       Norm^2 of Omegar12  in NXTAM:        0.1481595658D-25
 Iter.  1: Coupled cluster CC2-R12/B energy :     -76.2604577838014563
     Conventional correlation energy:    -0.0835803807608357
     R12 correlation energy         :    -0.1683221041784256
     Total correlation energy       :    -0.2519024849392614


       Iteration no.:  2
       -----------------

       Time used in   RHS - TOTAL  :       0.18 seconds
       Norm^2 of omega1 after ccvec:        0.4270520818D-04
       Norm^2 of omega2 after ccvec:        0.6518824556D-04
       Norm^2 of Omegar12  in NXTAM:        0.1413048645D-04
 Iter.  2: Coupled cluster CC2-R12/B energy :     -76.2631390415002386
     Conventional correlation energy:    -0.0853552763466041
     R12 correlation energy         :    -0.1692284662914380
     Total correlation energy       :    -0.2545837426380421


       Iteration no.:  3
       -----------------

       Time used in   RHS - TOTAL  :       0.18 seconds
       Norm^2 of omega1 after ccvec:        0.4572783646D-05
       Norm^2 of omega2 after ccvec:        0.5494504911D-05
       Norm^2 of Omegar12  in NXTAM:        0.1631055978D-04
 Iter.  3: Coupled cluster CC2-R12/B energy :     -76.2624981039430168
     Conventional correlation energy:    -0.0852298906546736
     R12 correlation energy         :    -0.1687129144261493
     Total correlation energy       :    -0.2539428050808229


       Iteration no.:  4
       -----------------

       Time used in   RHS - TOTAL  :       0.18 seconds
       Norm^2 of omega1 after ccvec:        0.3770608551D-06
       Norm^2 of omega2 after ccvec:        0.8918470833D-06
       Norm^2 of Omegar12  in NXTAM:        0.2820297593D-05
 Iter.  4: Coupled cluster CC2-R12/B energy :     -76.2624953490278870
     Conventional correlation energy:    -0.0853341052660284
     R12 correlation energy         :    -0.1686059448996729
     Total correlation energy       :    -0.2539400501657013


       Iteration no.:  5
       -----------------

       Time used in   RHS - TOTAL  :       0.18 seconds
       Norm^2 of omega1 after ccvec:        0.6930847899D-07
       Norm^2 of omega2 after ccvec:        0.3788612784D-06
       Norm^2 of Omegar12  in NXTAM:        0.5396318723D-05
 Iter.  5: Coupled cluster CC2-R12/B energy :     -76.2624917112218839
     Conventional correlation energy:    -0.0853766223481927
     R12 correlation energy         :    -0.1685597900115038
     Total correlation energy       :    -0.2539364123596965


       Iteration no.:  6
       -----------------

       Time used in   RHS - TOTAL  :       0.18 seconds
       Norm^2 of omega1 after ccvec:        0.1308025736D-07
       Norm^2 of omega2 after ccvec:        0.1118223743D-06
       Norm^2 of Omegar12  in NXTAM:        0.5556011734D-06
 Iter.  6: Coupled cluster CC2-R12/B energy :     -76.2624709962678651
     Conventional correlation energy:    -0.0853818641946589
     R12 correlation energy         :    -0.1685338332110088
     Total correlation energy       :    -0.2539156974056677


       Iteration no.:  7
       -----------------

       Time used in   RHS - TOTAL  :       0.18 seconds
       Norm^2 of omega1 after ccvec:        0.2184854843D-08
       Norm^2 of omega2 after ccvec:        0.2541788914D-07
       Norm^2 of Omegar12  in NXTAM:        0.5652701120D-06
 Iter.  7: Coupled cluster CC2-R12/B energy :     -76.2624748741659317
     Conventional correlation energy:    -0.0853922363198478
     R12 correlation energy         :    -0.1685273389838971
     Total correlation energy       :    -0.2539195753037449


       Iteration no.:  8
       -----------------

       Time used in   RHS - TOTAL  :       0.18 seconds
       Norm^2 of omega1 after ccvec:        0.1643706892D-09
       Norm^2 of omega2 after ccvec:        0.2770203479D-07
       Norm^2 of Omegar12  in NXTAM:        0.2066786399D-06
 Iter.  8: Coupled cluster CC2-R12/B energy :     -76.2624761415200112
     Conventional correlation energy:    -0.0853946811106141
     R12 correlation energy         :    -0.1685261615472046
     Total correlation energy       :    -0.2539208426578187


       Iteration no.:  9
       -----------------

       Time used in   RHS - TOTAL  :       0.18 seconds
       Norm^2 of omega1 after ccvec:        0.5466172250D-10
       Norm^2 of omega2 after ccvec:        0.2078694494D-07
       Norm^2 of Omegar12  in NXTAM:        0.1945547186D-06
 Iter.  9: Coupled cluster CC2-R12/B energy :     -76.2624766939658230
     Conventional correlation energy:    -0.0853970814360849
     R12 correlation energy         :    -0.1685243136675478
     Total correlation energy       :    -0.2539213951036328


       Iteration no.: 10
       -----------------

       Time used in   RHS - TOTAL  :       0.18 seconds
       Norm^2 of omega1 after ccvec:        0.1434964529D-10
       Norm^2 of omega2 after ccvec:        0.7997655024D-08
       Norm^2 of Omegar12  in NXTAM:        0.4485927019D-06
 Iter. 10: Coupled cluster CC2-R12/B energy :     -76.2624759336338798
     Conventional correlation energy:    -0.0853984677400206
     R12 correlation energy         :    -0.1685221670316649
     Total correlation energy       :    -0.2539206347716855


       Iteration no.: 11
       -----------------

       Time used in   RHS - TOTAL  :       0.18 seconds
       Norm^2 of omega1 after ccvec:        0.1543205039D-10
       Norm^2 of omega2 after ccvec:        0.1887931973D-07
       Norm^2 of Omegar12  in NXTAM:        0.1644970282D-06
 Iter. 11: Coupled cluster CC2-R12/B energy :     -76.2624759942551549
     Conventional correlation energy:    -0.0854064648822543
     R12 correlation energy         :    -0.1685142305107090
     Total correlation energy       :    -0.2539206953929634


       Iteration no.: 12
       -----------------

       Time used in   RHS - TOTAL  :       0.18 seconds
       Norm^2 of omega1 after ccvec:        0.8995632380D-11
       Norm^2 of omega2 after ccvec:        0.1089055908D-07
       Norm^2 of Omegar12  in NXTAM:        0.1071955392D-06
 Iter. 12: Coupled cluster CC2-R12/B energy :     -76.2624752939752142
     Conventional correlation energy:    -0.0854097385045378
     R12 correlation energy         :    -0.1685102566084838
     Total correlation energy       :    -0.2539199951130215


       Iteration no.: 13
       -----------------

       Time used in   RHS - TOTAL  :       0.18 seconds
       Norm^2 of omega1 after ccvec:        0.5376108832D-11
       Norm^2 of omega2 after ccvec:        0.8676931182D-08
       Norm^2 of Omegar12  in NXTAM:        0.7127442630D-07
 Iter. 13: Coupled cluster CC2-R12/B energy :     -76.2624764753244904
     Conventional correlation energy:    -0.0854175520249925
     R12 correlation energy         :    -0.1685036244373017
     Total correlation energy       :    -0.2539211764622941


       Iteration no.: 14
       -----------------

       Time used in   RHS - TOTAL  :       0.18 seconds
       Norm^2 of omega1 after ccvec:        0.2382087356D-10
       Norm^2 of omega2 after ccvec:        0.1954571029D-08
       Norm^2 of Omegar12  in NXTAM:        0.1735799718D-07
 Iter. 14: Coupled cluster CC2-R12/B energy :     -76.2624767209244681
     Conventional correlation energy:    -0.0854192665649123
     R12 correlation energy         :    -0.1685021554973685
     Total correlation energy       :    -0.2539214220622807


       Iteration no.: 15
       -----------------

       Time used in   RHS - TOTAL  :       0.18 seconds
       Norm^2 of omega1 after ccvec:        0.1519444291D-10
       Norm^2 of omega2 after ccvec:        0.7388473473D-09
       Norm^2 of Omegar12  in NXTAM:        0.2756155531D-08
 Iter. 15: Coupled cluster CC2-R12/B energy :     -76.2624765622299066
     Conventional correlation energy:    -0.0854208289579930
     R12 correlation energy         :    -0.1685004344097242
     Total correlation energy       :    -0.2539212633677172


       Iteration no.: 16
       -----------------

       Time used in   RHS - TOTAL  :       0.18 seconds
       Norm^2 of omega1 after ccvec:        0.5169709774D-11
       Norm^2 of omega2 after ccvec:        0.2976806927D-10
       Norm^2 of Omegar12  in NXTAM:        0.7796892845D-09
 Iter. 16: Coupled cluster CC2-R12/B energy :     -76.2624774376758694
     Conventional correlation energy:    -0.0854207491930481
     R12 correlation energy         :    -0.1685013896206329
     Total correlation energy       :    -0.2539221388136810


       Iteration no.: 17
       -----------------

       Time used in   RHS - TOTAL  :       0.18 seconds
       Norm^2 of omega1 after ccvec:        0.6305085944D-12
       Norm^2 of omega2 after ccvec:        0.3872823776D-10
       Norm^2 of Omegar12  in NXTAM:        0.4880116072D-10
 Iter. 17: Coupled cluster CC2-R12/B energy :     -76.2624772595416118
     Conventional correlation energy:    -0.0854206769944454
     R12 correlation energy         :    -0.1685012836849750
     Total correlation energy       :    -0.2539219606794205


       Iteration no.: 18
       -----------------

       Time used in   RHS - TOTAL  :       0.18 seconds
       Norm^2 of omega1 after ccvec:        0.1758734732D-12
       Norm^2 of omega2 after ccvec:        0.4308820956D-11
       Norm^2 of Omegar12  in NXTAM:        0.8351501600D-09
 Iter. 18: Coupled cluster CC2-R12/B energy :     -76.2624772950991598
     Conventional correlation energy:    -0.0854207050082607
     R12 correlation energy         :    -0.1685012912287103
     Total correlation energy       :    -0.2539219962369710


       Iteration no.: 19
       -----------------

       Time used in   RHS - TOTAL  :       0.18 seconds
       Norm^2 of omega1 after ccvec:        0.8499100517D-13
       Norm^2 of omega2 after ccvec:        0.2888725764D-10
       Norm^2 of Omegar12  in NXTAM:        0.3970673613D-10
 Iter. 19: Coupled cluster CC2-R12/B energy :     -76.2624773188192790
     Conventional correlation energy:    -0.0854207459480563
     R12 correlation energy         :    -0.1685012740090326
     Total correlation energy       :    -0.2539220199570889


       Iteration no.: 20
       -----------------

       Time used in   RHS - TOTAL  :       0.18 seconds
       Norm^2 of omega1 after ccvec:        0.5081545668D-13
       Norm^2 of omega2 after ccvec:        0.2255246900D-10
       Norm^2 of Omegar12  in NXTAM:        0.3869785084D-10
 Iter. 20: Coupled cluster CC2-R12/B energy :     -76.2624772505518536
     Conventional correlation energy:    -0.0854207719954019
     R12 correlation energy         :    -0.1685011796942621
     Total correlation energy       :    -0.2539219516896640


       Iteration no.: 21
       -----------------

       Time used in   RHS - TOTAL  :       0.18 seconds
       Norm^2 of omega1 after ccvec:        0.2725255643D-13
       Norm^2 of omega2 after ccvec:        0.2082523615D-10
       Norm^2 of Omegar12  in NXTAM:        0.3011295347D-10
 Iter. 21: Coupled cluster CC2-R12/B energy :     -76.2624772627505791
     Conventional correlation energy:    -0.0854208255369286
     R12 correlation energy         :    -0.1685011383514553
     Total correlation energy       :    -0.2539219638883840


       Iteration no.: 22
       -----------------

       Time used in   RHS - TOTAL  :       0.18 seconds
       Norm^2 of omega1 after ccvec:        0.2281052057D-13
       Norm^2 of omega2 after ccvec:        0.1744543684D-10
       Norm^2 of Omegar12  in NXTAM:        0.2698004265D-10
 Iter. 22: Coupled cluster CC2-R12/B energy :     -76.2624772827237791
     Conventional correlation energy:    -0.0854209655537517
     R12 correlation energy         :    -0.1685010183078294
     Total correlation energy       :    -0.2539219838615810


       Iteration no.: 23
       -----------------

       Time used in   RHS - TOTAL  :       0.18 seconds
       Norm^2 of omega1 after ccvec:        0.1647526687D-13
       Norm^2 of omega2 after ccvec:        0.1160807729D-10
       Norm^2 of Omegar12  in NXTAM:        0.1621213984D-10
 Iter. 23: Coupled cluster CC2-R12/B energy :     -76.2624772895946847
     Conventional correlation energy:    -0.0854212090510345
     R12 correlation energy         :    -0.1685007816814659
     Total correlation energy       :    -0.2539219907325003


       Iteration no.: 24
       -----------------

       Time used in   RHS - TOTAL  :       0.18 seconds
       Norm^2 of omega1 after ccvec:        0.8007484834D-14
       Norm^2 of omega2 after ccvec:        0.2950326961D-11
       Norm^2 of Omegar12  in NXTAM:        0.6712427201D-11
 Iter. 24: Coupled cluster CC2-R12/B energy :     -76.2624773129259665
     Conventional correlation energy:    -0.0854213723641948
     R12 correlation energy         :    -0.1685006416995736
     Total correlation energy       :    -0.2539220140637684


       Iteration no.: 25
       -----------------

       Time used in   RHS - TOTAL  :       0.18 seconds
       Norm^2 of omega1 after ccvec:        0.4210327346D-14
       Norm^2 of omega2 after ccvec:        0.8359591244D-12
       Norm^2 of Omegar12  in NXTAM:        0.9182428889D-12
 Iter. 25: Coupled cluster CC2-R12/B energy :     -76.2624773250494314
     Conventional correlation energy:    -0.0854213856546693
     R12 correlation energy         :    -0.1685006405325703
     Total correlation energy       :    -0.2539220261872396


       Iteration no.: 26
       -----------------

       Time used in   RHS - TOTAL  :       0.18 seconds
       Norm^2 of omega1 after ccvec:        0.1025685679D-14
       Norm^2 of omega2 after ccvec:        0.5625204212D-13
       Norm^2 of Omegar12  in NXTAM:        0.1846826058D-10
 Iter. 26: Coupled cluster CC2-R12/B energy :     -76.2624773193825263
     Conventional correlation energy:    -0.0854213872268730
     R12 correlation energy         :    -0.1685006332934626
     Total correlation energy       :    -0.2539220205203356


       Iteration no.: 27
       -----------------

       Time used in   RHS - TOTAL  :       0.18 seconds
       Norm^2 of omega1 after ccvec:        0.9295245927D-15
       Norm^2 of omega2 after ccvec:        0.6277045854D-12
       Norm^2 of Omegar12  in NXTAM:        0.8082458933D-12
 Iter. 27: Coupled cluster CC2-R12/B energy :     -76.2624773205586877
     Conventional correlation energy:    -0.0854213965133681
     R12 correlation energy         :    -0.1685006251831267
     Total correlation energy       :    -0.2539220216964948


       Iteration no.: 28
       -----------------

       Time used in   RHS - TOTAL  :       0.18 seconds
       Norm^2 of omega1 after ccvec:        0.4225466050D-15
       Norm^2 of omega2 after ccvec:        0.4898248857D-12
       Norm^2 of Omegar12  in NXTAM:        0.8220827020D-12
 Iter. 28: Coupled cluster CC2-R12/B energy :     -76.2624773185128930
     Conventional correlation energy:    -0.0854214080038389
     R12 correlation energy         :    -0.1685006116468661
     Total correlation energy       :    -0.2539220196507050


       Iteration no.: 29
       -----------------

       Time used in   RHS - TOTAL  :       0.18 seconds
       Norm^2 of omega1 after ccvec:        0.3703435091D-15
       Norm^2 of omega2 after ccvec:        0.4207148029D-12
       Norm^2 of Omegar12  in NXTAM:        0.5999261214D-12
 Iter. 29: Coupled cluster CC2-R12/B energy :     -76.2624773229601800
     Conventional correlation energy:    -0.0854214273615099
     R12 correlation energy         :    -0.1685005967364764
     Total correlation energy       :    -0.2539220240979864


       Iteration no.: 30
       -----------------

       Time used in   RHS - TOTAL  :       0.18 seconds
       Norm^2 of omega1 after ccvec:        0.3763953374D-15
       Norm^2 of omega2 after ccvec:        0.2898459333D-12
       Norm^2 of Omegar12  in NXTAM:        0.4491418280D-12
 Iter. 30: Coupled cluster CC2-R12/B energy :     -76.2624773182403572
     Conventional correlation energy:    -0.0854214507058941
     R12 correlation energy         :    -0.1685005686722667
     Total correlation energy       :    -0.2539220193781608


       Iteration no.: 31
       -----------------

       Time used in   RHS - TOTAL  :       0.18 seconds
       Norm^2 of omega1 after ccvec:        0.2990962584D-15
       Norm^2 of omega2 after ccvec:        0.1523570934D-12
       Norm^2 of Omegar12  in NXTAM:        0.1996662336D-12
 Iter. 31: Coupled cluster CC2-R12/B energy :     -76.2624773252820773
     Conventional correlation energy:    -0.0854214921562715
     R12 correlation energy         :    -0.1685005342636077
     Total correlation energy       :    -0.2539220264198792


       Iteration no.: 32
       -----------------

       Time used in   RHS - TOTAL  :       0.18 seconds
       Norm^2 of omega1 after ccvec:        0.1521357606D-15
       Norm^2 of omega2 after ccvec:        0.2226048510D-13
       Norm^2 of Omegar12  in NXTAM:        0.6446854705D-13
 Iter. 32: Coupled cluster CC2-R12/B energy :     -76.2624773271591039
     Conventional correlation energy:    -0.0854214985437949
     R12 correlation energy         :    -0.1685005297531213
     Total correlation energy       :    -0.2539220282969162


       Iteration no.: 33
       -----------------

       Time used in   RHS - TOTAL  :       0.18 seconds
       Norm^2 of omega1 after ccvec:        0.5295314072D-16
       Norm^2 of omega2 after ccvec:        0.1300233733D-13
       Norm^2 of Omegar12  in NXTAM:        0.2169059841D-13
 Iter. 33: Coupled cluster CC2-R12/B energy :     -76.2624773269082965
     Conventional correlation energy:    -0.0854214986768937
     R12 correlation energy         :    -0.1685005293692164
     Total correlation energy       :    -0.2539220280461101


       Iteration no.: 34
       -----------------

       Time used in   RHS - TOTAL  :       0.18 seconds
       Norm^2 of omega1 after ccvec:        0.2224804450D-16
       Norm^2 of omega2 after ccvec:        0.9308452023D-15
       Norm^2 of Omegar12  in NXTAM:        0.2947666591D-12
 Iter. 34: Coupled cluster CC2-R12/B energy :     -76.2624773262338636
     Conventional correlation energy:    -0.0854214986138686
     R12 correlation energy         :    -0.1685005287577978
     Total correlation energy       :    -0.2539220273716664


       Iteration no.: 35
       -----------------

       Time used in   RHS - TOTAL  :       0.18 seconds
       Norm^2 of omega1 after ccvec:        0.1163217870D-16
       Norm^2 of omega2 after ccvec:        0.1004736476D-13
       Norm^2 of Omegar12  in NXTAM:        0.2275094467D-13
 Iter. 35: Coupled cluster CC2-R12/B energy :     -76.2624773265015534
     Conventional correlation energy:    -0.0854214995142542
     R12 correlation energy         :    -0.1685005281251142
     Total correlation energy       :    -0.2539220276393683


       Iteration no.: 36
       -----------------

       Time used in   RHS - TOTAL  :       0.18 seconds
       Norm^2 of omega1 after ccvec:        0.8836545945D-17
       Norm^2 of omega2 after ccvec:        0.8342652570D-14
       Norm^2 of Omegar12  in NXTAM:        0.2207533886D-13
 Iter. 36: Coupled cluster CC2-R12/B energy :     -76.2624773260875060
     Conventional correlation energy:    -0.0854215007593524
     R12 correlation energy         :    -0.1685005264659689
     Total correlation energy       :    -0.2539220272253213


       Iteration no.: 37
       -----------------

       Time used in   RHS - TOTAL  :       0.18 seconds
       Norm^2 of omega1 after ccvec:        0.5340700185D-17
       Norm^2 of omega2 after ccvec:        0.7088872227D-14
       Norm^2 of Omegar12  in NXTAM:        0.1598419990D-13
 Iter. 37: Coupled cluster CC2-R12/B energy :     -76.2624773263749915
     Conventional correlation energy:    -0.0854215034139543
     R12 correlation energy         :    -0.1685005240988391
     Total correlation energy       :    -0.2539220275127934


       Iteration no.: 38
       -----------------

       Time used in   RHS - TOTAL  :       0.18 seconds
       Norm^2 of omega1 after ccvec:        0.4337598493D-17
       Norm^2 of omega2 after ccvec:        0.4527724728D-14
       Norm^2 of Omegar12  in NXTAM:        0.1226044723D-13
 Iter. 38: Coupled cluster CC2-R12/B energy :     -76.2624773271366365
     Conventional correlation energy:    -0.0854215079621952
     R12 correlation energy         :    -0.1685005203122551
     Total correlation energy       :    -0.2539220282744502


       Iteration no.: 39
       -----------------

       Time used in   RHS - TOTAL  :       0.18 seconds
       Norm^2 of omega1 after ccvec:        0.2963156628D-17
       Norm^2 of omega2 after ccvec:        0.1893992052D-14
       Norm^2 of Omegar12  in NXTAM:        0.4002164298D-14
 Iter. 39: Coupled cluster CC2-R12/B energy :     -76.2624773270253655
     Conventional correlation energy:    -0.0854215124190176
     R12 correlation energy         :    -0.1685005157441544
     Total correlation energy       :    -0.2539220281631721


       Iteration no.: 40
       -----------------

       Time used in   RHS - TOTAL  :       0.18 seconds
       Norm^2 of omega1 after ccvec:        0.5616468112D-18
       Norm^2 of omega2 after ccvec:        0.1620731557D-15
       Norm^2 of Omegar12  in NXTAM:        0.1296289495D-14
 Iter. 40: Coupled cluster CC2-R12/B energy :     -76.2624773270986367
     Conventional correlation energy:    -0.0854215134213518
     R12 correlation energy         :    -0.1685005148150887
     Total correlation energy       :    -0.2539220282364405


       Iteration no.: 41
       -----------------

       Time used in   RHS - TOTAL  :       0.18 seconds
       Norm^2 of omega1 after ccvec:        0.3803752978D-18
       Norm^2 of omega2 after ccvec:        0.7261617948D-16
       Norm^2 of Omegar12  in NXTAM:        0.2232381506D-15
 Iter. 41: Coupled cluster CC2-R12/B energy :     -76.2624773272718386
     Conventional correlation energy:    -0.0854215135653220
     R12 correlation energy         :    -0.1685005148443275
     Total correlation energy       :    -0.2539220284096495


       Iteration no.: 42
       -----------------

       Time used in   RHS - TOTAL  :       0.18 seconds
       Norm^2 of omega1 after ccvec:        0.6489797000D-19
       Norm^2 of omega2 after ccvec:        0.1082468022D-16
       Norm^2 of Omegar12  in NXTAM:        0.1583976294D-14
 Iter. 42: Coupled cluster CC2-R12/B energy :     -76.2624773271963790
     Conventional correlation energy:    -0.0854215135645831
     R12 correlation energy         :    -0.1685005147696027
     Total correlation energy       :    -0.2539220283341858


       Iteration no.: 43
       -----------------

       Time used in   RHS - TOTAL  :       0.18 seconds
       Norm^2 of omega1 after ccvec:        0.5754632741D-19
       Norm^2 of omega2 after ccvec:        0.5453700800D-16
       Norm^2 of Omegar12  in NXTAM:        0.2257987856D-15
 Iter. 43: Coupled cluster CC2-R12/B energy :     -76.2624773271884067
     Conventional correlation energy:    -0.0854215136448033
     R12 correlation energy         :    -0.1685005146814050
     Total correlation energy       :    -0.2539220283262084


       Iteration no.: 44
       -----------------

       Time used in   RHS - TOTAL  :       0.18 seconds
       Norm^2 of omega1 after ccvec:        0.1722307480D-19
       Norm^2 of omega2 after ccvec:        0.3881007169D-16
       Norm^2 of Omegar12  in NXTAM:        0.2468802818D-15
 Iter. 44: Coupled cluster CC2-R12/B energy :     -76.2624773272031433
     Conventional correlation energy:    -0.0854215137339907
     R12 correlation energy         :    -0.1685005146069622
     Total correlation energy       :    -0.2539220283409529


       Iteration no.: 45
       -----------------

       Time used in   RHS - TOTAL  :       0.18 seconds
       Norm^2 of omega1 after ccvec:        0.1259081917D-19
       Norm^2 of omega2 after ccvec:        0.3427744299D-16
       Norm^2 of Omegar12  in NXTAM:        0.1905234840D-15
 Iter. 45: Coupled cluster CC2-R12/B energy :     -76.2624773272166010
     Conventional correlation energy:    -0.0854215138532339
     R12 correlation energy         :    -0.1685005145011828
     Total correlation energy       :    -0.2539220283544167


       Iteration no.: 46
       -----------------

       Time used in   RHS - TOTAL  :       0.18 seconds
       Norm^2 of omega1 after ccvec:        0.1532682828D-19
       Norm^2 of omega2 after ccvec:        0.2462532324D-16
       Norm^2 of Omegar12  in NXTAM:        0.1519688249D-15
 Iter. 46: Coupled cluster CC2-R12/B energy :     -76.2624773271802354
     Conventional correlation energy:    -0.0854215140665815
     R12 correlation energy         :    -0.1685005142514673
     Total correlation energy       :    -0.2539220283180488


       Iteration no.: 47
       -----------------

       Time used in   RHS - TOTAL  :       0.18 seconds
       Norm^2 of omega1 after ccvec:        0.2238780680D-19
       Norm^2 of omega2 after ccvec:        0.1310414028D-16
       Norm^2 of Omegar12  in NXTAM:        0.6037213046D-16
 Iter. 47: Coupled cluster CC2-R12/B energy :     -76.2624773272125509
     Conventional correlation energy:    -0.0854215143588988
     R12 correlation energy         :    -0.1685005139914673
     Total correlation energy       :    -0.2539220283503660


       Iteration no.: 48
       -----------------

       Time used in   RHS - TOTAL  :       0.18 seconds
       Norm^2 of omega1 after ccvec:        0.1299783687D-19
       Norm^2 of omega2 after ccvec:        0.2334464134D-17
       Norm^2 of Omegar12  in NXTAM:        0.1755718527D-16
 Iter. 48: Coupled cluster CC2-R12/B energy :     -76.2624773272454064
     Conventional correlation energy:    -0.0854215144936035
     R12 correlation energy         :    -0.1685005138896115
     Total correlation energy       :    -0.2539220283832150


       Iteration no.: 49
       -----------------

       Time used in   RHS - TOTAL  :       0.18 seconds
       Norm^2 of omega1 after ccvec:        0.8759451882D-20
       Norm^2 of omega2 after ccvec:        0.6067458393D-18
       Norm^2 of Omegar12  in NXTAM:        0.2200945174D-17
 Iter. 49: Coupled cluster CC2-R12/B energy :     -76.2624773272348762
     Conventional correlation energy:    -0.0854215144859012
     R12 correlation energy         :    -0.1685005138867815
     Total correlation energy       :    -0.2539220283726827


       Iteration no.: 50
       -----------------

       Time used in   RHS - TOTAL  :       0.18 seconds
       Norm^2 of omega1 after ccvec:        0.1806292521D-20
       Norm^2 of omega2 after ccvec:        0.9982663930D-19
       Norm^2 of Omegar12  in NXTAM:        0.1319013863D-16
 Iter. 50: Coupled cluster CC2-R12/B energy :     -76.2624773272332703
     Conventional correlation energy:    -0.0854215144847927
     R12 correlation energy         :    -0.1685005138862833
     Total correlation energy       :    -0.2539220283710760


       Iteration no.: 51
       -----------------

       Time used in   RHS - TOTAL  :       0.18 seconds
       Norm^2 of omega1 after ccvec:        0.7183545477D-21
       Norm^2 of omega2 after ccvec:        0.3675333169D-18
       Norm^2 of Omegar12  in NXTAM:        0.2589874504D-17
 Iter. 51: Coupled cluster CC2-R12/B energy :     -76.2624773272356151
     Conventional correlation energy:    -0.0854215144876491
     R12 correlation energy         :    -0.1685005138857699
     Total correlation energy       :    -0.2539220283734190


       Iteration no.: 52
       -----------------

       Time used in   RHS - TOTAL  :       0.18 seconds
       Norm^2 of omega1 after ccvec:        0.2948918853D-21
       Norm^2 of omega2 after ccvec:        0.2675031057D-18
       Norm^2 of Omegar12  in NXTAM:        0.2616419809D-17
 Iter. 52: Coupled cluster CC2-R12/B energy :     -76.2624773272307124
     Conventional correlation energy:    -0.0854215144912018
     R12 correlation energy         :    -0.1685005138773234
     Total correlation energy       :    -0.2539220283685252


       Iteration no.: 53
       -----------------

       Time used in   RHS - TOTAL  :       0.18 seconds
       Norm^2 of omega1 after ccvec:        0.1030337856D-21
       Norm^2 of omega2 after ccvec:        0.2464073765D-18
       Norm^2 of Omegar12  in NXTAM:        0.2068005013D-17
 Iter. 53: Coupled cluster CC2-R12/B energy :     -76.2624773272338530
     Conventional correlation energy:    -0.0854215145027979
     R12 correlation energy         :    -0.1685005138688589
     Total correlation energy       :    -0.2539220283716568


       Iteration no.: 54
       -----------------

       Time used in   RHS - TOTAL  :       0.18 seconds
       Norm^2 of omega1 after ccvec:        0.1018572483D-21
       Norm^2 of omega2 after ccvec:        0.1749765180D-18
       Norm^2 of Omegar12  in NXTAM:        0.1665906250D-17
 Iter. 54: Coupled cluster CC2-R12/B energy :     -76.2624773272355867
     Conventional correlation energy:    -0.0854215145216983
     R12 correlation energy         :    -0.1685005138516978
     Total correlation energy       :    -0.2539220283733961


       Iteration no.: 55
       -----------------

       Time used in   RHS - TOTAL  :       0.18 seconds
       Norm^2 of omega1 after ccvec:        0.9581951227D-22
       Norm^2 of omega2 after ccvec:        0.1039443376D-18
       Norm^2 of Omegar12  in NXTAM:        0.7022515726D-18
 Iter. 55: Coupled cluster CC2-R12/B energy :     -76.2624773272339809
     Conventional correlation energy:    -0.0854215145469936
     R12 correlation energy         :    -0.1685005138247921
     Total correlation energy       :    -0.2539220283717857


       Iteration no.: 56
       -----------------

       Time used in   RHS - TOTAL  :       0.18 seconds
       Norm^2 of omega1 after ccvec:        0.6187772650D-22
       Norm^2 of omega2 after ccvec:        0.1293721585D-19
       Norm^2 of Omegar12  in NXTAM:        0.2243044606D-18
 Iter. 56: Coupled cluster CC2-R12/B energy :     -76.2624773272345635
     Conventional correlation energy:    -0.0854215145530475
     R12 correlation energy         :    -0.1685005138193312
     Total correlation energy       :    -0.2539220283723787


       Iteration no.: 57
       -----------------

       Time used in   RHS - TOTAL  :       0.18 seconds
       Norm^2 of omega1 after ccvec:        0.4405169564D-22
       Norm^2 of omega2 after ccvec:        0.1081231263D-19
       Norm^2 of Omegar12  in NXTAM:        0.3284299176D-19
 Iter. 57: Coupled cluster CC2-R12/B energy :     -76.2624773272361978
     Conventional correlation energy:    -0.0854215145544686
     R12 correlation energy         :    -0.1685005138195403
     Total correlation energy       :    -0.2539220283740088


       Iteration no.: 58
       -----------------

       Time used in   RHS - TOTAL  :       0.18 seconds
       Norm^2 of omega1 after ccvec:        0.9196747144D-23
       Norm^2 of omega2 after ccvec:        0.1502632391D-20
       Norm^2 of Omegar12  in NXTAM:        0.2392360764D-18
 Iter. 58: Coupled cluster CC2-R12/B energy :     -76.2624773272356862
     Conventional correlation energy:    -0.0854215145546391
     R12 correlation energy         :    -0.1685005138188578
     Total correlation energy       :    -0.2539220283734969


 CC2-R12/B energy converged to within   0.10D-11 is          -76.262477327236
 Final 2-norm of the CC vector function:  3.88822471D-11
 R12       energy converged to within   0.10D-11 is     -0.168500514


                    +------------------------------------------+
                    ! Largest amplitudes in converged solution !
                    +------------------------------------------+



          CC_PRAM:Overall Contribution of the Different Components
          --------------------------------------------------------



          Single Excitation Contribution :               6.6683 %

          Double Excitation Contribution :              93.3317 %

          ||T1||/||T2||                  :               0.2673

          Tau1 diagnostic                :               0.0081

          Norm of Total Amplitude Vector :               0.0889


 +=============================================================================+
 | symmetry|  orbital index  |   Excitation Numbers             |   Amplitude  |
 |  Index  |   a   b   i   j |      NAI      NBJ |     NAIBJ    |              |
 +=============================================================================+
 | 1   1   |   1       3     |       29          |              |    0.010363  |
 | 1   1   |   5       4     |       47          |              |   -0.013213  |
 +-----------------------------------------------------------------------------+
 | 1 1 1 1 |   1   1   3   1 |       29        1 |          407 |    0.012222  |
 | 1 1 1 1 |   5   1   4   1 |       47        1 |         1082 |   -0.008413  |
 | 1 1 1 1 |   5   4   4   1 |       47        4 |         1085 |    0.008404  |
 | 1 1 1 1 |   7   8   2   1 |       21        8 |          218 |    0.009292  |
 | 1 1 1 1 |   6   8   3   1 |       34        8 |          569 |    0.011008  |
 | 1 1 1 1 |   5   8   4   1 |       47        8 |         1089 |   -0.013453  |
 | 1 1 1 1 |   2   2   2   2 |       16       16 |          136 |   -0.010293  |
 | 1 1 1 1 |   3   2   2   2 |       17       16 |          152 |    0.006998  |
 | 1 1 1 1 |   7   2   2   2 |       21       16 |          226 |   -0.013012  |
 | 1 1 1 1 |   6   2   3   2 |       34       16 |          577 |   -0.014530  |
 | 1 1 1 1 |   5   2   4   2 |       47       16 |         1097 |    0.016537  |
 | 1 1 1 1 |   3   3   2   2 |       17       17 |          153 |   -0.008589  |
 | 1 1 1 1 |   7   3   2   2 |       21       17 |          227 |    0.011748  |
 | 1 1 1 1 |   6   3   3   2 |       34       17 |          578 |    0.012874  |
 | 1 1 1 1 |   5   3   4   2 |       47       17 |         1098 |   -0.012484  |
 | 1 1 1 1 |   7   7   2   2 |       21       21 |          231 |   -0.015756  |
 | 1 1 1 1 |   1   7   3   2 |       29       21 |          427 |   -0.006785  |
 | 1 1 1 1 |   4   7   3   2 |       32       21 |          517 |    0.006959  |
 | 1 1 1 1 |   6   7   3   2 |       34       21 |          582 |   -0.015743  |
 | 1 1 1 1 |   5   7   4   2 |       47       21 |         1102 |    0.019042  |
 | 1 1 1 1 |   1   1   3   3 |       29       29 |          435 |   -0.011735  |
 | 1 1 1 1 |   6   1   3   3 |       34       29 |          590 |   -0.009406  |
 | 1 1 1 1 |   5   1   4   3 |       47       29 |         1110 |    0.008366  |
 | 1 1 1 1 |   6   4   3   3 |       34       32 |          593 |    0.009741  |
 | 1 1 1 1 |   5   4   4   3 |       47       32 |         1113 |   -0.007765  |
 | 1 1 1 1 |   6   6   3   3 |       34       34 |          595 |   -0.025204  |
 | 1 1 1 1 |   5   6   4   3 |       47       34 |         1115 |    0.023307  |
 | 1 1 1 1 |   5   5   4   4 |       47       47 |         1128 |   -0.031537  |
 | 1 1 1 1 |  11   5   4   4 |       53       47 |         1425 |    0.006587  |
 +=============================================================================+


          Norm of Printed Amplitude Vector :             0.0770

          Printed all single excitations greater than 0.008608

          Printed all double excitations greater than 0.006441





             +-------------------------------------------------------+
             ! Final results from the Coupled Cluster energy program !
             +-------------------------------------------------------+



            Total SCF   energy:                   -76.0085552989

            Total MP2-R12/B energy:               -76.2604786891

            Total CC2-R12/B energy:               -76.2624773272




                   +--------------------------------------------+
                   ! Calculating singlet intermediates for CCLR !
                   +--------------------------------------------+



       Time used in   RHS - TOTAL  :       0.19 seconds


            E-intermediates calculated 
            Fock-intermediate calculated 


   

 *******************************************************************
 *                                                                 *
 *<<<<<<<<<< OUTPUT FROM COUPLED CLUSTER LINEAR RESPONSE >>>>>>>>>>*
 *                                                                 *
 *<<<<<<<<<<     CALCULATION OF EXCITATION ENERGIES      >>>>>>>>>>*
 *                                                                 *
 *******************************************************************



                            +--------------------------+
                            !  CC2 Excitation Energies !
[...]
 | 1 1 1 1 |   5   1   4   4 |       47       43 |         1124 |    0.097786  |
 +=============================================================================+


          Norm of Printed Amplitude Vector :             0.9944

          Printed all single excitations greater than 0.162595

          Printed all double excitations greater than 0.036617


 Analysis of the Coupled Cluster Excitation Vector Number :  2
 -------------------------------------------------------------

          Excitation Energy :                            10.1288 eV


          CC_PRAM:Overall Contribution of the Different Components
          --------------------------------------------------------



          Single Excitation Contribution :              95.5627 %

          Double Excitation Contribution :               4.4373 %

          ||T1||/||T2||                  :               4.6407

          Norm of Total Amplitude Vector :               1.0056


 +=============================================================================+
 | symmetry|  orbital index  |   Excitation Numbers             |   Amplitude  |
 |  Index  |   a   b   i   j |      NAI      NBJ |     NAIBJ    |              |
 +=============================================================================+
 | 1   1   |   1       3     |       29          |              |    0.975087  |
 +-----------------------------------------------------------------------------+
 | 1 1 1 1 |   1   1   3   1 |       29        1 |          407 |    0.036590  |
 | 1 1 1 1 |   1   2   3   2 |       29       16 |          422 |   -0.078387  |
 | 1 1 1 1 |   1   3   3   2 |       29       17 |          423 |    0.046280  |
 | 1 1 1 1 |   1   7   3   2 |       29       21 |          427 |   -0.050612  |
 | 1 1 1 1 |   1   1   3   3 |       29       29 |          435 |   -0.112354  |
 | 1 1 1 1 |   6   1   3   3 |       34       29 |          590 |   -0.078982  |
 | 1 1 1 1 |   5   1   4   3 |       47       29 |         1110 |    0.081747  |
 +=============================================================================+


          Norm of Printed Amplitude Vector :             0.9942

          Printed all single excitations greater than 0.162927

          Printed all double excitations greater than 0.035108


 Analysis of the Coupled Cluster Excitation Vector Number :  3
 -------------------------------------------------------------

          Excitation Energy :                            10.3550 eV


          CC_PRAM:Overall Contribution of the Different Components
          --------------------------------------------------------



          Single Excitation Contribution :              96.3604 %

          Double Excitation Contribution :               3.6396 %

          ||T1||/||T2||                  :               5.1454

          Norm of Total Amplitude Vector :               1.0003


 +=============================================================================+
 | symmetry|  orbital index  |   Excitation Numbers             |   Amplitude  |
 |  Index  |   a   b   i   j |      NAI      NBJ |     NAIBJ    |              |
 +=============================================================================+
 | 1   1   |   2       4     |       44          |              |    0.961771  |
 | 1   1   |   3       4     |       45          |              |   -0.178582  |
 +-----------------------------------------------------------------------------+
 | 1 1 1 1 |   2   1   4   1 |       44        1 |          947 |    0.035613  |
 | 1 1 1 1 |   1   1   4   2 |       43       15 |          918 |   -0.048977  |
 | 1 1 1 1 |   2   2   4   2 |       44       16 |          962 |   -0.078825  |
 | 1 1 1 1 |   2   3   4   2 |       44       17 |          963 |    0.053094  |
 | 1 1 1 1 |   2   7   4   2 |       44       21 |          967 |   -0.043469  |
 | 1 1 1 1 |   2   1   4   3 |       44       29 |          975 |   -0.054584  |
 | 1 1 1 1 |   2   4   4   3 |       44       32 |          978 |    0.034112  |
 | 1 1 1 1 |   2   6   4   3 |       44       34 |          980 |   -0.064001  |
 | 1 1 1 1 |   5   2   4   4 |       47       44 |         1125 |    0.084611  |
 +=============================================================================+


          Norm of Printed Amplitude Vector :             0.9934

          Printed all single excitations greater than 0.163606

          Printed all double excitations greater than 0.031796


 Analysis of the Coupled Cluster Excitation Vector Number :  4
 -------------------------------------------------------------

          Excitation Energy :                            12.6621 eV


          CC_PRAM:Overall Contribution of the Different Components
          --------------------------------------------------------



          Single Excitation Contribution :              96.2589 %

          Double Excitation Contribution :               3.7411 %

          ||T1||/||T2||                  :               5.0725

          Norm of Total Amplitude Vector :               1.0002


 +=============================================================================+
 | symmetry|  orbital index  |   Excitation Numbers             |   Amplitude  |
 |  Index  |   a   b   i   j |      NAI      NBJ |     NAIBJ    |              |
 +=============================================================================+
 | 1   1   |   2       3     |       30          |              |    0.971113  |
 +-----------------------------------------------------------------------------+
 | 1 1 1 1 |   1   1   3   2 |       29       15 |          421 |   -0.040080  |
 | 1 1 1 1 |   2   2   3   2 |       30       16 |          451 |   -0.075767  |
 | 1 1 1 1 |   2   3   3   2 |       30       17 |          452 |    0.049670  |
 | 1 1 1 1 |   2   7   3   2 |       30       21 |          456 |   -0.039458  |
 | 1 1 1 1 |   2   1   3   3 |       30       29 |          464 |   -0.075949  |
 | 1 1 1 1 |   4   2   3   3 |       32       30 |          526 |    0.045179  |
 | 1 1 1 1 |   6   2   3   3 |       34       30 |          591 |   -0.072416  |
 | 1 1 1 1 |   5   2   4   3 |       47       30 |         1111 |    0.069944  |
 +=============================================================================+


          Norm of Printed Amplitude Vector :             0.9861

          Printed all single excitations greater than 0.163519

          Printed all double excitations greater than 0.032236


 Analysis of the Coupled Cluster Excitation Vector Number :  5
 -------------------------------------------------------------

          Excitation Energy :                            14.6615 eV


          CC_PRAM:Overall Contribution of the Different Components
          --------------------------------------------------------



          Single Excitation Contribution :              96.6047 %

          Double Excitation Contribution :               3.3953 %

          ||T1||/||T2||                  :               5.3341

          Norm of Total Amplitude Vector :               1.0024


 +=============================================================================+
 | symmetry|  orbital index  |   Excitation Numbers             |   Amplitude  |
 |  Index  |   a   b   i   j |      NAI      NBJ |     NAIBJ    |              |
 +=============================================================================+
 | 1   1   |   1       2     |       15          |              |    0.977574  |
 +-----------------------------------------------------------------------------+
 | 1 1 1 1 |   1   1   2   1 |       15        1 |          106 |    0.045994  |
 | 1 1 1 1 |   2   1   2   2 |       16       15 |          135 |   -0.079927  |
 | 1 1 1 1 |   7   1   2   2 |       21       15 |          225 |   -0.045689  |
 | 1 1 1 1 |   1   1   3   2 |       29       15 |          421 |   -0.097730  |
 | 1 1 1 1 |   6   1   3   2 |       34       15 |          576 |   -0.052778  |
 | 1 1 1 1 |   5   1   4   2 |       47       15 |         1096 |    0.065913  |
 +=============================================================================+


          Norm of Printed Amplitude Vector :             0.9914

          Printed all single excitations greater than 0.163813

          Printed all double excitations greater than 0.030711


 Analysis of the Coupled Cluster Excitation Vector Number :  6
 -------------------------------------------------------------

          Excitation Energy :                            17.4791 eV


          CC_PRAM:Overall Contribution of the Different Components
          --------------------------------------------------------



          Single Excitation Contribution :              96.6490 %

          Double Excitation Contribution :               3.3510 %

          ||T1||/||T2||                  :               5.3705

          Norm of Total Amplitude Vector :               0.9981


 +=============================================================================+
 | symmetry|  orbital index  |   Excitation Numbers             |   Amplitude  |
 |  Index  |   a   b   i   j |      NAI      NBJ |     NAIBJ    |              |
 +=============================================================================+
 | 1   1   |   3       4     |       45          |              |    0.966366  |
 +-----------------------------------------------------------------------------+
 | 1 1 1 1 |   2   2   4   2 |       44       16 |          962 |   -0.039731  |
 | 1 1 1 1 |   3   2   4   2 |       45       16 |         1006 |   -0.056598  |
 | 1 1 1 1 |   3   3   4   2 |       45       17 |         1007 |    0.059509  |
 | 1 1 1 1 |   4   4   4   2 |       46       18 |         1053 |    0.030836  |
 | 1 1 1 1 |   3   7   4   2 |       45       21 |         1011 |   -0.043584  |
 | 1 1 1 1 |   3   1   4   3 |       45       29 |         1019 |   -0.040858  |
 | 1 1 1 1 |   3   4   4   3 |       45       32 |         1022 |    0.036272  |
 | 1 1 1 1 |   3   6   4   3 |       45       34 |         1024 |   -0.056052  |
 | 1 1 1 1 |   5   2   4   4 |       47       44 |         1125 |    0.036846  |
 | 1 1 1 1 |   5   3   4   4 |       47       45 |         1126 |    0.078759  |
 +=============================================================================+


          Norm of Printed Amplitude Vector :             0.9791

          Printed all single excitations greater than 0.163850

          Printed all double excitations greater than 0.030510


 Analysis of the Coupled Cluster Excitation Vector Number :  7
 -------------------------------------------------------------

          Excitation Energy :                            17.7744 eV


          CC_PRAM:Overall Contribution of the Different Components
          --------------------------------------------------------



          Single Excitation Contribution :              97.4330 %

          Double Excitation Contribution :               2.5670 %

          ||T1||/||T2||                  :               6.1608

          Norm of Total Amplitude Vector :               1.0010


 +=============================================================================+
 | symmetry|  orbital index  |   Excitation Numbers             |   Amplitude  |
 |  Index  |   a   b   i   j |      NAI      NBJ |     NAIBJ    |              |
 +=============================================================================+
 | 1   1   |   2       2     |       16          |              |    0.965774  |
 +-----------------------------------------------------------------------------+
 | 1 1 1 1 |   2   1   2   1 |       16        1 |          121 |    0.028524  |
 | 1 1 1 1 |   3   2   3   1 |       31        2 |          467 |    0.027887  |
 | 1 1 1 1 |   1   1   2   2 |       15       15 |          120 |   -0.051650  |
 | 1 1 1 1 |   4   1   2   2 |       18       15 |          168 |    0.029989  |
 | 1 1 1 1 |   2   2   2   2 |       16       16 |          136 |   -0.068496  |
 | 1 1 1 1 |   1   2   3   2 |       29       16 |          422 |   -0.047299  |
 | 1 1 1 1 |   6   2   3   2 |       34       16 |          577 |   -0.050354  |
 | 1 1 1 1 |   5   2   4   2 |       47       16 |         1097 |    0.057345  |
 +=============================================================================+


          Norm of Printed Amplitude Vector :             0.9750

          Printed all single excitations greater than 0.164514

          Printed all double excitations greater than 0.026703


 Analysis of the Coupled Cluster Excitation Vector Number :  8
 -------------------------------------------------------------

          Excitation Energy :                            18.9475 eV


          CC_PRAM:Overall Contribution of the Different Components
          --------------------------------------------------------



          Single Excitation Contribution :              95.9867 %

          Double Excitation Contribution :               4.0133 %

          ||T1||/||T2||                  :               4.8905

          Norm of Total Amplitude Vector :               0.9993


 +=============================================================================+
 | symmetry|  orbital index  |   Excitation Numbers             |   Amplitude  |
 |  Index  |   a   b   i   j |      NAI      NBJ |     NAIBJ    |              |
 +=============================================================================+
 | 1   1   |   4       4     |       46          |              |    0.972148  |
 +-----------------------------------------------------------------------------+
 | 1 1 1 1 |   4   4   4   1 |       46        4 |         1039 |   -0.050029  |
 | 1 1 1 1 |   4   2   4   2 |       46       16 |         1051 |   -0.062553  |
 | 1 1 1 1 |   4   3   4   2 |       46       17 |         1052 |    0.064944  |
 | 1 1 1 1 |   3   4   4   2 |       45       18 |         1008 |    0.038570  |
 | 1 1 1 1 |   4   7   4   2 |       46       21 |         1056 |   -0.044129  |
 | 1 1 1 1 |   1   1   4   3 |       43       29 |          932 |   -0.045119  |
 | 1 1 1 1 |   4   1   4   3 |       46       29 |         1064 |   -0.049797  |
 | 1 1 1 1 |   4   4   4   3 |       46       32 |         1067 |    0.037191  |
 | 1 1 1 1 |   4   6   4   3 |       46       34 |         1069 |   -0.057337  |
 | 1 1 1 1 |   5   1   4   4 |       47       43 |         1124 |    0.037461  |
 | 1 1 1 1 |   5   4   4   4 |       47       46 |         1127 |    0.079106  |
 +=============================================================================+


          Norm of Printed Amplitude Vector :             0.9879

          Printed all single excitations greater than 0.163288

          Printed all double excitations greater than 0.033389

 --------------------------
 Symmetry class Nr.:     1
 Multiplicity      :     3
 --------------------------

 Length of Excitation vectors in this class is:      3458
 No Excitation Energies calculated in this symmetry class

 *******************************************************************

 Ground state energy is target 

 Ecorr =                    -76.26247732723568617530

 *******************************************************************
  

 *******************************************************************************
 *******************************************************************************
 *                                                                             *
 *                                                                             *
 *                   SUMMARY OF COUPLED CLUSTER CALCULATION                    *
 *                                                                             *
 *                                                                             *
 *******************************************************************************
 *******************************************************************************

                                                                                
                                                                                
            Total SCF   energy:                   -76.0085552989                
            Total MP2-R12/B energy:               -76.2604786891                
            Total CC2-R12/B energy:               -76.2624773272                
                                                                                
                                                                                
 +=============================================================================+
 |  sym. | Exci.  |        CC2-R12/B  Excitation energies            | ||T1||  |
 |(spin, |        +------------------------------------------------------------+
 | spat) |        |     Hartree    |       eV.      |     cm-1       |    %    |
 +=============================================================================+
 | ^1A   |    1   |     0.2914701  |       7.93130  |     63970.291  |  95.17  |
 | ^1A   |    2   |     0.3722282  |      10.12885  |     81694.656  |  95.56  |
 | ^1A   |    3   |     0.3805394  |      10.35500  |     83518.748  |  96.36  |
 | ^1A   |    4   |     0.4653245  |      12.66212  |    102126.918  |  96.26  |
 | ^1A   |    5   |     0.5388019  |      14.66154  |    118253.343  |  96.60  |
 | ^1A   |    6   |     0.6423460  |      17.47912  |    140978.640  |  96.65  |
 | ^1A   |    7   |     0.6531961  |      17.77437  |    143359.961  |  97.43  |
 | ^1A   |    8   |     0.6963090  |      18.94753  |    152822.149  |  95.99  |
 +=============================================================================+
                                                                                
                                                                                
     Total energies in Hartree:                                                 
             1 ^1A        -75.9710072313                                        
             2 ^1A        -75.8902490817                                        
             3 ^1A        -75.8819379068                                        
             4 ^1A        -75.7971528462                                        
             5 ^1A        -75.7236754481                                        
             6 ^1A        -75.6201313757                                        
             7 ^1A        -75.6092812760                                        
             8 ^1A        -75.5661683737                                        

  1 a.u. =        27.21138 eV.  
  1 a.u. =    219474.62934 cm-1.
  

 *******************************************************************************
 *******************************************************************************
 *                                                                             *
 *                                                                             *
 *                      END OF COUPLED CLUSTER CALCULATION                     *
 *                                                                             *
 *                                                                             *
 *******************************************************************************
 *******************************************************************************


 >>>> CPU and wall time for CC :      74.651      77.016

 
     Date and time (Linux)  : Sun Sep  8 21:09:57 2013
     Host name              : lpqlx131.ups-tlse.fr                    


                      .-------------------------------------.
                      | End of Coupled Cluster Section (CC) |
                      `-------------------------------------'

 >>>> Total CPU  time used in DALTON:  1 minute  15 seconds
 >>>> Total wall time used in DALTON:  1 minute  17 seconds

 
     Date and time (Linux)  : Sun Sep  8 21:09:57 2013
     Host name              : lpqlx131.ups-tlse.fr                    
