

     ************************************************************************
     *************** Dalton - An Electronic Structure Program ***************
     ************************************************************************

    This is output from DALTON (Release Dalton2013 patch 0)
   ----------------------------------------------------------------------------
    NOTE:
     
    Dalton is an experimental code for the evaluation of molecular
    properties using (MC)SCF, DFT, CI, and CC wave functions.
    The authors accept no responsibility for the performance of
    the code or for the correctness of the results.
     
    The code (in whole or part) is provided under a licence and
    is not to be reproduced for further distribution without
    the written permission of the authors or their representatives.
     
    See the home page "http://daltonprogram.org" for further information.
     
    If results obtained with this code are published,
    the appropriate citations would be both of:
     
       K. Aidas, C. Angeli, K. L. Bak, V. Bakken, R. Bast,
       L. Boman, O. Christiansen, R. Cimiraglia, S. Coriani,
       P. Dahle, E. K. Dalskov, U. Ekstroem, T. Enevoldsen,
       J. J. Eriksen, P. Ettenhuber, B. Fernandez, L. Ferrighi,
       H. Fliegl, L. Frediani, K. Hald, A. Halkier, C. Haettig,
       H. Heiberg, T. Helgaker, A. C. Hennum, H. Hettema,
       E. Hjertenaes, S. Hoest, I.-M. Hoeyvik, M. F. Iozzi,
       B. Jansik, H. J. Aa. Jensen, D. Jonsson, P. Joergensen,
       J. Kauczor, S. Kirpekar, T. Kjaergaard, W. Klopper,
       S. Knecht, R. Kobayashi, H. Koch, J. Kongsted, A. Krapp,
       K. Kristensen, A. Ligabue, O. B. Lutnaes, J. I. Melo,
       K. V. Mikkelsen, R. H. Myhre, C. Neiss, C. B. Nielsen,
       P. Norman, J. Olsen, J. M. H. Olsen, A. Osted,
       M. J. Packer, F. Pawlowski, T. B. Pedersen, P. F. Provasi,
       S. Reine, Z. Rinkevicius, T. A. Ruden, K. Ruud, V. Rybkin,
       P. Salek, C. C. M. Samson, A. Sanchez de Meras, T. Saue,
       S. P. A. Sauer, B. Schimmelpfennig, K. Sneskov,
       A. H. Steindal, K. O. Sylvester-Hvid, P. R. Taylor,
       A. M. Teale, E. I. Tellgren, D. P. Tew, A. J. Thorvaldsen,
       L. Thoegersen, O. Vahtras, M. A. Watson, D. J. D. Wilson,
       M. Ziolkowski and H. Agren.
       The Dalton quantum chemistry program system.
       WIREs Comput. Mol. Sci. 2013. doi: 10.1002/wcms.1172
    
    and
    
       Dalton, a Molecular Electronic Structure Program,
       Release DALTON2013.0 (2013), see http://daltonprogram.org
   ----------------------------------------------------------------------------

    Authors in alphabetical order (major contribution(s) in parenthesis):

  Kestutis Aidas,           Vilnius University,           Lithuania   (QM/MM)
  Celestino Angeli,         University of Ferrara,        Italy       (NEVPT2)
  Keld L. Bak,              UNI-C,                        Denmark     (AOSOPPA, non-adiabatic coupling, magnetic properties)
  Vebjoern Bakken,          University of Oslo,           Norway      (DALTON; geometry optimizer, symmetry detection)
  Radovan Bast,             KTH Stockholm                 Sweden      (DALTON installation and execution frameworks)
  Linus Boman,              NTNU,                         Norway      (Cholesky decomposition and subsystems)
  Ove Christiansen,         Aarhus University,            Denmark     (CC module)
  Renzo Cimiraglia,         University of Ferrara,        Italy       (NEVPT2)
  Sonia Coriani,            University of Trieste,        Italy       (CC module, MCD in RESPONS)
  Paal Dahle,               University of Oslo,           Norway      (Parallelization)
  Erik K. Dalskov,          UNI-C,                        Denmark     (SOPPA)
  Thomas Enevoldsen,        Univ. of Southern Denmark,    Denmark     (SOPPA)
  Janus J. Eriksen,         Aarhus University,            Denmark     (PE-MP2/SOPPA, TDA)
  Berta Fernandez,          U. of Santiago de Compostela, Spain       (doublet spin, ESR in RESPONS)
  Lara Ferrighi,            Aarhus University,            Denmark     (PCM Cubic response)
  Heike Fliegl,             University of Oslo,           Norway      (CCSD(R12))
  Luca Frediani,            UiT The Arctic U. of Norway,  Norway      (PCM)
  Bin Gao,                  UiT The Arctic U. of Norway,  Norway      (Gen1Int library)
  Christof Haettig,         Ruhr-University Bochum,       Germany     (CC module)
  Kasper Hald,              Aarhus University,            Denmark     (CC module)
  Asger Halkier,            Aarhus University,            Denmark     (CC module)
  Hanne Heiberg,            University of Oslo,           Norway      (geometry analysis, selected one-electron integrals)
  Trygve Helgaker,          University of Oslo,           Norway      (DALTON; ABACUS, ERI, DFT modules, London, and much more)
  Alf Christian Hennum,     University of Oslo,           Norway      (Parity violation)
  Hinne Hettema,            University of Auckland,       New Zealand (quadratic response in RESPONS; SIRIUS supersymmetry)
  Eirik Hjertenaes,         NTNU,                         Norway      (Cholesky decomposition)
  Maria Francesca Iozzi,    University of Oslo,           Norway      (RPA)
  Brano Jansik              Technical Univ. of Ostrava    Czech Rep.  (DFT cubic response)
  Hans Joergen Aa. Jensen,  Univ. of Southern Denmark,    Denmark     (DALTON; SIRIUS, RESPONS, ABACUS modules, London, and much more)
  Dan Jonsson,              UiT The Arctic U. of Norway,  Norway      (cubic response in RESPONS module)
  Poul Joergensen,          Aarhus University,            Denmark     (RESPONS, ABACUS, and CC modules)
  Joanna Kauczor,           Linkoeping University,        Sweden      (Complex polarization propagator (CPP) module)
  Sheela Kirpekar,          Univ. of Southern Denmark,    Denmark     (Mass-velocity & Darwin integrals)
  Wim Klopper,              KIT Karlsruhe,                Germany     (R12 code in CC, SIRIUS, and ABACUS modules)
  Stefan Knecht,            ETH Zurich,                   Switzerland (Parallel CI and MCSCF)
  Rika Kobayashi,           Australian National Univ.,    Australia   (DIIS in CC, London in MCSCF)
  Henrik Koch,              NTNU,                         Norway      (CC module, Cholesky decomposition)
  Jacob Kongsted,           Univ. of Southern Denmark,    Denmark     (Polarizable embedding, QM/MM)
  Andrea Ligabue,           University of Modena,         Italy       (CTOCD, AOSOPPA)
  Ola B. Lutnaes,           University of Oslo,           Norway      (DFT Hessian)
  Juan I. Melo,             University of Buenos Aires,   Argentina   (LRESC, Relativistic Effects on NMR Shieldings)
  Kurt V. Mikkelsen,        University of Copenhagen,     Denmark     (MC-SCRF and QM/MM)
  Rolf H. Myhre,            NTNU,                         Norway      (Cholesky, subsystems and ECC2)
  Christian Neiss,          Univ. Erlangen-Nuernberg,     Germany     (CCSD(R12))
  Christian B. Nielsen,     University of Copenhagen,     Denmark     (QM/MM)
  Patrick Norman,           Linkoeping University,        Sweden      (Cubic response and complex response in RESPONS)
  Jeppe Olsen,              Aarhus University,            Denmark     (SIRIUS CI/density modules)
  Jogvan Magnus H. Olsen,   Univ. of Southern Denmark,    Denmark     (Polarizable embedding, PE library, QM/MM)
  Anders Osted,             Copenhagen University,        Denmark     (QM/MM)
  Martin J. Packer,         University of Sheffield,      UK          (SOPPA)
  Filip Pawlowski,          Kazimierz Wielki University   Poland      (CC3)
  Thomas B. Pedersen,       University of Oslo,           Norway      (Cholesky decomposition)
  Patricio F. Provasi,      University of Northeastern,   Argentina   (Analysis of coupling constants in localized orbitals)
  Zilvinas Rinkevicius,     KTH Stockholm,                Sweden      (open-shell DFT, ESR)
  Elias Rudberg,            KTH Stockholm,                Sweden      (DFT grid and basis info)
  Torgeir A. Ruden,         University of Oslo,           Norway      (Numerical derivatives in ABACUS)
  Kenneth Ruud,             UiT The Arctic U. of Norway,  Norway      (DALTON; ABACUS magnetic properties and  much more)
  Pawel Salek,              KTH Stockholm,                Sweden      (DALTON; DFT code)
  Claire C. M. Samson       University of Karlsruhe       Germany     (Boys localization, r12 integrals in ERI)
  Alfredo Sanchez de Meras, University of Valencia,       Spain       (CC module, Cholesky decomposition)
  Trond Saue,               Paul Sabatier University,     France      (direct Fock matrix construction)
  Stephan P. A. Sauer,      University of Copenhagen,     Denmark     (SOPPA(CCSD), SOPPA prop., AOSOPPA, vibrational g-factors)
  Bernd Schimmelpfennig,    Forschungszentrum Karlsruhe,  Germany     (AMFI module)
  Kristian Sneskov,         Aarhus University,            Denmark     (QM/MM, PE-CC)
  Arnfinn H. Steindal,      UiT The Arctic U. of Norway,  Norway      (parallel QM/MM)
  K. O. Sylvester-Hvid,     University of Copenhagen,     Denmark     (MC-SCRF)
  Peter R. Taylor,          VLSCI/Univ. of Melbourne,     Australia   (Symmetry handling ABACUS, integral transformation)
  Andrew M. Teale,          University of Nottingham,     England     (DFT-AC, DFT-D)
  David P. Tew,             University of Bristol,        England     (CCSD(R12))
  Olav Vahtras,             KTH Stockholm,                Sweden      (triplet response, spin-orbit, ESR, TDDFT, open-shell DFT)
  David J. Wilson,          La Trobe University,          Australia   (DFT Hessian and DFT magnetizabilities)
  Hans Agren,               KTH Stockholm,                Sweden      (SIRIUS module, RESPONS, MC-SCRF solvation model)
 --------------------------------------------------------------------------------

     Date and time (Linux)  : Sun Sep  8 20:50:33 2013
     Host name              : lpqlx131.ups-tlse.fr                    

 * Work memory size             :    64000000 =  488.28 megabytes.

 * Directories for basis set searches:
   1) /home/bast/DALTON-2013.0-Source/build/test_geoopt_prop3
   2) /home/bast/DALTON-2013.0-Source/build/basis


Compilation information
-----------------------

 Who compiled             | bast
 Host                     | lpqlx131.ups-tlse.fr
 System                   | Linux-3.8.5-201.fc18.x86_64
 CMake generator          | Unix Makefiles
 Processor                | x86_64
 64-bit integers          | OFF
 MPI                      | OFF
 Fortran compiler         | /usr/bin/gfortran
 Fortran compiler version | GNU Fortran (GCC) 4.7.2 20121109 (Red Hat 4.7.2-8)
 C compiler               | /usr/bin/gcc
 C compiler version       | gcc (GCC) 4.7.2 20121109 (Red Hat 4.7.2-8)
 C++ compiler             | /usr/bin/g++
 C++ compiler version     | g++ (GCC) 4.7.2 20121109 (Red Hat 4.7.2-8)
 Static linking           | OFF
 Last Git revision        | f34203295a86316e27f9e7b44f9b6769c4a046c0
 Configuration time       | 2013-09-08 20:31:27.952056


   Content of the .dal input file
 ----------------------------------

**DALTON INPUT                                    
.OPTIMIZE                                         
*OPTIMIZE                                         
.2NDORDER                                         
**WAVE FUNCTIONS                                  
.HF                                               
.MP2                                              
.MCSCF                                            
*SCF INPUT                                        
.DOUBLY OCCUPIED                                  
 6 4 1 1                                          
*CONFIGURATION INPUT                              
.SYMMETRY                                         
 1                                                
.SPIN MUL                                         
 1                                                
.INACTIVE                                         
 4 2 0 0                                          
.ELECTRONS                                        
 12                                               
.CAS SPACE                                        
 3 3 2 1                                          
**EACH STEP                                       
.VIBANA                                           
**PROPERTIES                                      
.VIBANA                                           
.MAGNET                                           
.SHIELD                                           
**END OF DALTON INPUT                             


   Content of the .mol file
 ----------------------------

BASIS                                                                          
aug-cc-pVDZ                                                                    
Geometry optimization, calculation of magnetizabilities                        
and nuclear shieldings at the optimized geometry                               
    1    2  Y  Z                                                               
        8.    2                                                                
OS         .0000000000        0.0000000000         .0000000000             *   
OP        1.2634502500        2.0449019100         .0000000000             *   


       *******************************************************************
       *********** Output from DALTON general input processing ***********
       *******************************************************************

 --------------------------------------------------------------------------------
   Overall default print level:    0
   Print level for DALTON.STAT:    1

    "Old" integral transformation used (limited to max 255 basis functions)
 --------------------------------------------------------------------------------


 Chosen parameters for *OPTIMI :
 -------------------------------

 Default 2nd order method will be used:   Newton method.
 Optimization will be performed in Cartesian coordinates.


 Trust region method will be used to control step (default).



              >>>>>>>>>>>>>>>>>>>>>>>>>>>>>>>>>>>>>>>>>>>>>>>>>>>>>
              >>>>>>>>>> 2nd Order Geometry Optimization >>>>>>>>>>
              >>>>>>>>>>>>>>>>>>>>>>>>>>>>>>>>>>>>>>>>>>>>>>>>>>>>>

 Reading .mol file to determine number of atoms for parallel runs.


   ****************************************************************************
   *************** Output of molecule and basis set information ***************
   ****************************************************************************


    The two title cards from your ".mol" input:
    ------------------------------------------------------------------------
 1: Geometry optimization, calculation of magnetizabilities                 
 2: and nuclear shieldings at the optimized geometry                        
    ------------------------------------------------------------------------

  Atomic type no.    1
  --------------------
  Nuclear charge:   8.00000
  Number of symmetry independent centers:    2
  Number of basis sets to read;    2
  Basis set file used for this atomic type with Z =   8 :
     "/home/bast/DALTON-2013.0-Source/build/basis/aug-cc-pVDZ"


                         SYMGRP: Point group information
                         -------------------------------

Point group: C2v

   * The point group was generated by:

      Reflection in the xz-plane
      Reflection in the xy-plane

   * Group multiplication table

        |  E   C2x  Oxy  Oxz
   -----+--------------------
     E  |  E   C2x  Oxy  Oxz
    C2x | C2x   E   Oxz  Oxy
    Oxy | Oxy  Oxz   E   C2x
    Oxz | Oxz  Oxy  C2x   E 

   * Character table

        |  E   C2x  Oxy  Oxz
   -----+--------------------
    A1  |   1    1    1    1
    B1  |   1   -1    1   -1
    B2  |   1   -1   -1    1
    A2  |   1    1   -1   -1

   * Direct product table

        | A1   B1   B2   A2 
   -----+--------------------
    A1  | A1   B1   B2   A2 
    B1  | B1   A1   A2   B2 
    B2  | B2   A2   A1   B1 
    A2  | A2   B2   B1   A1 


                                 Isotopic Masses
                                 ---------------

                           OS         15.994915
                           OP  _1     15.994915
                           OP  _2     15.994915

                       Total mass:    47.984745 amu
                       Natural abundance:  99.282 %

 Center-of-mass coordinates (a.u.):    0.842300    0.000000    0.000000


  Atoms and basis sets
  --------------------

  Number of atom types :    1
  Total number of atoms:    3

  Basis set used is "aug-cc-pVDZ" from the basis set library.

  label    atoms   charge   prim   cont     basis
  ----------------------------------------------------------------------
  OP          3    8.0000    35    23      [10s5p2d|4s3p2d]                                   
  ----------------------------------------------------------------------
  total:      3   24.0000   105    69
  ----------------------------------------------------------------------
  Spherical harmonic basis used.

  Threshold for neglecting AO integrals:  1.00D-12


  Cartesian Coordinates (a.u.)
  ----------------------------

  Total number of coordinates:    9
  OS      :     1  x   0.0000000000    2  y   0.0000000000    3  z   0.0000000000
  OP  / 1 :     4  x   1.2634502500    5  y   2.0449019100    6  z   0.0000000000
  OP  / 2 :     7  x   1.2634502500    8  y  -2.0449019100    9  z   0.0000000000


  Symmetry Coordinates
  --------------------

  Number of coordinates in each symmetry:     3    3    2    1

  Symmetry  A1  ( 1)

    1   OS    x    1
    2   OP    x    [  4  +    7 ]/2
    3   OP    y    [  5  -    8 ]/2

  Symmetry  B1  ( 2)

    4   OS    y    2
    5   OP    x    [  4  -    7 ]/2
    6   OP    y    [  5  +    8 ]/2

  Symmetry  B2  ( 3)

    7   OS    z    3
    8   OP    z    [  6  +    9 ]/2

  Symmetry  A2  ( 4)

    9   OP    z    [  6  -    9 ]/2


   Interatomic separations (in Angstrom):
   --------------------------------------

            OS          OP  _1      OP  _2
            ------      ------      ------
 OS    :    0.000000
 OP  _1:    1.272001    0.000000
 OP  _2:    1.272001    2.164231    0.000000


  Max    interatomic separation is    2.1642 Angstrom (    4.0898 Bohr)
  between atoms    3 and    2, "OP  _2" and "OP  _1".

  Min YX interatomic separation is    1.2720 Angstrom (    2.4037 Bohr)


  Bond distances (Angstrom):
  --------------------------

                  atom 1     atom 2       distance
                  ------     ------       --------
  bond distance:  OP  _1     OS           1.272001
  bond distance:  OP  _2     OS           1.272001


  Bond angles (degrees):
  ----------------------

                  atom 1     atom 2     atom 3         angle
                  ------     ------     ------         -----
  bond angle:     OP  _1     OS         OP  _2       116.580




 Principal moments of inertia (u*A**2) and principal axes
 --------------------------------------------------------

   IA       4.766606          0.000000    1.000000    0.000000
   IB      37.459257          1.000000    0.000000    0.000000
   IC      42.225863          0.000000    0.000000    1.000000


 Rotational constants
 --------------------

 The molecule is planar.

               A                   B                   C

         106024.9222          13491.4317          11968.4708 MHz
            3.536611            0.450026            0.399225 cm-1


@  Nuclear repulsion energy :   68.899188090779 Hartree


  Symmetry Orbitals
  -----------------

  Number of orbitals in each symmetry:          27   21   12    9


  Symmetry  A1 ( 1)

    1     OS       1s         1
    2     OS       1s         2
    3     OS       1s         3
    4     OS       1s         4
    5     OS       2px        5
    6     OS       2px        8
    7     OS       2px       11
    8     OS       3d0       16
    9     OS       3d2+      18
   10     OS       3d0       21
   11     OS       3d2+      23
   12     OP       1s        24 +   25
   13     OP       1s        26 +   27
   14     OP       1s        28 +   29
   15     OP       1s        30 +   31
   16     OP       2px       32 +   33
   17     OP       2py       34 -   35
   18     OP       2px       38 +   39
   19     OP       2py       40 -   41
   20     OP       2px       44 +   45
   21     OP       2py       46 -   47
   22     OP       3d2-      50 -   51
   23     OP       3d0       54 +   55
   24     OP       3d2+      58 +   59
   25     OP       3d2-      60 -   61
   26     OP       3d0       64 +   65
   27     OP       3d2+      68 +   69


  Symmetry  B1 ( 2)

   28     OS       2py        6
   29     OS       2py        9
   30     OS       2py       12
   31     OS       3d2-      14
   32     OS       3d2-      19
   33     OP       1s        24 -   25
   34     OP       1s        26 -   27
   35     OP       1s        28 -   29
   36     OP       1s        30 -   31
   37     OP       2px       32 -   33
   38     OP       2py       34 +   35
   39     OP       2px       38 -   39
   40     OP       2py       40 +   41
   41     OP       2px       44 -   45
   42     OP       2py       46 +   47
   43     OP       3d2-      50 +   51
   44     OP       3d0       54 -   55
   45     OP       3d2+      58 -   59
   46     OP       3d2-      60 +   61
   47     OP       3d0       64 -   65
   48     OP       3d2+      68 -   69


  Symmetry  B2 ( 3)

   49     OS       2pz        7
   50     OS       2pz       10
   51     OS       2pz       13
   52     OS       3d1+      17
   53     OS       3d1+      22
   54     OP       2pz       36 +   37
   55     OP       2pz       42 +   43
   56     OP       2pz       48 +   49
   57     OP       3d1-      52 -   53
   58     OP       3d1+      56 +   57
   59     OP       3d1-      62 -   63
   60     OP       3d1+      66 +   67


  Symmetry  A2 ( 4)

   61     OS       3d1-      15
   62     OS       3d1-      20
   63     OP       2pz       36 -   37
   64     OP       2pz       42 -   43
   65     OP       2pz       48 -   49
   66     OP       3d1-      52 +   53
   67     OP       3d1+      56 -   57
   68     OP       3d1-      62 +   63
   69     OP       3d1+      66 -   67

  Symmetries of electric field:  A1 (1)  B1 (2)  B2 (3)

  Symmetries of magnetic field:  A2 (4)  B2 (3)  B1 (2)


                     .---------------------------------------.
                     | Starting in Integral Section (HERMIT) |
                     `---------------------------------------'



    *************************************************************************
    ****************** Output from HERMIT input processing ******************
    *************************************************************************



     ************************************************************************
     ************************** Output from HERINT **************************
     ************************************************************************


 Threshold for neglecting two-electron integrals:  1.00D-12
 Number of two-electron integrals written:      672537 ( 23.1% )
 Megabytes written:                              7.702

 >>>  Time used in TWOINT     is   0.31 seconds
 >>>> Total CPU  time used in HERMIT:   0.33 seconds
 >>>> Total wall time used in HERMIT:   0.34 seconds


                        .----------------------------------.
                        | End of Integral Section (HERMIT) |
                        `----------------------------------'



                   .--------------------------------------------.
                   | Starting in Wave Function Section (SIRIUS) |
                   `--------------------------------------------'


 *** Output from Huckel module :

     Using EWMO model:          F
     Using EHT  model:          T
     Number of Huckel orbitals each symmetry:    7    5    2    1

 Huckel EHT eigenvalues for symmetry :  1
          -20.699402     -20.689226      -1.729687      -1.040767      -0.734624
           -0.537512      -0.406137

 Huckel EHT eigenvalues for symmetry :  2
          -20.691361      -1.341378      -0.690151      -0.562527      -0.368329

 Huckel EHT eigenvalues for symmetry :  3
           -0.772074      -0.484532

 Huckel EHT eigenvalues for symmetry :  4
           -0.591994

 **********************************************************************
 *SIRIUS* a direct, restricted step, second order MCSCF program       *
 **********************************************************************

 
     Date and time (Linux)  : Sun Sep  8 20:50:34 2013
     Host name              : lpqlx131.ups-tlse.fr                    

 Title lines from ".mol" input file:
     Geometry optimization, calculation of magnetizabilities                 
     and nuclear shieldings at the optimized geometry                        

 Print level on unit LUPRI =   2 is   0
 Print level on unit LUW4  =   2 is   5

@    MC-SCF optimization.
@              Type: complete active space calculation (CAS).

@    This is a combination run starting with
@              a restricted, closed shell Hartree-Fock calculation
@              an MP2 calculation


 Initial molecular orbitals are obtained according to
 ".MOSTART EHT   " input option

     Wave function specification
     ============================
@    For the wave function of type :      >>> MC-SCF <<<
@    Number of closed shell electrons          12
@    Number of electrons in active shells      12
@    Total charge of the molecule               0

@    Spin multiplicity and 2 M_S                1         0
     Total number of symmetries                 4
@    Reference state symmetry                   1

     Orbital specifications
     ======================
     Abelian symmetry species          All |    1    2    3    4
                                       --- |  ---  ---  ---  ---
@    Inactive orbitals                   6 |    4    2    0    0
@    Active orbitals                     9 |    3    3    2    1
     Secondary orbitals                 54 |   20   16   10    8
     Total number of orbitals           69 |   27   21   12    9
     Number of basis functions          69 |   27   21   12    9

      -- Initial occupation of symmetries is determined from user input.                      
      -- Initial occupation of symmetries is :
@    Occupied SCF orbitals              12 |    6    4    1    1

     Optimization information
     ========================
@    Number of configurations               666
@    Number of orbital rotations            266
     ------------------------------------------
@    Total number of variables              932

     Maximum number of macro iterations      25
     Maximum number of micro iterations     600
     Threshold for MCSCF gradient      1.00D-05
     Number of initial trial vectors          1
     Number of initial CI iterations          3
     Number of simultaneous trial vectors     1

@    This calculation converges to the lowest state for the specified symmetry and spin species.

     Maximum number of NEO/NR iterations  24


 >>>>> DIIS optimization of Hartree-Fock <<<<<

 C1-DIIS algorithm; max error vectors =   10

 Iter      Total energy        Error norm    Delta(E)  DIIS dim.
 -----------------------------------------------------------------------------
     (Precalculated two-electron integrals are transformed to P-supermatrix elements.
      Threshold for discarding integrals :  1.00D-12 )
@  1    -223.582328824        4.04374D+00   -2.24D+02    1
      Virial theorem: -V/T =      2.002837
@      MULPOP OS      1.10; OP  _1 -0.55; OP  _2 -0.55; 
 -----------------------------------------------------------------------------
@  2    -223.870441217        3.17808D+00   -2.88D-01    2
      Virial theorem: -V/T =      1.994180
@      MULPOP OS     -0.48; OP  _1  0.24; OP  _2  0.24; 
 -----------------------------------------------------------------------------
@  3    -224.276125959        5.39063D-01   -4.06D-01    3
      Virial theorem: -V/T =      2.002210
@      MULPOP OS      0.47; OP  _1 -0.24; OP  _2 -0.24; 
 -----------------------------------------------------------------------------
@  4    -224.289820916        8.05870D-02   -1.37D-02    4
      Virial theorem: -V/T =      2.002842
@      MULPOP OS      0.34; OP  _1 -0.17; OP  _2 -0.17; 
 -----------------------------------------------------------------------------
@  5    -224.290386085        2.51761D-02   -5.65D-04    5
      Virial theorem: -V/T =      2.002216
@      MULPOP OS      0.34; OP  _1 -0.17; OP  _2 -0.17; 
 -----------------------------------------------------------------------------
@  6    -224.290475206        9.25693D-03   -8.91D-05    6
      Virial theorem: -V/T =      2.002333
@      MULPOP OS      0.34; OP  _1 -0.17; OP  _2 -0.17; 
 -----------------------------------------------------------------------------
@  7    -224.290495903        3.80667D-03   -2.07D-05    7
      Virial theorem: -V/T =      2.002297
@      MULPOP OS      0.34; OP  _1 -0.17; OP  _2 -0.17; 
 -----------------------------------------------------------------------------
@  8    -224.290499746        1.50370D-03   -3.84D-06    8
      Virial theorem: -V/T =      2.002299
@      MULPOP OS      0.34; OP  _1 -0.17; OP  _2 -0.17; 
 -----------------------------------------------------------------------------
@  9    -224.290500230        2.74074D-04   -4.84D-07    9
      Virial theorem: -V/T =      2.002296
@      MULPOP OS      0.34; OP  _1 -0.17; OP  _2 -0.17; 
 -----------------------------------------------------------------------------
@ 10    -224.290500243        4.26559D-05   -1.33D-08   10
      Virial theorem: -V/T =      2.002296
@      MULPOP OS      0.34; OP  _1 -0.17; OP  _2 -0.17; 
 -----------------------------------------------------------------------------
@ 11    -224.290500244        8.04962D-06   -2.46D-10   10
      Virial theorem: -V/T =      2.002296
@      MULPOP OS      0.34; OP  _1 -0.17; OP  _2 -0.17; 
 -----------------------------------------------------------------------------
@ 12    -224.290500244        2.83044D-06   -1.14D-11   10
      Virial theorem: -V/T =      2.002296
@      MULPOP OS      0.34; OP  _1 -0.17; OP  _2 -0.17; 
 -----------------------------------------------------------------------------
@ 13    -224.290500244        4.96605D-07   -1.71D-12   10

@ *** DIIS converged in  13 iterations !
@     Converged SCF energy, gradient:   -224.290500243741    4.97D-07
    - total time used in SIRFCK :              0.00 seconds

 >>> Writing SIRIFC interface file <<<

 >>>> CPU and wall time for SCF :       0.074       0.076


 >>>>> Output from SIRIUS MP2 module <<<<<

 Reference: H.J.Aa.Jensen, P.Jorgensen, H.Agren, and J.Olsen,
            J. Chem. Phys. 88, 3834 (1988); 89, 5354 (1988)

 Checking that the closed shell orbitals are canonical Hartree-Fock orbitals

    Number of electrons  :   24
    Closed shell orbitals:    6    4    1    1

 Generating Fock matrix

 Hartree-Fock electronic energy:        -293.189688334520
 Hartree-Fock total      energy:        -224.290500243741

 Hartree-Fock orbital energies, symmetry 1, number of occupied SCF orbitals is    6

       -20.92872784   -20.72021755    -1.76281598    -1.10001908    -0.83740730
        -0.55578491     0.12913202     0.15219434     0.21645185     0.27703579
         0.33083695     0.41393541     0.86547164     1.00530952     1.10806049
         1.22559207     1.27652648     1.29806861     1.50529480     1.85423683
         2.23533299     3.20808056     3.35695742     3.48934058     3.70924134
         3.91068413     4.34994052

 Hartree-Fock orbital energies, symmetry 2, number of occupied SCF orbitals is    4

       -20.72029375    -1.44160595    -0.80567920    -0.56538615     0.12634724
         0.22629885     0.28964271     0.39158511     0.45833442     0.98680545
         1.04725242     1.21463458     1.27464439     1.41332967     1.75858145
         2.44224814     3.10080986     3.29956962     3.56030892     3.64014471
         4.29747343

 Hartree-Fock orbital energies, symmetry 3, number of occupied SCF orbitals is    1

        -0.78567811    -0.04977783     0.18223873     0.24643307     0.80989624
         1.12759269     1.20300939     1.29436718     1.72053874     3.21285721
         3.50151003     3.76725044

 Hartree-Fock orbital energies, symmetry 4, number of occupied SCF orbitals is    1

        -0.49039254     0.23554617     0.92850024     1.15092983     1.34353593
         1.64641567     3.09966296     3.55334146     3.95459747

    E(LUMO) :    -0.04977783   (in symmetry 3)
  - E(HOMO) :    -0.49039254   (in symmetry 4)
  --------------------------
    gap     :     0.44061471

 Integral transformation: Total CPU and WALL times (sec)       0.213       0.215

 MP2 move   0.472200 electrons to unoccupied HF orbitals


@   Hartree-Fock total energy   :          -224.2905002437
@   + MP2 contribution          :            -0.6734135697
@   = MP2 second order energy   :          -224.9639138135

 Natural orbital occupation numbers, symmetry 1
 Sum =    12.00677322; RHF =    12.00000000; Difference =     0.00677322

         1.99991333     1.99990802     1.98808649     1.97709354     1.96801265
         1.94204089     0.06102152     0.02355406     0.01427069     0.00785282
         0.00696048     0.00574249     0.00435979     0.00258422     0.00218373
         0.00160800     0.00045918     0.00034999     0.00028375     0.00020521
         0.00016757     0.00009470     0.00008100     0.00003691     0.00001367
        -0.00000006    -0.00011142

 Natural orbital occupation numbers, symmetry 2
 Sum =     7.97707589; RHF =     8.00000000; Difference =    -0.02292411

         1.99991313     1.98333251     1.96455253     1.92659390     0.05555409
         0.01702881     0.01015196     0.00663229     0.00471208     0.00350737
         0.00193599     0.00191767     0.00041126     0.00032463     0.00023476
         0.00018133     0.00013119     0.00005087     0.00002004     0.00000807
        -0.00011861

 Natural orbital occupation numbers, symmetry 3
 Sum =     2.12989457; RHF =     2.00000000; Difference =     0.12989457

         1.93386519     0.17118154     0.01000405     0.00567660     0.00428048
         0.00273643     0.00116772     0.00046145     0.00022651     0.00015935
         0.00012649     0.00000875

 Natural orbital occupation numbers, symmetry 4
 Sum =     1.88625632; RHF =     2.00000000; Difference =    -0.11374368

         1.86104840     0.01051553     0.00750153     0.00464138     0.00147214
         0.00042849     0.00032509     0.00020944     0.00011431

 Time used for MP2 natural orbitals :       0.242 CPU seconds,       0.245 wall seconds.

 >>>> CPU and wall time for MP2 :       0.243       0.245


        SIRIUS MCSCF optimization (SIROPT)
 ================================================



 <<<<< Output from SIRIUS CI module (CICTL) >>>>>




 Integral transformation: Total CPU and WALL times (sec)       0.053       0.054

 (CIST1)  4 lowest diagonal elements:

 Element no. Config.no.    Active energy      Total energy

         1 :         37    -38.8529768431   -224.2770316708
         2 :        131    -38.4359975244   -223.8600523521
         3 :         69    -38.3787102070   -223.8027650347
         4 :         16    -38.3543638513   -223.7784186790


 Convergence threshold for CI optimization :     0.00000500



 *** Reached maximum number of CI iterations:    3
              1 CI roots are not converged.


 CI energies and residuals:
    1     -224.500243059150193       1.43D-01


 Final CI energy:     -224.500243059150193

   <<< OUTPUT FROM SIRCNO >>>    Keyword = FD+NO 


 Occupations of CAS natural orbitals:

 Symmetry  1

   1.993150440   1.963698239   0.052218382

 Symmetry  2

   1.993641133   1.952664419   0.043343849

 Symmetry  3

   1.962523912   0.167166241

 Symmetry  4

   1.871593386


 <<< MACRO ITERATION  1 >>>
 --------------------------

 Integral transformation: Total CPU and WALL times (sec)       0.162       0.164

 Total MCSCF energy       :          -224.500243059150165  (MACRO    1)

 - Nuclear repulsion      :            68.899188090778793
 - Inactive energy        :          -254.323242918459925
 - Active energy          :           -39.076188231469040

 Norm of total gradient   :             0.343501184183
 -    of CI gradient      :             0.285988169263
 -    of orbital gradient :             0.190273042170
      Virial theorem: -V/T =      1.986158
@      MULPOP OS     -0.46; OP  _1  0.23; OP  _2  0.23; 

 Residual norm when dim(red L) =   9
 NEO root     CSF        orbital          total
    1     0.04597409     0.01468708     0.04826310 converged

 (NEONEX) NEO vector is converged.

   <<< OUTPUT FROM SIRCNO >>>    Keyword = FD+NO 


 Occupations of CAS natural orbitals:

 Symmetry  1

   1.989409084   1.952213209   0.066868145

 Symmetry  2

   1.991303648   1.944584260   0.055047928

 Symmetry  3

   1.958094617   0.234873828

 Symmetry  4

   1.807605282


 <<< MACRO ITERATION  2 >>>
 --------------------------

 Integral transformation: Total CPU and WALL times (sec)       0.162       0.164

 Total MCSCF energy       :          -224.516986439365382  (MACRO    2)

 - Nuclear repulsion      :            68.899188090778793
 - Inactive energy        :          -253.388616010454939
 - Active energy          :           -40.027558519689237

 Norm of total gradient   :             0.092628969431
 -    of CI gradient      :             0.082708130465
 -    of orbital gradient :             0.041707207204
      Virial theorem: -V/T =      1.988082
@      MULPOP OS     -0.62; OP  _1  0.31; OP  _2  0.31; 

 Residual norm when dim(red L) =   8
 NEO root     CSF        orbital          total
    1     0.01346914     0.00807992     0.01570678 converged

 (NEONEX) NEO vector is converged.

   <<< OUTPUT FROM SIRCNO >>>    Keyword = FD+NO 


 Occupations of CAS natural orbitals:

 Symmetry  1

   1.990044688   1.957081532   0.060662950

 Symmetry  2

   1.991963757   1.948321885   0.050934500

 Symmetry  3

   1.963139963   0.243177344

 Symmetry  4

   1.794673380


 <<< MACRO ITERATION  3 >>>
 --------------------------

 Integral transformation: Total CPU and WALL times (sec)       0.158       0.159

 Total MCSCF energy       :          -224.518475721778600  (MACRO    3)

 - Nuclear repulsion      :            68.899188090778793
 - Inactive energy        :          -253.543670447254698
 - Active energy          :           -39.873993365302681

 Norm of total gradient   :             0.016160329038
 -    of CI gradient      :             0.013655392141
 -    of orbital gradient :             0.008642135158
      Virial theorem: -V/T =      1.987496
@      MULPOP OS     -0.62; OP  _1  0.31; OP  _2  0.31; 

 Residual norm when dim(red L) =  14
 NEO root     CSF        orbital          total
    1     0.00038598     0.00009825     0.00039829 converged

 (NEONEX) NEO vector is converged.

   <<< OUTPUT FROM SIRCNO >>>    Keyword = FD+NO 


 Occupations of CAS natural orbitals:

 Symmetry  1

   1.990175351   1.957246222   0.060271707

 Symmetry  2

   1.991988477   1.948776739   0.050653051

 Symmetry  3

   1.963634463   0.248582984

 Symmetry  4

   1.788671004


 <<< MACRO ITERATION  4 >>>
 --------------------------

 Integral transformation: Total CPU and WALL times (sec)       0.161       0.163

 Total MCSCF energy       :          -224.518523872942467  (MACRO    4)

 - Nuclear repulsion      :            68.899188090778793
 - Inactive energy        :          -253.552440578338377
 - Active energy          :           -39.865271385382869

 Norm of total gradient   :             0.000434131877
 -    of CI gradient      :             0.000404783115
 -    of orbital gradient :             0.000156911175
      Virial theorem: -V/T =      1.987427
@      MULPOP OS     -0.63; OP  _1  0.31; OP  _2  0.31; 

 Residual norm when dim(red L) =  16
 NEO root     CSF        orbital          total
    1     0.00000535     0.00000705     0.00000885 converged

 (NEONEX) NEO vector is converged.

   <<< OUTPUT FROM SIRCNO >>>    Keyword = FD+NO 


 Occupations of CAS natural orbitals:

 Symmetry  1

   1.990181883   1.957235921   0.060261095

 Symmetry  2

   1.991987638   1.948783854   0.050660280

 Symmetry  3

   1.963641733   0.248492933

 Symmetry  4

   1.788754662


 <<< MACRO ITERATION  5 >>>
 --------------------------

 Integral transformation: Total CPU and WALL times (sec)       0.161       0.163

 Total MCSCF energy       :          -224.518523910217681  (MACRO    5)

 - Nuclear repulsion      :            68.899188090778793
 - Inactive energy        :          -253.552821993581091
 - Active energy          :           -39.864890007415362

 Norm of total gradient   :             0.000008836898
 -    of CI gradient      :             0.000005351471
 -    of orbital gradient :             0.000007032249
      Virial theorem: -V/T =      1.987427
@      MULPOP OS     -0.63; OP  _1  0.31; OP  _2  0.31; 

 *** Optimization control: MCSCF converged ***
     Number of macro iterations used            5
     Number of micro iterations used           39
     Total number of CPU seconds used         1.57

 Integral transformation: Total CPU and WALL times (sec)       0.193       0.195

 >>>> CPU and wall time for MCSCF :       1.765       1.785


                     .----------------------------------------.
                     | >>> SIRIUS OPTIMIZATION STATISTICS <<< |
                     `----------------------------------------'


 
     Date and time (Linux)  : Sun Sep  8 20:50:36 2013
     Host name              : lpqlx131.ups-tlse.fr                    


  ITER ITMIC     EMCSCF           GRDNRM        RATIO      STPLNG
 ---------------------------------------------------------------------
    1    7   -224.500243059150   0.3435011842  0.000000   0.4901304433
    2    6   -224.516986439365   0.0926289694  0.877961   0.1136242264
    3   12   -224.518475721779   0.0161603290  1.028250   0.0249397660
    4   14   -224.518523872942   0.0004341319  1.000398   0.0008101234
    5    0   -224.518523910218   0.0000088369  1.000075   0.0000000000


  ITER  INDGCM  GCIMAX      GCINRM     INDGOM  GOBMAX      GOBNRM      GRDNRM
 ------------------------------------------------------------------------------
    1    424    0.053993    0.285988    217   -0.076282    0.190273    0.343501
    2     38   -0.024832    0.082708      9    0.017761    0.041707    0.092629
    3    440    0.002687    0.013655    262    0.002644    0.008642    0.016160
    4    157    0.000104    0.000405    245    0.000050    0.000157    0.000434
    5    151   -0.000001    0.000005    217    0.000002    0.000007    0.000009


  ITER ITMIC NCLIN NOLIN   TIMMAC    TIMITR    TIMMIC    TIMLIN    TIMMIC/ITMIC
 ------------------------------------------------------------------------------

    1     7     5     3      0.30      0.16      0.12      0.12      0.02
    2     6     5     2      0.27      0.16      0.10      0.09      0.02
    3    12     8     5      0.37      0.16      0.20      0.19      0.02
    4    14    10     5      0.39      0.16      0.22      0.21      0.02
    5     0     0     0      0.17      0.16      0.00      0.00


 ITER         EMY                 EACTIV              EMCSCF

    1   -254.323242918460    -39.076188231469   -224.500243059150
    2   -253.388616010455    -40.027558519689   -224.516986439365
    3   -253.543670447255    -39.873993365303   -224.518475721779
    4   -253.552440578338    -39.865271385383   -224.518523872942
    5   -253.552821993581    -39.864890007415   -224.518523910218


 ITER         DEPRED              DEACT               RATIO

    1      0.000000000000      0.000000000000      0.000000000000
    2     -0.019070764722     -0.016743380215      0.877960609299
    3     -0.001448366010     -0.001489282413      1.028250043587
    4     -0.000048132027     -0.000048151164      1.000397588715
    5     -0.000000037272     -0.000000037275      1.000074648775


 ITER    BETA           GAMMA             STPLNG              RTRUST

    1      0.20000000  1.00000000      0.490130443260      0.700000000000
    2      0.20000000  1.00000000      0.113624226431      0.700000000000
    3      0.20000000  1.00000000      0.024939765957      0.700000000000
    4      0.20000000  1.00000000      0.000810123388      0.700000000000
    5      0.00000000  0.00000000      0.000000000000      0.700000000000


 Reduced L root no.  1
 ITER         EVAL              EVEC(1)           EVEC(2)           EVEC(3)
 ----------------------------------------------------------------------------
    1   -0.001511140457    0.995229793667   -0.015453885029   -0.091805203246
    2   -0.000115809475    0.999741890668   -0.004237266581   -0.021585053245
    3   -0.000003850466    0.999987560394   -0.001308160235   -0.004144125328
    4   -0.000000002982    0.999999986874   -0.000039545251   -0.000101439114
    5    0.000000000000    0.000000000000    0.000000000000    0.000000000000


                       .-----------------------------------.
                       | >>> Final results from SIRIUS <<< |
                       `-----------------------------------'


@    Spin multiplicity:           1
@    Spatial symmetry:            1
@    Total charge of molecule:    0
@    State number:                1

@    Final MCSCF energy:         -224.518523910218                 
@    Nuclear repulsion:            68.899188090779
@    Electronic energy:          -293.417712000996

@    Final gradient norm:           0.000008836898

 
     Date and time (Linux)  : Sun Sep  8 20:50:36 2013
     Host name              : lpqlx131.ups-tlse.fr                    

 Occupancies of natural orbitals
 -------------------------------

 Symmetry  1 -- Total occupation in this symmetry is  12.007678899

   2.000000000   2.000000000   2.000000000   2.000000000   1.990181883
   1.957235921   0.060261095

 Symmetry  2 -- Total occupation in this symmetry is   7.991431772

   2.000000000   2.000000000   1.991987638   1.948783854   0.050660280

 Symmetry  3 -- Total occupation in this symmetry is   2.212134666

   1.963641733   0.248492933

 Symmetry  4 -- Total occupation in this symmetry is   1.788754662

   1.788754662

 (Only coefficients >0.0100 are printed.)

 Molecular orbitals for symmetry species  1
 ------------------------------------------

    Orbital         3        4        5        6        7        8        9
   1 OS  :1s    -0.0020   0.0043   0.0053   0.0018  -0.0669   0.0061   0.0156
   2 OS  :1s     0.5847   0.6016   0.4911  -0.1918  -0.7226  -0.0744  -0.0300
   3 OS  :1s    -0.0722   0.1198   0.1031   0.1222  -0.0458  -0.2680  -0.3513
   4 OS  :1s    -0.0728   0.0561   0.1537   0.0744  -0.2370  -8.0403   2.8588
   5 OS  :2px   -0.1820  -0.3527   0.0023  -0.7839  -0.8412   0.1273   0.0816
   6 OS  :2px   -0.0175   0.0724   0.0290   0.0256   0.2037  -0.2049   0.0441
   7 OS  :2px   -0.0272   0.0050  -0.0035   0.0027  -0.0239  -2.5331  -0.3884
   8 OS  :3d0   -0.0069   0.0049   0.0026   0.0203  -0.0084  -0.0057  -0.0005
   9 OS  :3d2+  -0.0114  -0.0125   0.0236   0.0075  -0.0389   0.0110   0.0066
  10 OS  :3d0    0.0004  -0.0085  -0.0068   0.0192   0.0039   0.0987   0.0066
  11 OS  :3d2+  -0.0118  -0.0326   0.0312  -0.0179  -0.0041   0.0293  -0.0393
  13 OP  :1s     0.5191  -0.4126  -0.1974  -0.0271   0.2362  -0.0442  -0.1066
  14 OP  :1s    -0.0245  -0.0693  -0.0815   0.0901   0.0945   0.1316  -0.2024
  15 OP  :1s     0.0521  -0.0399  -0.0668   0.0060   0.1110   4.1971  -0.5069
  16 OP  :2px   -0.0319  -0.2944   0.4852   0.3574  -0.2119   0.0521  -0.0812
  17 OP  :2py    0.0675   0.0456  -0.3310   0.2818  -0.7403  -0.0011  -0.0664
  18 OP  :2px    0.0178   0.0531   0.0171   0.0102  -0.0254  -0.0627  -0.0508
  19 OP  :2py    0.0015   0.0393   0.0602  -0.0749   0.1085  -0.2388  -0.1030
  20 OP  :2px    0.0009  -0.0059   0.0382   0.0155  -0.0232  -0.6613   0.7799
  21 OP  :2py   -0.0078   0.0064   0.0015  -0.0034  -0.0130  -1.4512   0.8025
  22 OP  :3d2-   0.0071   0.0093   0.0008  -0.0132   0.0100  -0.0064   0.0017
  23 OP  :3d0   -0.0040  -0.0023  -0.0036   0.0100  -0.0050  -0.0014  -0.0037
  24 OP  :3d2+   0.0008   0.0055  -0.0113   0.0152   0.0008  -0.0003  -0.0006
  25 OP  :3d2-  -0.0004  -0.0110  -0.0038  -0.0173   0.0242   0.0456  -0.0079
  26 OP  :3d0    0.0006   0.0090   0.0038   0.0035  -0.0053  -0.0253   0.0078
  27 OP  :3d2+  -0.0017   0.0012   0.0042  -0.0071  -0.0033  -0.0429  -0.0143

 Molecular orbitals for symmetry species  2
 ------------------------------------------

    Orbital         1        2        3        4        5        6        7
   1 OS  :2py    0.0010   0.0768   0.2156  -0.6904   1.1217   0.0300   0.0707
   2 OS  :2py    0.0105  -0.1417  -0.0279   0.0709  -0.2268  -0.4685   0.0388
   3 OS  :2py    0.0008  -0.0202   0.0080   0.0072   0.0151  -3.3268  -0.0424
   4 OS  :3d2-  -0.0002   0.0169  -0.0116  -0.0374   0.0073  -0.0000   0.0102
   5 OS  :3d2-   0.0028  -0.0229   0.0013  -0.0425  -0.0244  -0.1363  -0.0520
   6 OP  :1s     0.7082  -0.0049  -0.0014   0.0027  -0.0171   0.0009   0.0000
   7 OP  :1s     0.0042   0.6820  -0.0222  -0.0144  -0.2871   0.0779  -0.0078
   8 OP  :1s    -0.0118   0.0712  -0.0384   0.1139  -0.0458   0.1164   0.0452
   9 OP  :1s    -0.0025   0.0696  -0.0348   0.0377  -0.0619   4.9289  -0.2245
  10 OP  :2px   -0.0011   0.0725  -0.5993   0.1240   0.5225   0.0032  -0.1234
  11 OP  :2py   -0.0017   0.0765   0.3351   0.5066   0.4882   0.1112   0.0507
  12 OP  :2px    0.0041  -0.0318   0.0052  -0.0507  -0.1228  -0.1565  -0.1395
  13 OP  :2py    0.0067  -0.0526   0.0281  -0.0470  -0.0317  -0.2100   0.0242
  14 OP  :2px    0.0002  -0.0032  -0.0265  -0.0112  -0.0091  -1.1439   1.1971
  15 OP  :2py    0.0005  -0.0058   0.0307   0.0009   0.0230  -1.6887   0.0949
  16 OP  :3d2-  -0.0000   0.0006   0.0081  -0.0191   0.0003  -0.0020   0.0126
  17 OP  :3d0   -0.0002  -0.0004  -0.0025   0.0105   0.0010   0.0065  -0.0032
  19 OP  :3d2-  -0.0017   0.0120   0.0084  -0.0097   0.0028   0.0824  -0.0264
  20 OP  :3d0    0.0012  -0.0095  -0.0006   0.0127   0.0088  -0.0730   0.0095
  21 OP  :3d2+   0.0010  -0.0079   0.0158   0.0118   0.0077  -0.0530  -0.0153

 Molecular orbitals for symmetry species  3
 ------------------------------------------

    Orbital         1        2        3        4
   1 OS  :2pz    0.7947   0.6888  -0.1427  -0.1259
   2 OS  :2pz   -0.0322  -0.0152  -0.0973  -0.1675
   3 OS  :2pz   -0.0002  -0.0085   0.0692   2.8854
   4 OS  :3d1+   0.0219   0.0064  -0.0075  -0.0132
   5 OS  :3d1+   0.0241   0.0247   0.0018   0.0228
   6 OP  :2pz    0.3396  -0.7216  -0.1142   0.0244
   7 OP  :2pz   -0.0340   0.0820  -0.1486   0.0428
   8 OP  :2pz    0.0075   0.0129   0.6361  -1.4862
   9 OP  :3d1-  -0.0182  -0.0014   0.0054  -0.0034
  10 OP  :3d1+  -0.0104   0.0008   0.0055  -0.0055
  11 OP  :3d1-  -0.0046   0.0058   0.0025   0.0320

 Molecular orbitals for symmetry species  4
 ------------------------------------------

    Orbital         1        2        3
   1 OS  :3d1-   0.0295  -0.0030   0.0161
   2 OS  :3d1-   0.0180  -0.0166   0.4452
   3 OP  :2pz    0.6908  -0.1462  -0.0902
   4 OP  :2pz    0.0106  -0.1813  -0.1477
   5 OP  :2pz    0.0377   1.2134   0.0212
   6 OP  :3d1-  -0.0105   0.0101  -0.0049
   8 OP  :3d1-  -0.0161  -0.0145  -0.0292
   9 OP  :3d1+  -0.0091  -0.0046  -0.5395

 Printout of CI-coefficients abs greater than 0.05000 for root  1
 *** NOTE: this root is the reference state ***

 Printout of coefficients in interval  3.1623E-01 to  1.0000E+00
 ===============================================================

  Coefficient of CSF no.        37 is      0.91131561    9.11315609E-01
  Orbital          1   2   4   5   7   9
  Spin coupling    2   2   2   2   2   2

 Printout of coefficients in interval  1.0000E-01 to  3.1623E-01
 ===============================================================

  Coefficient of CSF no.        16 is     -0.29175838   -2.91758384E-01
  Orbital          1   2   4   5   7   8
  Spin coupling    2   2   2   2   2   2

  Coefficient of CSF no.       281 is     -0.10407728   -1.04077282E-01
  Orbital          1   2   4   7   3   5   8   9
  Spin coupling    2   2   2   2   1  -1   1  -1

 Printout of coefficients in interval  5.0000E-02 to  1.0000E-01
 ===============================================================

  Coefficient of CSF no.        38 is     -0.06415073   -6.41507327E-02
  Orbital          1   3   4   5   7   9
  Spin coupling    2   2   2   2   2   2

  Coefficient of CSF no.        41 is     -0.05874633   -5.87463252E-02
  Orbital          1   2   4   6   7   9
  Spin coupling    2   2   2   2   2   2

  Coefficient of CSF no.        52 is     -0.07451841   -7.45184149E-02
  Orbital          1   2   4   5   8   9
  Spin coupling    2   2   2   2   2   2

  Coefficient of CSF no.       305 is      0.07926971    7.92697061E-02
  Orbital          1   4   5   7   2   6   8   9
  Spin coupling    2   2   2   2   1  -1   1  -1

  Coefficient of CSF no.       449 is      0.08946922    8.94692231E-02
  Orbital          1   2   4   9   5   6   7   8
  Spin coupling    2   2   2   2   1  -1   1  -1

  Coefficient of CSF no.       461 is     -0.08202454   -8.20245416E-02
  Orbital          1   4   5   9   2   3   7   8
  Spin coupling    2   2   2   2   1  -1   1  -1

  Coefficient of CSF no.       490 is      0.06806501    6.80650085E-02
  Orbital          1   4   7   9   2   3   5   6
  Spin coupling    2   2   2   2   1   1  -1  -1

  Coefficient of CSF no.       491 is      0.05057672    5.05767205E-02
  Orbital          1   4   7   9   2   3   5   6
  Spin coupling    2   2   2   2   1  -1   1  -1

 Norm of printed CI vector ..      0.96777792

 Magnitude of CI coefficients
 ============================
 ( Ranges are relative to norm of vector :  1.00E+00 )

  10- 1 to 10- 0         3    0.92645117E+00      0.9264511738
  10- 2 to 10- 1        59    0.69595213E-01      0.9960463865
  10- 3 to 10- 2       251    0.38842396E-02      0.9999306261
  10- 4 to 10- 3       276    0.69148810E-04      0.9999997749
  10- 5 to 10- 4        65    0.22462688E-06      0.9999999995
  10- 6 to 10- 5        10    0.45174891E-09      1.0000000000
  10- 7 to 10- 6         2    0.57501443E-12      1.0000000000
  Number of coefficients less than 10^-11 times norm is            0



 >>>> Total CPU  time used in SIRIUS :      2.10 seconds
 >>>> Total wall time used in SIRIUS :      2.12 seconds

 
     Date and time (Linux)  : Sun Sep  8 20:50:36 2013
     Host name              : lpqlx131.ups-tlse.fr                    


                     .---------------------------------------.
                     | End of Wave Function Section (SIRIUS) |
                     `---------------------------------------'


     Order of analytical energy-derivatives available:   2
     This will be the default.


        *****************************************************************
        ******** Output from **START input processing for ABACUS ********
        *****************************************************************



 The following molecular properties will be calculated in this run:
 ------------------------------------------------------------------

 Default print level:        0

      The molecular gradient
      The molecular Hessian
      Vibrational analysis
      Dipole moment gradient
      Natural orbital connection is used
      for perturbation dependent basis sets.

 Center of mass dipole origin  :    0.842300    0.000000    0.000000

 Center of mass gauge origin   :    0.842300    0.000000    0.000000


                 .------------------------------------------------.
                 | Starting in Static Property Section (ABACUS) - |
                 `------------------------------------------------'


 
     Date and time (Linux)  : Sun Sep  8 20:50:36 2013
     Host name              : lpqlx131.ups-tlse.fr                    


   ***************************************************************************
   ************************ FINAL RESULTS from ABACUS ************************
   ***************************************************************************


 
     Date and time (Linux)  : Sun Sep  8 20:50:49 2013
     Host name              : lpqlx131.ups-tlse.fr                    


                             Molecular geometry (au)
                             -----------------------

 OS         0.0000000000            0.0000000000            0.0000000000
 OP  _1     1.2634502500            2.0449019100            0.0000000000
 OP  _2     1.2634502500           -2.0449019100            0.0000000000





                        Molecular wave function and energy
                        ----------------------------------

     Spin multiplicity  1     State number       1     Total charge       0

     Total energy       -224.5185239102 au (Hartrees)
                         -6109.45981637 eV
                           -589473.2936 kJ/mol


                             Relativistic corrections
                             ------------------------

     Darwin correction:                          0.5989066083 au
     Mass-velocity correction:                  -0.7546129600 au

     Total relativistic correction:             -0.1557063517 au (0.0694%)
     Non-relativistic + relativistic energy:  -224.6742302619 au




                             Molecular gradient (au)
                             -----------------------

                         OS   x     0.0099122360
                         OP   x    -0.0099122360
                         OP   y    -0.0189631896



 OS         0.0099122360            0.0000000000            0.0000000000
 OP  _1    -0.0049561180           -0.0094815948            0.0000000000
 OP  _2    -0.0049561180            0.0094815948            0.0000000000





                              Molecular Hessian (au)
                              ----------------------


           Symmetry 1

           OS   x      OP   x      OP   y

 OS   x    0.429620
 OP   x   -0.429620    0.429620
 OP   y   -0.251421    0.251421    0.924056


           Symmetry 2

           OS   y      OP   x      OP   y

 OS   y    0.430329
 OP   x   -0.270728    0.157997
 OP   y   -0.430329    0.270728    0.430329


           Symmetry 3

           OS   z      OP   z

 OS   z   -0.007845
 OP   z    0.007845   -0.007845


           Symmetry 4

           OP   z

 OP   z   -0.009273




            OS     x    OS     y    OS     z    OP  _1 x    OP  _1 y    OP  _1 z

 OS     x    0.429620
 OS     y    0.000000    0.430329
 OS     z    0.000000    0.000000   -0.007845

 OP  _1 x   -0.214810   -0.135364    0.000000    0.146904
 OP  _1 y   -0.125710   -0.215165    0.000000    0.130537    0.338596
 OP  _1 z    0.000000    0.000000    0.003923    0.000000    0.000000   -0.004280

 OP  _2 x   -0.214810    0.135364    0.000000    0.067906   -0.004827    0.000000
 OP  _2 y    0.125710   -0.215165    0.000000    0.004827   -0.123432    0.000000
 OP  _2 z    0.000000    0.000000    0.003923    0.000000    0.000000    0.000357


            OP  _2 x    OP  _2 y    OP  _2 z

 OP  _2 x    0.146904
 OP  _2 y   -0.130537    0.338596
 OP  _2 z    0.000000    0.000000   -0.004280





                                  Dipole moment
                                  -------------

                 au               Debye          C m (/(10**-30)
              0.216598           0.550537           1.836393


                             Dipole moment components
                             ------------------------

                 au               Debye          C m (/(10**-30)

      x     -0.21659781        -0.55053669        -1.83639274


   Units:   1 a.u. =   2.54175 Debye 
            1 a.u. =   8.47835 (10**-30) C m (SI)




                           Dipole moment gradient (au)
                           ---------------------------


    Symmetry 1
                       Ex

        OS   x     0.04703463
        OP   x    -0.04703463
        OP   y     0.41645958

    Symmetry 2
                       Ey

        OS   y     1.00086393
        OP   x    -0.51246662
        OP   y    -1.00086393

    Symmetry 3
                       Ez

        OS   z     0.17143359
        OP   z    -0.17143359



                       Ex             Ey             Ez

      OS     x     0.04703463     0.00000000     0.00000000
      OS     y     0.00000000     1.00086393     0.00000000
      OS     z     0.00000000     0.00000000     0.17143359

      OP  _1 x    -0.02351731    -0.25623331     0.00000000
      OP  _1 y     0.20822979    -0.50043196     0.00000000
      OP  _1 z     0.00000000     0.00000000    -0.08571680

      OP  _2 x    -0.02351731     0.25623331     0.00000000
      OP  _2 y    -0.20822979    -0.50043196     0.00000000
      OP  _2 z     0.00000000     0.00000000    -0.08571680



                            +-------------------------+
                            ! APT Population Analysis !
                            +-------------------------+


      [ Reference : J. Cioslowski, J.Am.Chem.Soc. 111 (1989) 8333 ]

                            OS        0.406444
                            OP  _1   -0.203222
                            OP  _2   -0.203222



   Interatomic separations (in Angstrom):
   --------------------------------------

            OS          OP  _1      OP  _2
            ------      ------      ------
 OS    :    0.000000
 OP  _1:    1.272001    0.000000
 OP  _2:    1.272001    2.164231    0.000000


  Max    interatomic separation is    2.1642 Angstrom (    4.0898 Bohr)
  between atoms    3 and    2, "OP  _2" and "OP  _1".

  Min YX interatomic separation is    1.2720 Angstrom (    2.4037 Bohr)


  Bond distances (Angstrom):
  --------------------------

                  atom 1     atom 2       distance
                  ------     ------       --------
  bond distance:  OP  _1     OS           1.272001
  bond distance:  OP  _2     OS           1.272001


  Bond angles (degrees):
  ----------------------

                  atom 1     atom 2     atom 3         angle
                  ------     ------     ------         -----
  bond angle:     OP  _1     OS         OP  _2       116.580




   ****************************************************************************
   *************** ABACUS - ROTATIONAL AND VIBRATIONAL ANALYSIS ***************
   ****************************************************************************


 Norm of (unprojected) molecular gradient (au) :     0.01808812

 WARNING: Vibrational analysis performed at a non-equilibrium geometry,
 better results may be obtained using .INTERN
 (this will correct Hessian for rotation coordinates).



 Conversion factors used:

    Hartree to (cm)-1      : 219474.62934
    a.m.u.  to a.u.        :   1822.88848
    Bohr    to Angstrom    :  0.529177211
    a.u.    to A**4amu-1   :   142.943572
    a.u.    to km (mol)-1  :      974.864


 Vibrational analysis for parent molecule only.
  Norm of projected gradient     0.018088


                         Isotopic Molecule No. 1
                         ======================= 


                                 Isotopic Masses
                                 ---------------

                           OS         15.994915
                           OP  _1     15.994915
                           OP  _2     15.994915

                       Total mass:    47.984745 amu
                       Natural abundance:  99.282 %

 Center-of-mass coordinates (a.u.):    0.842300    0.000000    0.000000


 Principal moments of inertia (u*A**2) and principal axes
 --------------------------------------------------------

   IA       4.766606          0.000000    1.000000    0.000000
   IB      37.459257          1.000000    0.000000    0.000000
   IC      42.225863          0.000000    0.000000    1.000000


 Rotational constants
 --------------------

 The molecule is planar.

               A                   B                   C

         106024.9222          13491.4317          11968.4708 MHz
            3.536611            0.450026            0.399225 cm-1



  Vibrational Frequencies and IR Intensities
  ------------------------------------------



  mode   irrep        frequency             IR intensity
  ============================================================
                 cm-1       hartrees     km/mol   (D/A)**2/amu
  ------------------------------------------------------------

   1      A1     1141.91    0.005203      0.808   0.0191
   3      A1      723.86    0.003298      4.679   0.1107

   2      B1     1098.13    0.005003     99.280   2.3495






  Normal Coordinates (bohrs*amu**(1/2)):
  --------------------------------------


                1  1142     2  1098     3   724 
  ----------------------------------------------

    OS     x    0.169974    0.000000   -0.113087
    OS     y   -0.000000    0.192289    0.000000
    OS     z    0.000000    0.000000    0.000000

    OP  _1 x   -0.084987   -0.059403    0.056544
    OP  _1 y   -0.097936   -0.096144   -0.147202
    OP  _1 z    0.000000    0.000000    0.000000

    OP  _2 x   -0.084987    0.059403    0.056544
    OP  _2 y    0.097936   -0.096144    0.147202
    OP  _2 z    0.000000    0.000000    0.000000




  Dipole Gradient in Normal Coordinate Basis (D/(A*amu**(1/2)))
  -------------------------------------------------------------


  mode           dMA/dQi        dMB/dQi        dMC/dQi
  ----------------------------------------------------
   1           -0.138306      -0.000000       0.000000
   2           -0.000000       1.532819       0.000000
   3           -0.332776       0.000000       0.000000



                              Total Molecular Energy
                              ----------------------

             electronic     vibrational           total    energy 

            -224.518524        0.006752     -224.511772    Hartrees
           -49276119.82         1481.95    -49274637.86    cm-1
             -589473.29           17.73      -589455.57    kJ/mol
             -140887.50            4.24      -140883.26    kcal/mol


                          Molecular Partition Functions
                          -----------------------------

 Qtran is evaluated per mol at 1 atm. pressure.
 Qrot does not include symmetry numbers.
 Qvib does not include zero point energies
 (i.e., energy scale has vibrational ground state as zero).


 Temp.(K)  Translational     Rotational    Vibrational      Total

    50.00     1.5047D+05         457.27         1.0000   6.880444D+07
   100.00     8.5117D+05        1290.89         1.0000   1.098805D+09
   200.00     4.8150D+06        3647.70         1.0062   1.767159D+10
   273.15     1.0496D+07        5820.55         1.0283   6.281808D+10
   298.15     1.3065D+07        6637.26         1.0407   9.024840D+10
   300.00     1.3268D+07        6699.11         1.0418   9.260056D+10
   400.00     2.7238D+07       10312.31         1.1195   3.144576D+11
   500.00     4.7582D+07       14410.51         1.2393   8.497356D+11
   600.00     7.5058D+07       18941.90         1.3984   1.988155D+12
   700.00     1.1035D+08       23868.43         1.5953   4.201869D+12
   800.00     1.5408D+08       29160.63         1.8297   8.220909D+12
   900.00     2.0684D+08       34794.78         2.1019   1.512708D+13
  1000.00     2.6916D+08       40751.27         2.4131   2.646836D+13
  1500.00     7.4173D+08       74860.09         4.6090   2.559204D+14
  2000.00     1.5226D+09      115250.97         8.0518   1.412971D+15


                                +------------------+
                                ! Polarizabilities !
                                +------------------+


 Vibrational polarizabilities calculated acc. to Rinaldi et al.,
 Chem.Phys.Lett. 128 (1986) 177-181.


                        Vibrational Polarizabilities (au)
                        ---------------------------------

                         Ex          Ey          Ez

            Ex       0.258873   -0.000000    0.000000
            Ey      -0.000000    2.231609    0.000000
            Ez       0.000000    0.000000    0.000000



                   Vibrational Polarizabilities (angstroms**3)
                   -------------------------------------------

                         Ex          Ey          Ez

            Ex       0.038361   -0.000000    0.000000
            Ey      -0.000000    0.330690    0.000000
            Ez       0.000000    0.000000    0.000000



                   Vibrational Polarizabilities (angstroms**3)
                   -------------------------------------------

               (Along principal axes of moments of inertia)

                         EA          EB          EC

            EA       0.330690   -0.000000    0.000000
            EB      -0.000000    0.038361    0.000000
            EC       0.000000    0.000000    0.000000



 Vibrational mean polarization :    0.3107 cm**3 mol**-1


 CPU time statistics for ABACUS
 ------------------------------

 TWOTEX     00:00:03      26 %
 RHSIDE     00:00:02      14 %
 RESPON     00:00:07      59 %

 TOTAL      00:00:12     100 %


 >>>> Total CPU  time used in ABACUS:  12.45 seconds
 >>>> Total wall time used in ABACUS:  12.59 seconds


                   .-------------------------------------------.
                   | End of Static Property Section (ABACUS) - |
                   `-------------------------------------------'


 Predicted energy change       -0.000225845053776


  Step in diagonal representation
  -------------------------------


               Column   1     Column   2
       1       0.01399686    -0.02221593
    ==== End of matrix output ====


           :::::::::::::::::::::::::::::::::::::::::::::::::::::::::::
           ::::::::::::::: Optimization Control Center :::::::::::::::
           :::::::::::::::::::::::::::::::::::::::::::::::::::::::::::



                                Next geometry (au)
                                ------------------

 OS        -0.0087716825            0.0000000000            0.0000000000
 OP  _1     1.2678360913            2.0618436605            0.0000000000
 OP  _2     1.2678360913           -2.0618436605            0.0000000000





                             Optimization information
                             ------------------------

 Iteration number               :       0
 End of optimization            :       F 
 Energy at this geometry is     :    -224.518524
 Norm of gradient               :       0.018088
 Norm of step                   :       0.026258
 Updated trust radius           :       0.500000
 Total Hessian index            :       0




 **************************************************************************************
 ****************** Output of molecule and basis set info suppressed ******************
 **************************************************************************************



                     .---------------------------------------.
                     | Starting in Integral Section (HERMIT) |
                     `---------------------------------------'



    *************************************************************************
    ****************** Output from HERMIT input processing ******************
    *************************************************************************


 Threshold for neglecting two-electron integrals:  1.00D-12
 Number of two-electron integrals written:      672537 ( 23.1% )
 Megabytes written:                              7.702

 >>>  Time used in TWOINT     is   0.29 seconds
 >>>> Total CPU  time used in HERMIT:   0.32 seconds
 >>>> Total wall time used in HERMIT:   0.32 seconds


                        .----------------------------------.
                        | End of Integral Section (HERMIT) |
                        `----------------------------------'



                   .--------------------------------------------.
                   | Starting in Wave Function Section (SIRIUS) |
                   `--------------------------------------------'


 **********************************************************************
 *SIRIUS* a direct, restricted step, second order MCSCF program       *
 **********************************************************************

 (Wave function specification suppressed here, see output above for initial geometry.)


        SIRIUS MCSCF optimization (SIROPT)
 ================================================


   <<< OUTPUT FROM SIRCNO >>>    Keyword = FD+NO 

     (Precalculated two-electron integrals are transformed to P-supermatrix elements.
      Threshold for discarding integrals :  1.00D-12 )

 Occupations of CAS natural orbitals:

 Symmetry  1

   1.990181883   1.957235921   0.060261095

 Symmetry  2

   1.991987638   1.948783854   0.050660280

 Symmetry  3

   1.963641733   0.248492933

 Symmetry  4

   1.788754662


 <<< MACRO ITERATION  1 >>>
 --------------------------

 Integral transformation: Total CPU and WALL times (sec)       0.184       0.186

 Total MCSCF energy       :          -224.518490450059318  (MACRO    1)

 - Nuclear repulsion      :            68.302241654083829
 - Inactive energy        :          -253.127625250787332
 - Active energy          :           -39.693106853355829

 Norm of total gradient   :             0.058696036919
 -    of CI gradient      :             0.022581977598
 -    of orbital gradient :             0.054178215527
      Virial theorem: -V/T =      1.988113
@      MULPOP OS     -0.63; OP  _1  0.31; OP  _2  0.31; 

 Residual norm when dim(red L) =   6
 NEO root     CSF        orbital          total
    1     0.00672147     0.00140701     0.00686716 converged

 (NEONEX) NEO vector is converged.

   <<< OUTPUT FROM SIRCNO >>>    Keyword = FD+NO 


 Occupations of CAS natural orbitals:

 Symmetry  1

   1.989902547   1.955298559   0.062990774

 Symmetry  2

   1.991692054   1.946460992   0.052802747

 Symmetry  3

   1.962206355   0.256190361

 Symmetry  4

   1.782455611


 <<< MACRO ITERATION  2 >>>
 --------------------------

 Integral transformation: Total CPU and WALL times (sec)       0.159       0.160

 Total MCSCF energy       :          -224.518747267322567  (MACRO    2)

 - Nuclear repulsion      :            68.302241654083829
 - Inactive energy        :          -253.171587983461166
 - Active energy          :           -39.649400937945259

 Norm of total gradient   :             0.006848166269
 -    of CI gradient      :             0.006696083528
 -    of orbital gradient :             0.001435216579
      Virial theorem: -V/T =      1.988475
@      MULPOP OS     -0.62; OP  _1  0.31; OP  _2  0.31; 

 Residual norm when dim(red L) =  26
 NEO root     CSF        orbital          total
    1     0.00000443     0.00000171     0.00000475 converged

 (NEONEX) NEO vector is converged.

   <<< OUTPUT FROM SIRCNO >>>    Keyword = FD+NO 


 Occupations of CAS natural orbitals:

 Symmetry  1

   1.989916480   1.955234587   0.062940761

 Symmetry  2

   1.991662559   1.946613243   0.052805795

 Symmetry  3

   1.962569555   0.258433722

 Symmetry  4

   1.779823297


 <<< MACRO ITERATION  3 >>>
 --------------------------

 Integral transformation: Total CPU and WALL times (sec)       0.155       0.246

 Total MCSCF energy       :          -224.518756471371944  (MACRO    3)

 - Nuclear repulsion      :            68.302241654083829
 - Inactive energy        :          -253.174967816363903
 - Active energy          :           -39.646030309091870

 Norm of total gradient   :             0.000017442469
 -    of CI gradient      :             0.000009923367
 -    of orbital gradient :             0.000014344565
      Virial theorem: -V/T =      1.988461
@      MULPOP OS     -0.63; OP  _1  0.31; OP  _2  0.31; 

 Residual norm when dim(red L) =   4
 NEO root     CSF        orbital          total
    1     0.00000387     0.00000440     0.00000585 converged

 (NEONEX) NEO vector is converged.

   <<< OUTPUT FROM SIRCNO >>>    Keyword = FD+NO 


 Occupations of CAS natural orbitals:

 Symmetry  1

   1.989916630   1.955234565   0.062940729

 Symmetry  2

   1.991662550   1.946613413   0.052805597

 Symmetry  3

   1.962569870   0.258433568

 Symmetry  4

   1.779823077


 <<< MACRO ITERATION  4 >>>
 --------------------------

 Integral transformation: Total CPU and WALL times (sec)       0.159       0.160

 Total MCSCF energy       :          -224.518756471423700  (MACRO    4)

 - Nuclear repulsion      :            68.302241654083829
 - Inactive energy        :          -253.174989037407130
 - Active energy          :           -39.646009088100385

 Norm of total gradient   :             0.000005854181
 -    of CI gradient      :             0.000003866558
 -    of orbital gradient :             0.000004395585
      Virial theorem: -V/T =      1.988461
@      MULPOP OS     -0.63; OP  _1  0.31; OP  _2  0.31; 

 (SIRSTP) Close to convergence, ratio set to one.
 Energy difference; actual and predicted:   -5.17559D-11   -4.97894D-11

 (SIRSTP) Close to convergence, ratio set to one.
 Energy difference; actual and predicted:    1.03950D+00
 Close to convergence, ratio set to one.

 *** Optimization control: MCSCF converged ***
     Number of macro iterations used            4
     Number of micro iterations used           30
     Total number of CPU seconds used         1.23

 Integral transformation: Total CPU and WALL times (sec)       0.187       0.190

 >>>> CPU and wall time for MCSCF :       1.422       1.776


                     .----------------------------------------.
                     | >>> SIRIUS OPTIMIZATION STATISTICS <<< |
                     `----------------------------------------'


 
     Date and time (Linux)  : Sun Sep  8 20:50:51 2013
     Host name              : lpqlx131.ups-tlse.fr                    


  ITER ITMIC     EMCSCF           GRDNRM        RATIO      STPLNG
 ---------------------------------------------------------------------
    1    4   -224.518490450059   0.0586960369  0.000000   0.0151583273
    2   24   -224.518747267323   0.0068481663  1.001724   0.0051736899
    3    2   -224.518756471372   0.0000174425  1.000299   0.0000169958
    4    0   -224.518756471424   0.0000058542  1.000000   0.0000000000


  ITER  INDGCM  GCIMAX      GCINRM     INDGOM  GOBMAX      GOBNRM      GRDNRM
 ------------------------------------------------------------------------------
    1     37    0.007275    0.022582    126    0.017742    0.054178    0.058696
    2    131   -0.001710    0.006696     90    0.000399    0.001435    0.006848
    3    449    0.000003    0.000010    243   -0.000005    0.000014    0.000017
    4     73   -0.000001    0.000004    158    0.000001    0.000004    0.000006


  ITER ITMIC NCLIN NOLIN   TIMMAC    TIMITR    TIMMIC    TIMLIN    TIMMIC/ITMIC
 ------------------------------------------------------------------------------

    1     4     2     3      0.29      0.18      0.09      0.09      0.02
    2    24    16     9      0.54      0.16      0.36      0.35      0.02
    3     2     2     1      0.21      0.15      0.04      0.04      0.02
    4     0     0     0      0.17      0.16      0.00      0.00


 ITER         EMY                 EACTIV              EMCSCF

    1   -253.127625250787    -39.693106853356   -224.518490450059
    2   -253.171587983461    -39.649400937945   -224.518747267323
    3   -253.174967816364    -39.646030309092   -224.518756471372
    4   -253.174989037407    -39.646009088100   -224.518756471424


 ITER         DEPRED              DEACT               RATIO

    1      0.000000000000      0.000000000000      0.000000000000
[...]
 ------------------------------------------------------

   IA   17.394739          0.000000    1.000000    0.000000
   IB  136.105896          1.000000    0.000000    0.000000
   IC  153.500635          0.000000    0.000000    1.000000


  Molecular rotational g-tensor
  -----------------------------

  Isotropic g-tensor       :      -1.01340688
  Nuclear contribution     :       0.50379835
  Diamagnetic contribution :      -0.12123191
  Electronic contribution  :      -1.39597332
  1st anisotropy:                 -2.60684645
  2nd anisotropy:                  1.19401477



  Molecular rotational g-tensor in principal axis system (a.u.):
  --------------------------------------------------------------

   A           -2.75130452      0.00000000      0.00000000
   B            0.00000000     -0.21739704      0.00000000
   C            0.00000000      0.00000000     -0.07151909


  Nuclear contribution in principal axis system (a.u.):
  -----------------------------------------------------

   A            0.50379835      0.00000000      0.00000000
   B            0.00000000      0.50379835      0.00000000
   C            0.00000000      0.00000000      0.50379835


  Electronic contribution in principal axis system (a.u.):
  --------------------------------------------------------

   A           -3.13457091      0.00000000      0.00000000
   B            0.00000000     -0.59787524      0.00000000
   C            0.00000000      0.00000000     -0.45547381


  Diamagnetic contribution in principal axis system (a.u.):
  ---------------------------------------------------------

   A           -0.12053195      0.00000000      0.00000000
   B            0.00000000     -0.12332015      0.00000000
   C            0.00000000      0.00000000     -0.11984363


  ******************************************************************************
  ************************ ABACUS - CHEMICAL SHIELDINGS ************************
  ******************************************************************************



                 Shielding tensors in symmetry coordinates (ppm)
                 -----------------------------------------------


    Symmetry 2
                       Bz

        OS   z    25.63364291
        OP   z  -145.06752129

    Symmetry 3
                       By

        OS   y -1378.53803879
        OP   x  -315.59789846
        OP   y -4427.06040954

    Symmetry 4
                       Bx

        OS   x  -508.82132434
        OP   x -2467.15546194
        OP   y -1301.96514284




  Chemical shielding for OS    :
  ==============================


  Shielding constant:   -620.5752 ppm
  Anisotropy:          -1136.9442 ppm
  Asymmetry:               0.7051    

  S parameter:          1227.5478 ppm
  A parameter:             0.0000 ppm


  Total shielding tensor (ppm):
  -----------------------------

 String on input: "OS      "
 String on input: "OS      "
                    Bx             By             Bz

  OS     x  -508.82132434     0.00000000     0.00000000
  OS     y     0.00000000 -1378.53803879     0.00000000
  OS     z     0.00000000     0.00000000    25.63364291


  Diamagnetic and paramagnetic contributions (ppm):
  -------------------------------------------------

                 Bx         By         Bz            Bx         By         Bz

  OS     x   485.9769     0.0000     0.0000     -994.7982     0.0000     0.0000
  OS     y     0.0000   443.6854     0.0000        0.0000 -1822.2234     0.0000
  OS     z     0.0000     0.0000   498.8390        0.0000     0.0000  -473.2053

  Diamagnetic contribution:    476.167060         Paramagnetic:   -1096.742300


  Antisymmetric and traceless symmetric parts (ppm):
  --------------------------------------------------

                 Bx         By         Bz            Bx         By         Bz

  OS     x     0.0000     0.0000     0.0000      111.7539     0.0000     0.0000
  OS     y     0.0000     0.0000     0.0000        0.0000  -757.9628     0.0000
  OS     z     0.0000     0.0000     0.0000        0.0000     0.0000   646.2089


  Principal values and axes:
  --------------------------

  OS         25.633643  = -620.58  + 646.21:     0.000000  0.000000  1.000000
  OS       -508.821324  = -620.58  + 111.75:     1.000000  0.000000  0.000000
  OS      -1378.538039  = -620.58  - 757.96:     0.000000  1.000000  0.000000


  Chemical shielding for OP  _1:
  ==============================


  Shielding constant:  -1173.2139 ppm
  Anisotropy:          -1778.4631 ppm
  Asymmetry:               0.8567    

  S parameter:          1984.1103 ppm
  A parameter:           246.5918 ppm


  Total shielding tensor (ppm):
  -----------------------------

 String on input: "OP  _1  "
 String on input: "OP__1   "
                    Bx             By             Bz

  OP  _1 x -1233.57773097  -157.79894923     0.00000000
  OP  _1 y  -650.98257142 -2213.53020477     0.00000000
  OP  _1 z     0.00000000     0.00000000   -72.53376065


  Diamagnetic and paramagnetic contributions (ppm):
  -------------------------------------------------

                 Bx         By         Bz            Bx         By         Bz

  OP  _1 x   448.6178   -11.2875     0.0000    -1682.1955  -146.5115     0.0000
  OP  _1 y    -7.3008   424.9965     0.0000     -643.6818 -2638.5267     0.0000
  OP  _1 z     0.0000     0.0000   464.6422        0.0000     0.0000  -537.1760

  Diamagnetic contribution:    446.085494         Paramagnetic:   -1619.299393


  Antisymmetric and traceless symmetric parts (ppm):
  --------------------------------------------------

                 Bx         By         Bz            Bx         By         Bz

  OP  _1 x     0.0000   246.5918     0.0000      -60.3638  -404.3908     0.0000
  OP  _1 y  -246.5918     0.0000     0.0000     -404.3908 -1040.3163     0.0000
  OP  _1 z     0.0000     0.0000     0.0000        0.0000     0.0000  1100.6801


  Principal values and axes:
  --------------------------

  OP  _1    -72.533761  =-1173.21  +1100.68:     0.000000  0.000000  1.000000
  OP  _1  -1088.251993  =-1173.21  +  84.96:     0.941076 -0.338194  0.000000
  OP  _1  -2358.855943  =-1173.21  -1185.64:     0.338194  0.941076  0.000000


  Chemical shielding for OP  _2:
  ==============================


  Shielding constant:  -1173.2139 ppm
  Anisotropy:          -1778.4631 ppm
  Asymmetry:               0.8567    

  S parameter:          1984.1103 ppm
  A parameter:           246.5918 ppm


  Total shielding tensor (ppm):
  -----------------------------

 String on input: "OP  _2  "
 String on input: "OP__2   "
                    Bx             By             Bz

  OP  _2 x -1233.57773097   157.79894923     0.00000000
  OP  _2 y   650.98257142 -2213.53020477     0.00000000
  OP  _2 z     0.00000000     0.00000000   -72.53376065


  Diamagnetic and paramagnetic contributions (ppm):
  -------------------------------------------------

                 Bx         By         Bz            Bx         By         Bz

  OP  _2 x   448.6178    11.2875     0.0000    -1682.1955   146.5115     0.0000
  OP  _2 y     7.3008   424.9965     0.0000      643.6818 -2638.5267     0.0000
  OP  _2 z     0.0000     0.0000   464.6422        0.0000     0.0000  -537.1760

  Diamagnetic contribution:    446.085494         Paramagnetic:   -1619.299393


  Antisymmetric and traceless symmetric parts (ppm):
  --------------------------------------------------

                 Bx         By         Bz            Bx         By         Bz

  OP  _2 x     0.0000  -246.5918     0.0000      -60.3638   404.3908     0.0000
  OP  _2 y   246.5918     0.0000     0.0000      404.3908 -1040.3163     0.0000
  OP  _2 z     0.0000     0.0000     0.0000        0.0000     0.0000  1100.6801


  Principal values and axes:
  --------------------------

  OP  _2    -72.533761  =-1173.21  +1100.68:     0.000000  0.000000  1.000000
  OP  _2  -1088.251993  =-1173.21  +  84.96:     0.941076  0.338194  0.000000
  OP  _2  -2358.855943  =-1173.21  -1185.64:    -0.338194  0.941076  0.000000


                         +--------------------------------+
                         ! Summary of chemical shieldings !
                         +--------------------------------+

@1  Definitions from J. Mason, Solid state Nuc. Magn. Res. 2 (1993), 285

@1 London orbitals (GIAOs) has been used.

@1 atom   shielding       dia      para     skew      span     (aniso     asym)
@1 ----------------------------------------------------------------------------
@1 OS     -620.5752  476.1671-1096.7423   -0.2388 1404.1717  969.3133    1.3459
@1 OP  _1-1173.2139  446.0855-1619.2994   -0.1115 2286.3222 1651.0202    1.1544
@1 OP  _2-1173.2139  446.0855-1619.2994   -0.1115 2286.3222 1651.0202    1.1544



                         +--------------------------------+
                         ! Summary of chemical shieldings !
                         +--------------------------------+

@2  Definitions from Smith, Palke, and Grieg, Concepts in Mag. Res. 4 (1992), 107

@2 London orbitals (GIAOs) has been used.

@2 atom   shielding       dia      para     aniso      asym        S        A
@2 ----------------------------------------------------------------------------
@2 OS     -620.5752  476.1671-1096.7423-1136.9442    0.7051 1227.5478    0.0000
@2 OP  _1-1173.2139  446.0855-1619.2994-1778.4631    0.8567 1984.1103  246.5918
@2 OP  _2-1173.2139  446.0855-1619.2994-1778.4631    0.8567 1984.1103  246.5918



   Interatomic separations (in Angstrom):
   --------------------------------------

            OS          OP  _1      OP  _2
            ------      ------      ------
 OS    :    0.000000
 OP  _1:    1.283834    0.000000
 OP  _2:    1.283834    2.183050    0.000000


  Max    interatomic separation is    2.1830 Angstrom (    4.1254 Bohr)
  between atoms    3 and    2, "OP  _2" and "OP  _1".

  Min YX interatomic separation is    1.2838 Angstrom (    2.4261 Bohr)


  Bond distances (Angstrom):
  --------------------------

                  atom 1     atom 2       distance
                  ------     ------       --------
  bond distance:  OP  _1     OS           1.283834
  bond distance:  OP  _2     OS           1.283834


  Bond angles (degrees):
  ----------------------

                  atom 1     atom 2     atom 3         angle
                  ------     ------     ------         -----
  bond angle:     OP  _1     OS         OP  _2       116.468




   ****************************************************************************
   *************** ABACUS - ROTATIONAL AND VIBRATIONAL ANALYSIS ***************
   ****************************************************************************


 Norm of (unprojected) molecular gradient (au) :     0.00000717


 Conversion factors used:

    Hartree to (cm)-1      : 219474.62934
    a.m.u.  to a.u.        :   1822.88848
    Bohr    to Angstrom    :  0.529177211
    a.u.    to A**4amu-1   :   142.943572
    a.u.    to km (mol)-1  :      974.864


 Vibrational analysis for parent molecule only.
  Norm of projected gradient     0.000007


                         Isotopic Molecule No. 1
                         ======================= 


                                 Isotopic Masses
                                 ---------------

                           OS         15.994915
                           OP  _1     15.994915
                           OP  _2     15.994915

                       Total mass:    47.984745 amu
                       Natural abundance:  99.282 %

 Center-of-mass coordinates (a.u.):    0.842300    0.000000    0.000000


 Principal moments of inertia (u*A**2) and principal axes
 --------------------------------------------------------

   IA       4.871023          0.000000    1.000000    0.000000
   IB      38.113533          1.000000    0.000000    0.000000
   IC      42.984556          0.000000    0.000000    1.000000


 Rotational constants
 --------------------

 The molecule is planar.

               A                   B                   C

         103752.1306          13259.8311          11757.2230 MHz
            3.460799            0.442300            0.392179 cm-1



  Vibrational Frequencies and IR Intensities
  ------------------------------------------



  mode   irrep        frequency             IR intensity
  ============================================================
                 cm-1       hartrees     km/mol   (D/A)**2/amu
  ------------------------------------------------------------

   1      A1     1093.94    0.004984      0.795   0.0188
   3      A1      708.44    0.003228      4.496   0.1064

   2      B1     1021.93    0.004656     89.008   2.1064






  Normal Coordinates (bohrs*amu**(1/2)):
  --------------------------------------


                1  1094     2  1022     3   708 
  ----------------------------------------------

    OS     x    0.172916   -0.000000    0.108535
    OS     y   -0.000000    0.192241   -0.000000
    OS     z    0.000000    0.000000    0.000000

    OP  _1 x   -0.086458   -0.059518   -0.054268
    OP  _1 y   -0.093994   -0.096121    0.149750
    OP  _1 z    0.000000    0.000000    0.000000

    OP  _2 x   -0.086458    0.059518   -0.054268
    OP  _2 y    0.093994   -0.096121   -0.149750
    OP  _2 z    0.000000    0.000000    0.000000




  Dipole Gradient in Normal Coordinate Basis (D/(A*amu**(1/2)))
  -------------------------------------------------------------


  mode           dMA/dQi        dMB/dQi        dMC/dQi
  ----------------------------------------------------
   1           -0.137142      -0.000000       0.000000
   2           -0.000000       1.451353       0.000000
   3            0.326196      -0.000000       0.000000



                              Total Molecular Energy
                              ----------------------

             electronic     vibrational           total    energy 

            -224.518757        0.006434     -224.512323    Hartrees
           -49276170.96         1412.15    -49274758.81    cm-1
             -589473.91           16.89      -589457.01    kJ/mol
             -140887.64            4.04      -140883.61    kcal/mol


                          Molecular Partition Functions
                          -----------------------------

 Qtran is evaluated per mol at 1 atm. pressure.
 Qrot does not include symmetry numbers.
 Qvib does not include zero point energies
 (i.e., energy scale has vibrational ground state as zero).


 Temp.(K)  Translational     Rotational    Vibrational      Total

    50.00     1.5047D+05         470.41         1.0000   7.078149D+07
   100.00     8.5117D+05        1328.03         1.0000   1.130425D+09
   200.00     4.8150D+06        3752.70         1.0072   1.819900D+10
   273.15     1.0496D+07        5988.13         1.0325   6.489493D+10
   298.15     1.3065D+07        6828.36         1.0467   9.337929D+10
   300.00     1.3268D+07        6891.99         1.0479   9.582509D+10
   400.00     2.7238D+07       10609.25         1.1352   3.280522D+11
   500.00     4.7582D+07       14825.48         1.2683   8.946975D+11
   600.00     7.5058D+07       19487.38         1.4442   2.112350D+12
   700.00     1.1035D+08       24555.81         1.6613   4.501466D+12
   800.00     1.5408D+08       30000.43         1.9194   8.872342D+12
   900.00     2.0684D+08       35796.86         2.2194   1.643251D+13
  1000.00     2.6916D+08       41924.91         2.5626   2.891800D+13
  1500.00     7.4173D+08       77016.15         4.9948   2.853314D+14
  2000.00     1.5226D+09      118570.40         8.8311   1.594351D+15


                                +------------------+
                                ! Polarizabilities !
                                +------------------+


 Vibrational polarizabilities calculated acc. to Rinaldi et al.,
 Chem.Phys.Lett. 128 (1986) 177-181.


                        Vibrational Polarizabilities (au)
                        ---------------------------------

                         Ex          Ey          Ez

            Ex       0.260832   -0.000000    0.000000
            Ey      -0.000000    2.310194    0.000000
            Ez       0.000000    0.000000    0.000000



                   Vibrational Polarizabilities (angstroms**3)
                   -------------------------------------------

                         Ex          Ey          Ez

            Ex       0.038651   -0.000000    0.000000
            Ey      -0.000000    0.342335    0.000000
            Ez       0.000000    0.000000    0.000000



                   Vibrational Polarizabilities (angstroms**3)
                   -------------------------------------------

               (Along principal axes of moments of inertia)

                         EA          EB          EC

            EA       0.342335   -0.000000    0.000000
            EB      -0.000000    0.038651    0.000000
            EC       0.000000    0.000000    0.000000



 Vibrational mean polarization :    0.3207 cm**3 mol**-1


 CPU time statistics for ABACUS
 ------------------------------

 TWOTEX     00:00:03      17 %
 RHSIDE     00:00:08      40 %
 RESPON     00:00:07      38 %
 REST       00:00:01       7 %

 TOTAL      00:00:20     100 %


 >>>> Total CPU  time used in ABACUS:  19.58 seconds
 >>>> Total wall time used in ABACUS:  20.35 seconds


                   .-------------------------------------------.
                   | End of Static Property Section (ABACUS) - |
                   `-------------------------------------------'



          <<<<<<<<<<<<<<<<<<<<<<<<<<<<<<<<<<<<<<<<<<<<<<<<<<<<<<<<<<<<<<
          <<<<<<<<<<<<<<<<<<<<  End of Optimization <<<<<<<<<<<<<<<<<<<<
          <<<<<<<<<<<<<<<<<<<<<<<<<<<<<<<<<<<<<<<<<<<<<<<<<<<<<<<<<<<<<<



                                  Final geometry
                                  --------------

 OS        -0.0091757246            0.0000000000            0.0000000000
 OP  _1     1.2680381123            2.0626830706            0.0000000000
 OP  _2     1.2680381123           -2.0626830706            0.0000000000



@ Iter      Energy        Change       GradNorm  Index   StepLen    TrustRad #Rej
@ -------------------------------------------------------------------------------
@   0     -224.518524     0.000000     0.018088    0    0.026258*   0.500000   0 
@   1     -224.518756    -0.000233     0.000797    0    0.001286*   0.500000   0 
@   2     -224.518757    -0.000000     0.000007    0    0.000011*   0.500000   0 

@  *) Newton step taken.


   Interatomic separations (in Angstrom):
   --------------------------------------

            OS          OP  _1      OP  _2
            ------      ------      ------
 OS    :    0.000000
 OP  _1:    1.283834    0.000000
 OP  _2:    1.283834    2.183050    0.000000


  Max    interatomic separation is    2.1830 Angstrom (    4.1254 Bohr)
  between atoms    3 and    2, "OP  _2" and "OP  _1".

  Min YX interatomic separation is    1.2838 Angstrom (    2.4261 Bohr)


  Bond distances (Angstrom):
  --------------------------

                  atom 1     atom 2       distance
                  ------     ------       --------
  bond distance:  OP  _1     OS           1.283834
  bond distance:  OP  _2     OS           1.283834


  Bond angles (degrees):
  ----------------------

                  atom 1     atom 2     atom 3         angle
                  ------     ------     ------         -----
  bond angle:     OP  _1     OS         OP  _2       116.468



@ Geometry converged in  3 iterations!

@ Energy at final geometry is       :    -224.518757 a.u.
@ Energy change during optimization :      -0.000233 a.u.
@                                             -0.612 kJ/mol

 >>>> Total CPU  time used in DALTON:  1 minute   2 seconds
 >>>> Total wall time used in DALTON:  1 minute   5 seconds

 
     Date and time (Linux)  : Sun Sep  8 20:51:38 2013
     Host name              : lpqlx131.ups-tlse.fr                    
