

     ************************************************************************
     *************** Dalton - An Electronic Structure Program ***************
     ************************************************************************

    This is output from DALTON (Release Dalton2013 patch 0)
   ----------------------------------------------------------------------------
    NOTE:
     
    Dalton is an experimental code for the evaluation of molecular
    properties using (MC)SCF, DFT, CI, and CC wave functions.
    The authors accept no responsibility for the performance of
    the code or for the correctness of the results.
     
    The code (in whole or part) is provided under a licence and
    is not to be reproduced for further distribution without
    the written permission of the authors or their representatives.
     
    See the home page "http://daltonprogram.org" for further information.
     
    If results obtained with this code are published,
    the appropriate citations would be both of:
     
       K. Aidas, C. Angeli, K. L. Bak, V. Bakken, R. Bast,
       L. Boman, O. Christiansen, R. Cimiraglia, S. Coriani,
       P. Dahle, E. K. Dalskov, U. Ekstroem, T. Enevoldsen,
       J. J. Eriksen, P. Ettenhuber, B. Fernandez, L. Ferrighi,
       H. Fliegl, L. Frediani, K. Hald, A. Halkier, C. Haettig,
       H. Heiberg, T. Helgaker, A. C. Hennum, H. Hettema,
       E. Hjertenaes, S. Hoest, I.-M. Hoeyvik, M. F. Iozzi,
       B. Jansik, H. J. Aa. Jensen, D. Jonsson, P. Joergensen,
       J. Kauczor, S. Kirpekar, T. Kjaergaard, W. Klopper,
       S. Knecht, R. Kobayashi, H. Koch, J. Kongsted, A. Krapp,
       K. Kristensen, A. Ligabue, O. B. Lutnaes, J. I. Melo,
       K. V. Mikkelsen, R. H. Myhre, C. Neiss, C. B. Nielsen,
       P. Norman, J. Olsen, J. M. H. Olsen, A. Osted,
       M. J. Packer, F. Pawlowski, T. B. Pedersen, P. F. Provasi,
       S. Reine, Z. Rinkevicius, T. A. Ruden, K. Ruud, V. Rybkin,
       P. Salek, C. C. M. Samson, A. Sanchez de Meras, T. Saue,
       S. P. A. Sauer, B. Schimmelpfennig, K. Sneskov,
       A. H. Steindal, K. O. Sylvester-Hvid, P. R. Taylor,
       A. M. Teale, E. I. Tellgren, D. P. Tew, A. J. Thorvaldsen,
       L. Thoegersen, O. Vahtras, M. A. Watson, D. J. D. Wilson,
       M. Ziolkowski and H. Agren.
       The Dalton quantum chemistry program system.
       WIREs Comput. Mol. Sci. 2013. doi: 10.1002/wcms.1172
    
    and
    
       Dalton, a Molecular Electronic Structure Program,
       Release DALTON2013.0 (2013), see http://daltonprogram.org
   ----------------------------------------------------------------------------

    Authors in alphabetical order (major contribution(s) in parenthesis):

  Kestutis Aidas,           Vilnius University,           Lithuania   (QM/MM)
  Celestino Angeli,         University of Ferrara,        Italy       (NEVPT2)
  Keld L. Bak,              UNI-C,                        Denmark     (AOSOPPA, non-adiabatic coupling, magnetic properties)
  Vebjoern Bakken,          University of Oslo,           Norway      (DALTON; geometry optimizer, symmetry detection)
  Radovan Bast,             KTH Stockholm                 Sweden      (DALTON installation and execution frameworks)
  Linus Boman,              NTNU,                         Norway      (Cholesky decomposition and subsystems)
  Ove Christiansen,         Aarhus University,            Denmark     (CC module)
  Renzo Cimiraglia,         University of Ferrara,        Italy       (NEVPT2)
  Sonia Coriani,            University of Trieste,        Italy       (CC module, MCD in RESPONS)
  Paal Dahle,               University of Oslo,           Norway      (Parallelization)
  Erik K. Dalskov,          UNI-C,                        Denmark     (SOPPA)
  Thomas Enevoldsen,        Univ. of Southern Denmark,    Denmark     (SOPPA)
  Janus J. Eriksen,         Aarhus University,            Denmark     (PE-MP2/SOPPA, TDA)
  Berta Fernandez,          U. of Santiago de Compostela, Spain       (doublet spin, ESR in RESPONS)
  Lara Ferrighi,            Aarhus University,            Denmark     (PCM Cubic response)
  Heike Fliegl,             University of Oslo,           Norway      (CCSD(R12))
  Luca Frediani,            UiT The Arctic U. of Norway,  Norway      (PCM)
  Bin Gao,                  UiT The Arctic U. of Norway,  Norway      (Gen1Int library)
  Christof Haettig,         Ruhr-University Bochum,       Germany     (CC module)
  Kasper Hald,              Aarhus University,            Denmark     (CC module)
  Asger Halkier,            Aarhus University,            Denmark     (CC module)
  Hanne Heiberg,            University of Oslo,           Norway      (geometry analysis, selected one-electron integrals)
  Trygve Helgaker,          University of Oslo,           Norway      (DALTON; ABACUS, ERI, DFT modules, London, and much more)
  Alf Christian Hennum,     University of Oslo,           Norway      (Parity violation)
  Hinne Hettema,            University of Auckland,       New Zealand (quadratic response in RESPONS; SIRIUS supersymmetry)
  Eirik Hjertenaes,         NTNU,                         Norway      (Cholesky decomposition)
  Maria Francesca Iozzi,    University of Oslo,           Norway      (RPA)
  Brano Jansik              Technical Univ. of Ostrava    Czech Rep.  (DFT cubic response)
  Hans Joergen Aa. Jensen,  Univ. of Southern Denmark,    Denmark     (DALTON; SIRIUS, RESPONS, ABACUS modules, London, and much more)
  Dan Jonsson,              UiT The Arctic U. of Norway,  Norway      (cubic response in RESPONS module)
  Poul Joergensen,          Aarhus University,            Denmark     (RESPONS, ABACUS, and CC modules)
  Joanna Kauczor,           Linkoeping University,        Sweden      (Complex polarization propagator (CPP) module)
  Sheela Kirpekar,          Univ. of Southern Denmark,    Denmark     (Mass-velocity & Darwin integrals)
  Wim Klopper,              KIT Karlsruhe,                Germany     (R12 code in CC, SIRIUS, and ABACUS modules)
  Stefan Knecht,            ETH Zurich,                   Switzerland (Parallel CI and MCSCF)
  Rika Kobayashi,           Australian National Univ.,    Australia   (DIIS in CC, London in MCSCF)
  Henrik Koch,              NTNU,                         Norway      (CC module, Cholesky decomposition)
  Jacob Kongsted,           Univ. of Southern Denmark,    Denmark     (Polarizable embedding, QM/MM)
  Andrea Ligabue,           University of Modena,         Italy       (CTOCD, AOSOPPA)
  Ola B. Lutnaes,           University of Oslo,           Norway      (DFT Hessian)
  Juan I. Melo,             University of Buenos Aires,   Argentina   (LRESC, Relativistic Effects on NMR Shieldings)
  Kurt V. Mikkelsen,        University of Copenhagen,     Denmark     (MC-SCRF and QM/MM)
  Rolf H. Myhre,            NTNU,                         Norway      (Cholesky, subsystems and ECC2)
  Christian Neiss,          Univ. Erlangen-Nuernberg,     Germany     (CCSD(R12))
  Christian B. Nielsen,     University of Copenhagen,     Denmark     (QM/MM)
  Patrick Norman,           Linkoeping University,        Sweden      (Cubic response and complex response in RESPONS)
  Jeppe Olsen,              Aarhus University,            Denmark     (SIRIUS CI/density modules)
  Jogvan Magnus H. Olsen,   Univ. of Southern Denmark,    Denmark     (Polarizable embedding, PE library, QM/MM)
  Anders Osted,             Copenhagen University,        Denmark     (QM/MM)
  Martin J. Packer,         University of Sheffield,      UK          (SOPPA)
  Filip Pawlowski,          Kazimierz Wielki University   Poland      (CC3)
  Thomas B. Pedersen,       University of Oslo,           Norway      (Cholesky decomposition)
  Patricio F. Provasi,      University of Northeastern,   Argentina   (Analysis of coupling constants in localized orbitals)
  Zilvinas Rinkevicius,     KTH Stockholm,                Sweden      (open-shell DFT, ESR)
  Elias Rudberg,            KTH Stockholm,                Sweden      (DFT grid and basis info)
  Torgeir A. Ruden,         University of Oslo,           Norway      (Numerical derivatives in ABACUS)
  Kenneth Ruud,             UiT The Arctic U. of Norway,  Norway      (DALTON; ABACUS magnetic properties and  much more)
  Pawel Salek,              KTH Stockholm,                Sweden      (DALTON; DFT code)
  Claire C. M. Samson       University of Karlsruhe       Germany     (Boys localization, r12 integrals in ERI)
  Alfredo Sanchez de Meras, University of Valencia,       Spain       (CC module, Cholesky decomposition)
  Trond Saue,               Paul Sabatier University,     France      (direct Fock matrix construction)
  Stephan P. A. Sauer,      University of Copenhagen,     Denmark     (SOPPA(CCSD), SOPPA prop., AOSOPPA, vibrational g-factors)
  Bernd Schimmelpfennig,    Forschungszentrum Karlsruhe,  Germany     (AMFI module)
  Kristian Sneskov,         Aarhus University,            Denmark     (QM/MM, PE-CC)
  Arnfinn H. Steindal,      UiT The Arctic U. of Norway,  Norway      (parallel QM/MM)
  K. O. Sylvester-Hvid,     University of Copenhagen,     Denmark     (MC-SCRF)
  Peter R. Taylor,          VLSCI/Univ. of Melbourne,     Australia   (Symmetry handling ABACUS, integral transformation)
  Andrew M. Teale,          University of Nottingham,     England     (DFT-AC, DFT-D)
  David P. Tew,             University of Bristol,        England     (CCSD(R12))
  Olav Vahtras,             KTH Stockholm,                Sweden      (triplet response, spin-orbit, ESR, TDDFT, open-shell DFT)
  David J. Wilson,          La Trobe University,          Australia   (DFT Hessian and DFT magnetizabilities)
  Hans Agren,               KTH Stockholm,                Sweden      (SIRIUS module, RESPONS, MC-SCRF solvation model)
 --------------------------------------------------------------------------------

     Date and time (Linux)  : Sun Sep  8 20:49:02 2013
     Host name              : lpqlx131.ups-tlse.fr                    

 * Work memory size             :    64000000 =  488.28 megabytes.

 * Directories for basis set searches:
   1) /home/bast/DALTON-2013.0-Source/build/test_prop_nucquad
   2) /home/bast/DALTON-2013.0-Source/build/basis


Compilation information
-----------------------

 Who compiled             | bast
 Host                     | lpqlx131.ups-tlse.fr
 System                   | Linux-3.8.5-201.fc18.x86_64
 CMake generator          | Unix Makefiles
 Processor                | x86_64
 64-bit integers          | OFF
 MPI                      | OFF
 Fortran compiler         | /usr/bin/gfortran
 Fortran compiler version | GNU Fortran (GCC) 4.7.2 20121109 (Red Hat 4.7.2-8)
 C compiler               | /usr/bin/gcc
 C compiler version       | gcc (GCC) 4.7.2 20121109 (Red Hat 4.7.2-8)
 C++ compiler             | /usr/bin/g++
 C++ compiler version     | g++ (GCC) 4.7.2 20121109 (Red Hat 4.7.2-8)
 Static linking           | OFF
 Last Git revision        | f34203295a86316e27f9e7b44f9b6769c4a046c0
 Configuration time       | 2013-09-08 20:31:27.952056


   Content of the .dal input file
 ----------------------------------

**DALTON INPUT                                    
.RUN PROPERTIES                                   
**WAVE FUNCTIONS                                  
.HF                                               
.MP2                                              
.MCSCF                                            
*SCF INPUT                                        
.DOUBLY OCCUPIED                                  
 8 2 5 1                                          
.OPEN SHELL                                       
 2                                                
*CONFIGURATION INPUT                              
.INACTIVE                                         
 4 1 2 0                                          
.CAS SPACE                                        
 5 2 4 1                                          
.ELECTRONS                                        
 19                                               
.SPIN MULTIPLICITY                                
 2                                                
.SYMMETRY                                         
 2                                                
**PROPERTIES                                      
.NQCC                                             
**END OF DALTON INPUT                             


   Content of the .mol file
 ----------------------------

BASIS                                                                          
cc-pVTZ                                                                        
Calculation of nuclear quadrupole coupling constants                           
                                                                               
    2    2  X  Y      1.00D-15                                                 
      17.     1                                                                
Cl    0.00000    0.00000   1.0000                                              
       8.     1                                                                
O1    0.00000    2.37360  -0.44317                                             


       *******************************************************************
       *********** Output from DALTON general input processing ***********
       *******************************************************************

 --------------------------------------------------------------------------------
   Overall default print level:    0
   Print level for DALTON.STAT:    1

    HERMIT 1- and 2-electron integral sections will be executed
    "Old" integral transformation used (limited to max 255 basis functions)
    Wave function sections will be executed (SIRIUS module)
    Static molecular property section will be executed (ABACUS module)
 --------------------------------------------------------------------------------


   ****************************************************************************
   *************** Output of molecule and basis set information ***************
   ****************************************************************************


    The two title cards from your ".mol" input:
    ------------------------------------------------------------------------
 1: Calculation of nuclear quadrupole coupling constants                    
 2:                                                                         
    ------------------------------------------------------------------------

  Atomic type no.    1
  --------------------
  Nuclear charge:  17.00000
  Number of symmetry independent centers:    1
  Number of basis sets to read;    2
  Basis set file used for this atomic type with Z =  17 :
     "/home/bast/DALTON-2013.0-Source/build/basis/cc-pVTZ"

  Atomic type no.    2
  --------------------
  Nuclear charge:   8.00000
  Number of symmetry independent centers:    1
  Number of basis sets to read;    2
  Basis set file used for this atomic type with Z =   8 :
     "/home/bast/DALTON-2013.0-Source/build/basis/cc-pVTZ"


                         SYMGRP: Point group information
                         -------------------------------

Point group: C2v

   * The point group was generated by:

      Reflection in the yz-plane
      Reflection in the xz-plane

   * Group multiplication table

        |  E   C2z  Oxz  Oyz
   -----+--------------------
     E  |  E   C2z  Oxz  Oyz
    C2z | C2z   E   Oyz  Oxz
    Oxz | Oxz  Oyz   E   C2z
    Oyz | Oyz  Oxz  C2z   E 

   * Character table

        |  E   C2z  Oxz  Oyz
   -----+--------------------
    A1  |   1    1    1    1
    B1  |   1   -1    1   -1
    B2  |   1   -1   -1    1
    A2  |   1    1   -1   -1

   * Direct product table

        | A1   B1   B2   A2 
   -----+--------------------
    A1  | A1   B1   B2   A2 
    B1  | B1   A1   A2   B2 
    B2  | B2   A2   A1   B1 
    A2  | A2   B2   B1   A1 


                                 Isotopic Masses
                                 ---------------

                           Cl         34.968853
                           O1  _1     15.994915
                           O1  _2     15.994915

                       Total mass:    66.958683 amu
                       Natural abundance:  75.407 %

 Center-of-mass coordinates (a.u.):    0.000000    0.000000    0.310519


  Atoms and basis sets
  --------------------

  Number of atom types :    2
  Total number of atoms:    3

  Basis set used is "cc-pVTZ" from the basis set library.

  label    atoms   charge   prim   cont     basis
  ----------------------------------------------------------------------
  Cl          1   17.0000    59    34      [15s9p2d1f|5s4p2d1f]                               
  O1          2    8.0000    42    30      [10s5p2d1f|4s3p2d1f]                               
  ----------------------------------------------------------------------
  total:      3   33.0000   143    94
  ----------------------------------------------------------------------
  Spherical harmonic basis used.

  Threshold for neglecting AO integrals:  1.00D-15


  Cartesian Coordinates (a.u.)
  ----------------------------

  Total number of coordinates:    9
  Cl      :     1  x   0.0000000000    2  y   0.0000000000    3  z   1.0000000000
  O1  / 1 :     4  x   0.0000000000    5  y   2.3736000000    6  z  -0.4431700000
  O1  / 2 :     7  x   0.0000000000    8  y  -2.3736000000    9  z  -0.4431700000


  Symmetry Coordinates
  --------------------

  Number of coordinates in each symmetry:     3    2    3    1

  Symmetry  A1  ( 1)

    1   Cl    z    3
    2   O1    y    [  5  -    8 ]/2
    3   O1    z    [  6  +    9 ]/2

  Symmetry  B1  ( 2)

    4   Cl    x    1
    5   O1    x    [  4  +    7 ]/2

  Symmetry  B2  ( 3)

    6   Cl    y    2
    7   O1    y    [  5  +    8 ]/2
    8   O1    z    [  6  -    9 ]/2

  Symmetry  A2  ( 4)

    9   O1    x    [  4  -    7 ]/2


   Interatomic separations (in Angstrom):
   --------------------------------------

            Cl          O1  _1      O1  _2
            ------      ------      ------
 Cl    :    0.000000
 O1  _1:    1.470000    0.000000
 O1  _2:    1.470000    2.512110    0.000000


  Max    interatomic separation is    2.5121 Angstrom (    4.7472 Bohr)
  between atoms    3 and    2, "O1  _2" and "O1  _1".

  Min YX interatomic separation is    1.4700 Angstrom (    2.7779 Bohr)


  Bond distances (Angstrom):
  --------------------------

                  atom 1     atom 2       distance
                  ------     ------       --------
  bond distance:  O1  _1     Cl           1.470000
  bond distance:  O1  _2     Cl           1.470000


  Bond angles (degrees):
  ----------------------

                  atom 1     atom 2     atom 3         angle
                  ------     ------     ------         -----
  bond angle:     O1  _1     Cl         O1  _2       117.400




 Principal moments of inertia (u*A**2) and principal axes
 --------------------------------------------------------

   IA       9.743695          0.000000    1.000000    0.000000
   IB      50.469530          0.000000    0.000000    1.000000
   IC      60.213225          1.000000    0.000000    0.000000


 Rotational constants
 --------------------

 The molecule is planar.

               A                   B                   C

          51867.2867          10013.5468           8393.1562 MHz
            1.730106            0.334016            0.279966 cm-1


@  Nuclear repulsion energy :  111.397397857680 Hartree


  Symmetry Orbitals
  -----------------

  Number of orbitals in each symmetry:          35   18   28   13


  Symmetry  A1 ( 1)

    1     Cl       1s         1
    2     Cl       1s         2
    3     Cl       1s         3
    4     Cl       1s         4
    5     Cl       1s         5
    6     Cl       2pz        8
    7     Cl       2pz       11
    8     Cl       2pz       14
    9     Cl       2pz       17
   10     Cl       3d0       20
   11     Cl       3d2+      22
   12     Cl       3d0       25
   13     Cl       3d2+      27
   14     Cl       4f0       31
   15     Cl       4f2+      33
   16     O1       1s        35 +   36
   17     O1       1s        37 +   38
   18     O1       1s        39 +   40
   19     O1       1s        41 +   42
   20     O1       2py       45 -   46
   21     O1       2pz       47 +   48
   22     O1       2py       51 -   52
   23     O1       2pz       53 +   54
   24     O1       2py       57 -   58
   25     O1       2pz       59 +   60
   26     O1       3d1-      63 -   64
   27     O1       3d0       65 +   66
   28     O1       3d2+      69 +   70
   29     O1       3d1-      73 -   74
   30     O1       3d0       75 +   76
   31     O1       3d2+      79 +   80
   32     O1       4f3-      81 -   82
   33     O1       4f1-      85 -   86
   34     O1       4f0       87 +   88
   35     O1       4f2+      91 +   92


  Symmetry  B1 ( 2)

   36     Cl       2px        6
   37     Cl       2px        9
   38     Cl       2px       12
   39     Cl       2px       15
   40     Cl       3d1+      21
   41     Cl       3d1+      26
   42     Cl       4f1+      32
   43     Cl       4f3+      34
   44     O1       2px       43 +   44
   45     O1       2px       49 +   50
   46     O1       2px       55 +   56
   47     O1       3d2-      61 -   62
   48     O1       3d1+      67 +   68
   49     O1       3d2-      71 -   72
   50     O1       3d1+      77 +   78
   51     O1       4f2-      83 -   84
   52     O1       4f1+      89 +   90
   53     O1       4f3+      93 +   94


  Symmetry  B2 ( 3)

   54     Cl       2py        7
   55     Cl       2py       10
   56     Cl       2py       13
   57     Cl       2py       16
   58     Cl       3d1-      19
   59     Cl       3d1-      24
   60     Cl       4f3-      28
   61     Cl       4f1-      30
   62     O1       1s        35 -   36
   63     O1       1s        37 -   38
   64     O1       1s        39 -   40
   65     O1       1s        41 -   42
   66     O1       2py       45 +   46
   67     O1       2pz       47 -   48
   68     O1       2py       51 +   52
   69     O1       2pz       53 -   54
   70     O1       2py       57 +   58
   71     O1       2pz       59 -   60
   72     O1       3d1-      63 +   64
   73     O1       3d0       65 -   66
   74     O1       3d2+      69 -   70
   75     O1       3d1-      73 +   74
   76     O1       3d0       75 -   76
   77     O1       3d2+      79 -   80
   78     O1       4f3-      81 +   82
   79     O1       4f1-      85 +   86
   80     O1       4f0       87 -   88
   81     O1       4f2+      91 -   92


  Symmetry  A2 ( 4)

   82     Cl       3d2-      18
   83     Cl       3d2-      23
   84     Cl       4f2-      29
   85     O1       2px       43 -   44
   86     O1       2px       49 -   50
   87     O1       2px       55 -   56
   88     O1       3d2-      61 +   62
   89     O1       3d1+      67 -   68
   90     O1       3d2-      71 +   72
   91     O1       3d1+      77 -   78
   92     O1       4f2-      83 +   84
   93     O1       4f1+      89 -   90
   94     O1       4f3+      93 -   94

  Symmetries of electric field:  B1 (2)  B2 (3)  A1 (1)

  Symmetries of magnetic field:  B2 (3)  B1 (2)  A2 (4)


                     .---------------------------------------.
                     | Starting in Integral Section (HERMIT) |
                     `---------------------------------------'



    *************************************************************************
    ****************** Output from HERMIT input processing ******************
    *************************************************************************



     ************************************************************************
     ************************** Output from HERINT **************************
     ************************************************************************


 Threshold for neglecting two-electron integrals:  1.00D-15
 Number of two-electron integrals written:     2299042 ( 23.1% )
 Megabytes written:                             26.327

 >>>  Time used in TWOINT     is   1.17 seconds
 >>>> Total CPU  time used in HERMIT:   1.24 seconds
 >>>> Total wall time used in HERMIT:   1.25 seconds


                        .----------------------------------.
                        | End of Integral Section (HERMIT) |
                        `----------------------------------'



                   .--------------------------------------------.
                   | Starting in Wave Function Section (SIRIUS) |
                   `--------------------------------------------'


 *** Output from Huckel module :

     Using EWMO model:          F
     Using EHT  model:          T
     Number of Huckel orbitals each symmetry:   11    4    7    2

 Huckel EHT eigenvalues for symmetry :  1
         -104.890528     -20.698578     -10.635229      -8.073922      -1.576572
           -0.978465      -0.708000      -0.516411      -0.349699      -0.048743
           -0.016064

 Huckel EHT eigenvalues for symmetry :  2
           -8.072641      -0.719832      -0.420520      -0.051104

 Huckel EHT eigenvalues for symmetry :  3
          -20.706525      -8.076075      -1.374834      -0.665504      -0.586675
           -0.315402       0.001757

 Huckel EHT eigenvalues for symmetry :  4
           -0.614054      -0.043960

 **********************************************************************
 *SIRIUS* a direct, restricted step, second order MCSCF program       *
 **********************************************************************

 
     Date and time (Linux)  : Sun Sep  8 20:49:03 2013
     Host name              : lpqlx131.ups-tlse.fr                    

 Title lines from ".mol" input file:
     Calculation of nuclear quadrupole coupling constants                    
                                                                             

 Print level on unit LUPRI =   2 is   0
 Print level on unit LUW4  =   2 is   5

@    MC-SCF optimization.
@              Type: complete active space calculation (CAS).

@    This is a combination run starting with
@              a restricted, one open shell Hartree-Fock calculation
@              an MP2 calculation


 Initial molecular orbitals are obtained according to
 ".MOSTART EHT   " input option

     Wave function specification
     ============================
@    For the wave function of type :      >>> MC-SCF <<<
@    Number of closed shell electrons          14
@    Number of electrons in active shells      19
@    Total charge of the molecule               0

@    Spin multiplicity and 2 M_S                2         1
     Total number of symmetries                 4
@    Reference state symmetry                   2

     Orbital specifications
     ======================
     Abelian symmetry species          All |    1    2    3    4
                                       --- |  ---  ---  ---  ---
@    Inactive orbitals                   7 |    4    1    2    0
@    Active orbitals                    12 |    5    2    4    1
     Secondary orbitals                 75 |   26   15   22   12
     Total number of orbitals           94 |   35   18   28   13
     Number of basis functions          94 |   35   18   28   13

      -- Initial occupation of symmetries is determined from user input.                      
      -- Initial occupation of symmetries is :
@    Occupied SCF orbitals              16 |    8    2    5    1

@    plus one open shell SCF orbital of symmetry   2

     Optimization information
     ========================
@    Number of configurations              2106
@    Number of orbital rotations            453
     ------------------------------------------
@    Total number of variables             2559

     Maximum number of macro iterations      25
     Maximum number of micro iterations     600
     Threshold for MCSCF gradient      1.00D-05
     Number of initial trial vectors          1
     Number of initial CI iterations          3
     Number of simultaneous trial vectors     1

@    This calculation converges to the lowest state for the specified symmetry and spin species.

     Maximum number of NEO/NR iterations  24


 >>>>> DIIS optimization of Hartree-Fock <<<<<

 C1-DIIS algorithm; max error vectors =   10

 Iter      Total energy        Error norm    Delta(E)  DIIS dim.
 -----------------------------------------------------------------------------
     (Precalculated two-electron integrals are transformed to P-supermatrix elements.
      Threshold for discarding integrals :  1.00D-15 )
@  1    -608.401702182        4.16554D+00   -6.08D+02    1
      Virial theorem: -V/T =      1.997821
@      MULPOP Cl      1.06; O1  _1 -0.53; O1  _2 -0.53; 
 -----------------------------------------------------------------------------
@  2    -608.760918192        2.47348D+00   -3.59D-01    2
      Virial theorem: -V/T =      1.998831
@      MULPOP Cl     -0.22; O1  _1  0.11; O1  _2  0.11; 
 -----------------------------------------------------------------------------
@  3    -609.027607964        7.00862D-01   -2.67D-01    3
      Virial theorem: -V/T =      1.998972
@      MULPOP Cl      0.66; O1  _1 -0.33; O1  _2 -0.33; 
 -----------------------------------------------------------------------------
@  4    -609.051567921        1.13125D-01   -2.40D-02    4
      Virial theorem: -V/T =      1.999805
@      MULPOP Cl      0.52; O1  _1 -0.26; O1  _2 -0.26; 
 -----------------------------------------------------------------------------
@  5    -609.053074759        4.88443D-02   -1.51D-03    5
      Virial theorem: -V/T =      1.999397
@      MULPOP Cl      0.51; O1  _1 -0.26; O1  _2 -0.26; 
 -----------------------------------------------------------------------------
@  6    -609.053614079        1.67789D-02   -5.39D-04    6
      Virial theorem: -V/T =      1.999415
@      MULPOP Cl      0.51; O1  _1 -0.26; O1  _2 -0.26; 
 -----------------------------------------------------------------------------
@  7    -609.053693087        3.45596D-03   -7.90D-05    7
      Virial theorem: -V/T =      1.999374
@      MULPOP Cl      0.51; O1  _1 -0.26; O1  _2 -0.26; 
 -----------------------------------------------------------------------------
@  8    -609.053695499        6.51692D-04   -2.41D-06    8
      Virial theorem: -V/T =      1.999374
@      MULPOP Cl      0.51; O1  _1 -0.26; O1  _2 -0.26; 
 -----------------------------------------------------------------------------
@  9    -609.053695561        1.33425D-04   -6.21D-08    9
      Virial theorem: -V/T =      1.999373
@      MULPOP Cl      0.51; O1  _1 -0.26; O1  _2 -0.26; 
 -----------------------------------------------------------------------------
@ 10    -609.053695566        5.44996D-05   -4.06D-09   10
      Virial theorem: -V/T =      1.999373
@      MULPOP Cl      0.51; O1  _1 -0.26; O1  _2 -0.26; 
 -----------------------------------------------------------------------------
@ 11    -609.053695566        1.18512D-05   -6.81D-10   10
      Virial theorem: -V/T =      1.999373
@      MULPOP Cl      0.51; O1  _1 -0.26; O1  _2 -0.26; 
 -----------------------------------------------------------------------------
@ 12    -609.053695566        8.02685D-06   -5.66D-11   10
      Virial theorem: -V/T =      1.999373
@      MULPOP Cl      0.51; O1  _1 -0.26; O1  _2 -0.26; 
 -----------------------------------------------------------------------------
@ 13    -609.053695566        3.11558D-06   -1.55D-11   10
      Virial theorem: -V/T =      1.999373
@      MULPOP Cl      0.51; O1  _1 -0.26; O1  _2 -0.26; 
 -----------------------------------------------------------------------------
@ 14    -609.053695566        1.16324D-06   -3.75D-12   10
      Virial theorem: -V/T =      1.999373
@      MULPOP Cl      0.51; O1  _1 -0.26; O1  _2 -0.26; 
 -----------------------------------------------------------------------------
@ 15    -609.053695566        4.75640D-07   -4.55D-13   10

@ *** DIIS converged in  15 iterations !
@     Converged SCF energy, gradient:   -609.053695566290    4.76D-07
    - total time used in SIRFCK :              0.00 seconds

 >>> Writing SIRIFC interface file <<<

 >>>> CPU and wall time for SCF :       0.255       0.258


 >>>>> Output from SIRIUS MP2 module <<<<<

 Reference: H.J.Aa.Jensen, P.Jorgensen, H.Agren, and J.Olsen,
            J. Chem. Phys. 88, 3834 (1988); 89, 5354 (1988)


@ INFO: All open shell orbitals are frozen in the MP2 calculation.

 Checking that the closed shell orbitals are canonical Hartree-Fock orbitals

    Number of electrons  :   33
    Closed shell orbitals:    8    2    5    1
    Open   shell orbitals:    0    1    0    0

 Generating Fock matrix FC+FV

 Hartree-Fock electronic energy:        -720.014264437655
 Hartree-Fock total      energy:        -608.616866579975
 Note: the energy of the open shell electrons is not included

 Hartree-Fock orbital energies, symmetry 1, number of occupied SCF orbitals is    8

      -105.09999570   -20.63184623   -10.80102703    -8.26620749    -1.55843887
        -1.00106356    -0.73231951    -0.52510889     0.17718059     0.41976710
         0.52413752     0.61619191     0.68633736     0.79196715     1.01353169
         1.50212419     1.68690402     2.08011128     2.15802155     2.19177648
         2.39943457     2.57108322     2.73237932     3.08282809     4.16807097
         4.30999249     5.53419955     5.57598567     5.59574447     5.73544455
         6.42446870     6.73554840     7.17115698     7.52690762     9.55473925

 Hartree-Fock orbital energies, symmetry 2, number of occupied SCF orbitals is    2

        -8.26660657    -0.72565393    -0.22400506     0.41204649     0.59682162
         0.85899137     1.60860597     1.90411310     2.11845719     2.39421303
         2.42426780     2.90943704     4.20102519     5.53334866     5.63867475
         5.87001333     6.74572038     7.07222875

 Hartree-Fock orbital energies, symmetry 3, number of occupied SCF orbitals is    5

       -20.63187345    -8.26811853    -1.40370694    -0.72108256    -0.53398072
         0.18915341     0.48561279     0.66579763     0.89048489     1.16599595
         1.38376543     1.70489925     1.77366052     2.06902536     2.43269714
         2.71241265     3.05013094     3.15676574     4.28965610     5.21593733
         5.52714615     5.56383402     5.96810705     6.14869310     6.72947296
         7.06967702     7.38626591     9.26104245

 Hartree-Fock orbital energies, symmetry 4, number of occupied SCF orbitals is    1

        -0.53086315     0.65533927     0.80490625     1.64026485     1.95486176
         2.16760196     2.90239477     4.19821609     5.51238390     5.53286563
         5.87981790     6.69898013     7.08110979

    E(LUMO) :     0.17718059   (in symmetry 1)
  - E(HOMO) :    -0.52510889   (in symmetry 1)
  --------------------------
    gap     :     0.70228948

 Note that HOMO here is highest doubly occupied MO,
      the singly occupied MOs are frozen.

 Integral transformation: Total CPU and WALL times (sec)       0.794       0.803

 MP2 move   0.279952 electrons to unoccupied HF orbitals


@   Hartree-Fock total energy   :          -608.6168665800
@   + MP2 contribution          :            -0.5931817289
@   = MP2 second order energy   :          -609.2100483089

 Natural orbital occupation numbers, symmetry 1
 Sum =    16.00108244; RHF =    16.00000000; Difference =     0.00108244

         1.99999783     1.99958904     1.99956149     1.99926675     1.98792014
         1.97817338     1.96643688     1.95395459     0.04636418     0.02021219
         0.01018512     0.00864904     0.00726822     0.00561887     0.00450955
         0.00318624     0.00232805     0.00164851     0.00102380     0.00076954
         0.00064966     0.00046634     0.00045757     0.00038218     0.00037336
         0.00033098     0.00030823     0.00028978     0.00027256     0.00025935
         0.00020882     0.00017528     0.00011418     0.00009847     0.00003228

 Natural orbital occupation numbers, symmetry 2
 Sum =     5.00901746; RHF =     5.00000000; Difference =     0.00901746

         1.99934943     1.97454938     1.00000000     0.01363213     0.00726307
         0.00467924     0.00318460     0.00243937     0.00093515     0.00069289
         0.00046273     0.00040995     0.00030291     0.00029395     0.00027140
         0.00024680     0.00019816     0.00010629

 Natural orbital occupation numbers, symmetry 3
 Sum =     9.98974487; RHF =    10.00000000; Difference =    -0.01025513

         1.99958891     1.99920692     1.98537794     1.96437762     1.94989531
         0.03945341     0.01451080     0.01006227     0.00700453     0.00522645
         0.00464920     0.00351482     0.00156897     0.00096132     0.00084291
         0.00056675     0.00044300     0.00040909     0.00033825     0.00030815
         0.00028613     0.00027340     0.00025100     0.00023132     0.00020601
         0.00011322     0.00006919     0.00000798

 Natural orbital occupation numbers, symmetry 4
 Sum =     2.00015523; RHF =     2.00000000; Difference =     0.00015523

         1.96791789     0.01575084     0.00698369     0.00463151     0.00205773
         0.00084396     0.00047249     0.00034088     0.00029371     0.00028316
         0.00025682     0.00022978     0.00009277

 Time used for MP2 natural orbitals :       0.893 CPU seconds,       0.903 wall seconds.

 >>>> CPU and wall time for MP2 :       0.893       0.903


        SIRIUS MCSCF optimization (SIROPT)
 ================================================



 <<<<< Output from SIRIUS CI module (CICTL) >>>>>




 Integral transformation: Total CPU and WALL times (sec)       0.193       0.195

 (CIST1)  4 lowest diagonal elements:

 Element no. Config.no.    Active energy      Total energy

         1 :         29    -83.9088906254   -609.0480681416
         2 :         34    -83.5614965673   -608.7006740835
         3 :        643    -83.3346124646   -608.4737899808
         4 :        644    -83.3346124646   -608.4737899808


 Convergence threshold for CI optimization :     0.00000500



 *** Reached maximum number of CI iterations:    3
              1 CI roots are not converged.


 CI energies and residuals:
    1     -609.153480839477083       7.00D-02


 Final CI energy:     -609.153480839477083

   <<< OUTPUT FROM SIRCNO >>>    Keyword = FD+NO 


 Occupations of CAS natural orbitals:

 Symmetry  1

   1.999448884   1.998154587   1.988024281   1.974836575   0.050729443

 Symmetry  2

   1.991573783   1.033092074

 Symmetry  3

   1.999373661   1.987649932   1.963894997   0.038714139

 Symmetry  4

   1.974507644


 <<< MACRO ITERATION  1 >>>
 --------------------------

 Integral transformation: Total CPU and WALL times (sec)       0.577       0.584

 Total MCSCF energy       :          -609.153480839471285  (MACRO    1)

 - Nuclear repulsion      :           111.397397857680389
 - Inactive energy        :          -636.536575373879032
 - Active energy          :           -84.014303323272713

 Norm of total gradient   :             0.325898664896
 -    of CI gradient      :             0.139901340536
 -    of orbital gradient :             0.294342580503
      Virial theorem: -V/T =      2.023149
@      MULPOP Cl      1.38; O1  _1 -0.69; O1  _2 -0.69; 

 Residual norm when dim(red L) =   7
 NEO root     CSF        orbital          total
    1     0.05999526     0.01364467     0.06152730 converged

 (NEONEX) NEO vector is converged.

   <<< OUTPUT FROM SIRCNO >>>    Keyword = FD+NO 


 Occupations of CAS natural orbitals:

 Symmetry  1

   1.998913555   1.996734289   1.983992538   1.961133864   0.074016376

 Symmetry  2

   1.988766521   1.048259653

 Symmetry  3

   1.998720948   1.983072615   1.946512396   0.058467435

 Symmetry  4

   1.961409811


 <<< MACRO ITERATION  2 >>>
 --------------------------

 Integral transformation: Total CPU and WALL times (sec)       0.580       0.588

 Total MCSCF energy       :          -609.163300697018940  (MACRO    2)

 - Nuclear repulsion      :           111.397397857680389
 - Inactive energy        :          -636.213132529048153
 - Active energy          :           -84.347566025651233

 Norm of total gradient   :             0.107522172122
 -    of CI gradient      :             0.086880401549
 -    of orbital gradient :             0.063346770434
      Virial theorem: -V/T =      2.023713
@      MULPOP Cl      1.25; O1  _1 -0.63; O1  _2 -0.63; 

 Residual norm when dim(red L) =   9
 NEO root     CSF        orbital          total
    1     0.01453807     0.00541439     0.01551358 converged

 (NEONEX) NEO vector is converged.

   <<< OUTPUT FROM SIRCNO >>>    Keyword = FD+NO 


 Occupations of CAS natural orbitals:

 Symmetry  1

   1.999165462   1.997354715   1.985923151   1.964368466   0.068187898

 Symmetry  2

   1.990470364   1.048540221

 Symmetry  3

   1.999017359   1.984982380   1.950014904   0.052336838

 Symmetry  4

   1.959638244


 <<< MACRO ITERATION  3 >>>
 --------------------------

 Integral transformation: Total CPU and WALL times (sec)       0.577       0.726

 Total MCSCF energy       :          -609.165539374396644  (MACRO    3)

 - Nuclear repulsion      :           111.397397857680389
 - Inactive energy        :          -636.393655314199123
 - Active energy          :           -84.169281917877953

 Norm of total gradient   :             0.017857683016
 -    of CI gradient      :             0.015482373994
 -    of orbital gradient :             0.008899041420
      Virial theorem: -V/T =      2.023590
@      MULPOP Cl      1.23; O1  _1 -0.61; O1  _2 -0.61; 

 Residual norm when dim(red L) =  15
 NEO root     CSF        orbital          total
    1     0.00034585     0.00019750     0.00039827 converged

 (NEONEX) NEO vector is converged.

   <<< OUTPUT FROM SIRCNO >>>    Keyword = FD+NO 


 Occupations of CAS natural orbitals:

 Symmetry  1

   1.999204441   1.997353017   1.985911759   1.964940945   0.067900762

 Symmetry  2

   1.990630807   1.048154782

 Symmetry  3

   1.999055958   1.985134595   1.950143440   0.051688736

 Symmetry  4

   1.959880759


 <<< MACRO ITERATION  4 >>>
 --------------------------

 Integral transformation: Total CPU and WALL times (sec)       0.579       0.585

 Total MCSCF energy       :          -609.165589587007503  (MACRO    4)

 - Nuclear repulsion      :           111.397397857680389
 - Inactive energy        :          -636.440771500143910
 - Active energy          :           -84.122215944544024

 Norm of total gradient   :             0.000537452433
 -    of CI gradient      :             0.000393010031
 -    of orbital gradient :             0.000366603646
      Virial theorem: -V/T =      2.023640
@      MULPOP Cl      1.22; O1  _1 -0.61; O1  _2 -0.61; 

 Residual norm when dim(red L) =  15
 NEO root     CSF        orbital          total
    1     0.00000720     0.00000345     0.00000799 converged

 (NEONEX) NEO vector is converged.

   <<< OUTPUT FROM SIRCNO >>>    Keyword = FD+NO 


 Occupations of CAS natural orbitals:

 Symmetry  1

   1.999205836   1.997354178   1.985910768   1.964944134   0.067892884

 Symmetry  2

   1.990634621   1.048138393

 Symmetry  3

   1.999057472   1.985136614   1.950151556   0.051680064

 Symmetry  4

   1.959893480


 <<< MACRO ITERATION  5 >>>
 --------------------------

 Integral transformation: Total CPU and WALL times (sec)       0.581       0.587

 Total MCSCF energy       :          -609.165589624200948  (MACRO    5)

 - Nuclear repulsion      :           111.397397857680389
 - Inactive energy        :          -636.442639234152239
 - Active energy          :           -84.120348247729098

 Norm of total gradient   :             0.000008060364
 -    of CI gradient      :             0.000007214546
 -    of orbital gradient :             0.000003594412
      Virial theorem: -V/T =      2.023642
@      MULPOP Cl      1.22; O1  _1 -0.61; O1  _2 -0.61; 

 (SIRSTP) Close to convergence, ratio set to one.
 Energy difference; actual and predicted:   -3.71934D-08   -3.71815D-08

 (SIRSTP) Close to convergence, ratio set to one.
 Energy difference; actual and predicted:    1.00032D+00
 Close to convergence, ratio set to one.

 *** Optimization control: MCSCF converged ***
     Number of macro iterations used            5
     Number of micro iterations used           38
     Total number of CPU seconds used         5.66

 Integral transformation: Total CPU and WALL times (sec)       0.676       0.684

 >>>> CPU and wall time for MCSCF :       6.340       6.555


                     .----------------------------------------.
                     | >>> SIRIUS OPTIMIZATION STATISTICS <<< |
                     `----------------------------------------'


 
     Date and time (Linux)  : Sun Sep  8 20:49:11 2013
     Host name              : lpqlx131.ups-tlse.fr                    


  ITER ITMIC     EMCSCF           GRDNRM        RATIO      STPLNG
 ---------------------------------------------------------------------
    1    5   -609.153480839471   0.3258986649  0.000000   0.3346352647
    2    7   -609.163300697019   0.1075221721  0.767086   0.1003153272
    3   13   -609.165539374397   0.0178576830  1.040515   0.0196419328
    4   13   -609.165589587008   0.0005374524  1.006778   0.0006140658
    5    0   -609.165589624201   0.0000080604  1.000000   0.0000000000


  ITER  INDGCM  GCIMAX      GCINRM     INDGOM  GOBMAX      GOBNRM      GRDNRM
 ------------------------------------------------------------------------------
    1    252    0.033918    0.139901    448    0.085788    0.294343    0.325899
    2   1457   -0.021096    0.086880    218   -0.021363    0.063347    0.107522
    3    252   -0.004161    0.015482    256    0.003274    0.008899    0.017858
    4    644   -0.000081    0.000393     10    0.000243    0.000367    0.000537
    5     34    0.000002    0.000007    312   -0.000001    0.000004    0.000008


  ITER ITMIC NCLIN NOLIN   TIMMAC    TIMITR    TIMMIC    TIMLIN    TIMMIC/ITMIC
 ------------------------------------------------------------------------------

    1     5     3     3      0.99      0.58      0.37      0.36      0.07
    2     7     5     3      1.06      0.58      0.44      0.42      0.06
    3    13     9     5      1.36      0.58      0.75      0.73      0.06
    4    13     9     5      1.38      0.58      0.75      0.73      0.06
    5     0     0     0      0.62      0.58      0.00      0.00


 ITER         EMY                 EACTIV              EMCSCF

    1   -636.536575373879    -84.014303323273   -609.153480839471
    2   -636.213132529048    -84.347566025651   -609.163300697019
    3   -636.393655314199    -84.169281917878   -609.165539374397
    4   -636.440771500144    -84.122215944544   -609.165589587008
    5   -636.442639234152    -84.120348247729   -609.165589624201


 ITER         DEPRED              DEACT               RATIO

    1      0.000000000000      0.000000000000      0.000000000000
    2     -0.012801509042     -0.009819857548      0.767085936126
    3     -0.002151508524     -0.002238677378      1.040515226045
    4     -0.000049874586     -0.000050212611      1.006777506904
    5     -0.000000037181     -0.000000037193      1.000000000000


 ITER    BETA           GAMMA             STPLNG              RTRUST

    1      0.20000000  1.00000000      0.334635264746      0.700000000000
    2      0.20000000  1.00000000      0.100315327202      0.700000000000
    3      0.20000000  1.00000000      0.019641932770      0.700000000000
    4      0.20000000  1.00000000      0.000614065818      0.700000000000
    5      0.00000000  0.00000000      0.000000000000      0.700000000000


 Reduced L root no.  1
 ITER         EVAL              EVEC(1)           EVEC(2)           EVEC(3)
 ----------------------------------------------------------------------------
    1   -0.001019553907    0.997767880632   -0.007667294180   -0.063377153211
    2   -0.000172051427    0.999798797443   -0.005414453808   -0.017137729827
    3   -0.000003989905    0.999992283979   -0.001057564603   -0.003283963932
    4   -0.000000002975    0.999999992458   -0.000030398909   -0.000113151410
    5    0.000000000000    0.000000000000    0.000000000000    0.000000000000


                       .-----------------------------------.
                       | >>> Final results from SIRIUS <<< |
                       `-----------------------------------'


@    Spin multiplicity:           2
@    Spatial symmetry:            2
@    Total charge of molecule:    0
@    State number:                1

@    Final MCSCF energy:         -609.165589624201                 
@    Nuclear repulsion:           111.397397857680
@    Electronic energy:          -720.562987481881

@    Final gradient norm:           0.000008060364

 
     Date and time (Linux)  : Sun Sep  8 20:49:11 2013
     Host name              : lpqlx131.ups-tlse.fr                    

 Occupancies of natural orbitals
 -------------------------------

 Symmetry  1 -- Total occupation in this symmetry is  16.015307799

   2.000000000   2.000000000   2.000000000   2.000000000   1.999205836
   1.997354178   1.985910768   1.964944134   0.067892884

 Symmetry  2 -- Total occupation in this symmetry is   5.038773015

   2.000000000   1.990634621   1.048138393

 Symmetry  3 -- Total occupation in this symmetry is   9.986025706

   2.000000000   2.000000000   1.999057472   1.985136614   1.950151556
   0.051680064

 Symmetry  4 -- Total occupation in this symmetry is   1.959893480

   1.959893480

 (Only coefficients >0.0100 are printed.)

 Molecular orbitals for symmetry species  1
 ------------------------------------------

    Orbital         5        6        7        8        9       10       11
   1 Cl  :1s    -0.0011   0.0012  -0.0028   0.0055  -0.0047   0.0064  -0.1248
   2 Cl  :1s    -0.0087   0.0354  -0.0153   0.0234  -0.0540   0.0464  -0.8695
   3 Cl  :1s     0.3555   0.8768  -0.3913  -0.0495  -0.5389  -0.0108  -2.2721
   4 Cl  :1s    -0.0022   0.0066  -0.0001  -0.0110  -0.0134   0.0640   0.0658
   5 Cl  :1s    -0.0370  -0.0383   0.0884  -0.3343  -0.0532  -1.5663   4.3054
   6 Cl  :2pz    0.0299   0.0026  -0.0186   0.0138   0.0356  -0.1923  -0.3088
   7 Cl  :2pz    0.0270   0.3587   0.5233  -0.5366   0.8159  -1.0728  -1.2056
   8 Cl  :2pz   -0.0072  -0.0000   0.0072  -0.0211   0.0000   0.2224   0.4125
   9 Cl  :2pz    0.0173  -0.0520  -0.0935   0.1000  -0.0943   2.3213   0.1055
  10 Cl  :3d0   -0.0014  -0.0112  -0.0392  -0.0392  -0.0375   0.0760  -0.0444
  11 Cl  :3d2+  -0.0185   0.0032  -0.0169  -0.0738  -0.0707  -0.0188   0.0754
  12 Cl  :3d0   -0.0012  -0.0120  -0.0495  -0.0505  -0.0623   0.2134  -0.2792
  13 Cl  :3d2+  -0.0150   0.0075  -0.0371  -0.0626  -0.0742   0.2583  -0.1214
  14 Cl  :4f0    0.0060   0.0011   0.0036   0.0104   0.0200  -0.0298   0.0583
  15 Cl  :4f2+   0.0107  -0.0022  -0.0045   0.0110   0.0180  -0.0465   0.0887
  16 O1  :1s     0.0229  -0.0077   0.0020  -0.0007   0.0128  -0.0501  -0.0080
  17 O1  :1s     0.6140  -0.2675   0.1313   0.0640   0.2178  -0.0884  -0.1490
  18 O1  :1s    -0.0038  -0.0018   0.0043  -0.0045  -0.0032   0.0117   0.0275
  19 O1  :1s    -0.0099  -0.0495   0.0689  -0.0017   0.0875   1.1080  -0.9281
  20 O1  :2py    0.0334  -0.0382   0.3905  -0.1568  -0.7679   0.0628  -0.1483
  21 O1  :2pz   -0.0357   0.2011   0.2627   0.5479  -0.0583  -0.0519   0.0973
  22 O1  :2py   -0.0064   0.0035   0.0016  -0.0050   0.0072   0.0108   0.0508
  23 O1  :2pz    0.0040   0.0007   0.0036   0.0031   0.0230   0.0346  -0.0565
  24 O1  :2py    0.0143   0.0180  -0.0184   0.0044   0.1818  -0.6249   0.7020
  25 O1  :2pz   -0.0154  -0.0184   0.0148   0.0381   0.0571   0.1074  -0.3724
  29 O1  :3d1-  -0.0030  -0.0099   0.0016  -0.0209  -0.0159  -0.0310   0.1272
  30 O1  :3d0    0.0001   0.0053   0.0180   0.0069   0.0027  -0.0202  -0.0054
  31 O1  :3d2+  -0.0026  -0.0015   0.0181  -0.0085   0.0042  -0.0670   0.1175
  35 O1  :4f2+  -0.0012  -0.0014   0.0019  -0.0035  -0.0029  -0.0040   0.0112

 Molecular orbitals for symmetry species  2
 ------------------------------------------

    Orbital         1        2        3        4        5
   1 Cl  :2px    1.0010  -0.0077   0.0222  -0.3726   0.1106
   2 Cl  :2px    0.0069   0.8249   0.7486  -1.8175   0.4836
   3 Cl  :2px   -0.0019  -0.0005  -0.0084   0.4587  -0.1381
   4 Cl  :2px   -0.0015  -0.0977   0.0142   2.0910  -0.6139
   5 Cl  :3d1+  -0.0011  -0.0205   0.0334   0.0615   0.1889
   6 Cl  :3d1+   0.0004  -0.0204   0.0504   0.1787   0.8289
   7 Cl  :4f1+   0.0000   0.0024  -0.0030  -0.0035  -0.0116
   8 Cl  :4f3+  -0.0002  -0.0143   0.0171   0.0032  -0.0236
   9 O1  :2px    0.0030   0.3446  -0.5993  -0.0447   0.2353
  10 O1  :2px    0.0002   0.0072  -0.0017  -0.0061   0.0817
  11 O1  :2px   -0.0003  -0.0203  -0.0587  -0.1158  -0.0498
  14 O1  :3d2-  -0.0003  -0.0180   0.0081   0.0312   0.0345
  15 O1  :3d1+   0.0001   0.0110  -0.0048  -0.0085   0.0363

 Molecular orbitals for symmetry species  3
 ------------------------------------------

    Orbital         2        3        4        5        6        7        8
   1 Cl  :2py    0.9980  -0.0329  -0.0324   0.0232   0.0665   0.0068  -0.6375
   2 Cl  :2py    0.0044   0.0846   0.5655  -0.3437   1.1325  -0.3749  -2.5434
   3 Cl  :2py    0.0028   0.0157   0.0177  -0.0245  -0.0228  -0.0557   0.7775
   4 Cl  :2py   -0.0021  -0.0291  -0.1049   0.1596  -0.1403   2.7414   0.5859
   5 Cl  :3d1-  -0.0019  -0.0280   0.0004   0.0807   0.0781   0.0407   0.0699
   6 Cl  :3d1-   0.0018  -0.0239   0.0244   0.0672   0.0906  -0.5863   0.6512
   7 Cl  :4f3-  -0.0004  -0.0066  -0.0132  -0.0007   0.0088  -0.0503   0.0521
   8 Cl  :4f1-  -0.0003   0.0031  -0.0193  -0.0229  -0.0020   0.0356  -0.0119
   9 O1  :1s    -0.0001   0.0237  -0.0020   0.0025  -0.0127   0.0486   0.0080
  10 O1  :1s     0.0045   0.6765  -0.0594   0.0062  -0.2386   0.0524   0.2321
  11 O1  :1s    -0.0001  -0.0040  -0.0053   0.0047  -0.0026  -0.0040  -0.0248
  12 O1  :1s     0.0001   0.0036  -0.0841   0.0292  -0.1267  -1.5928   0.8356
  13 O1  :2py   -0.0012   0.0646  -0.0160   0.6050   0.2923  -0.2239   0.0738
  14 O1  :2pz    0.0075  -0.0417   0.5316   0.1660  -0.6524   0.0248  -0.1292
  15 O1  :2py   -0.0003  -0.0085   0.0028   0.0069   0.0268   0.0531   0.0481
  16 O1  :2pz    0.0002   0.0055   0.0037   0.0023   0.0275  -0.0148  -0.0776
  17 O1  :2py   -0.0002   0.0105   0.0314   0.0013  -0.0181   0.5714  -1.2479
  18 O1  :2pz    0.0003  -0.0052  -0.0010   0.0260   0.2070  -0.5280   0.8503
  19 O1  :3d1-  -0.0002  -0.0011  -0.0061   0.0046   0.0013  -0.0034   0.0235
  21 O1  :3d2+  -0.0001  -0.0009  -0.0019   0.0058   0.0009  -0.0028   0.0196
  22 O1  :3d1-  -0.0004  -0.0029  -0.0208   0.0101  -0.0008   0.0936  -0.0998
  23 O1  :3d0    0.0001  -0.0001   0.0132   0.0147   0.0070   0.0124  -0.0160
  24 O1  :3d2+  -0.0001  -0.0028  -0.0032   0.0202   0.0103   0.0695  -0.0871
  28 O1  :4f2+   0.0001  -0.0013  -0.0037   0.0035   0.0023   0.0060  -0.0115

 Molecular orbitals for symmetry species  4
 ------------------------------------------

    Orbital         1        2        3
   1 Cl  :3d2-   0.0634   0.2252  -0.0172
   2 Cl  :3d2-   0.0853   0.8915  -0.3204
   3 Cl  :4f2-  -0.0220   0.0130   0.0638
   4 O1  :2px    0.6408  -0.2779  -0.4006
   5 O1  :2px    0.0052  -0.0576  -0.3299
   6 O1  :2px    0.0369  -0.0637   1.1302
   9 O1  :3d2-  -0.0200  -0.0151   0.0147
  10 O1  :3d1+   0.0129   0.0503   0.0029

 Printout of CI-coefficients abs greater than 0.05000 for root  1
 *** NOTE: this root is the reference state ***

 Printout of coefficients in interval  3.1623E-01 to  1.0000E+00
 ===============================================================

  Coefficient of CSF no.        29 is      0.95885302    9.58853023E-01
  Orbital          1   2   3   4   6   8   9  10  12   7
  Spin coupling    2   2   2   2   2   2   2   2   2   1

 Printout of coefficients in interval  1.0000E-01 to  3.1623E-01
 ===============================================================

  Coefficient of CSF no.       116 is      0.14736802    1.47368020E-01
  Orbital          1   2   3   4   6   7   8   9   5  10  12
  Spin coupling    2   2   2   2   2   2   2   2   1  -1   1

  Coefficient of CSF no.       204 is      0.11374332    1.13743320E-01
  Orbital          1   2   3   6   7   8   9  10   4  11  12
  Spin coupling    2   2   2   2   2   2   2   2   1  -1   1

 Printout of coefficients in interval  5.0000E-02 to  1.0000E-01
 ===============================================================

  Coefficient of CSF no.        21 is     -0.07777332   -7.77733234E-02
  Orbital          1   2   3   4   5   6   8   9  12   7
  Spin coupling    2   2   2   2   2   2   2   2   2   1

  Coefficient of CSF no.        31 is     -0.05092513   -5.09251314E-02
  Orbital          1   2   4   5   6   8   9  10  12   7
  Spin coupling    2   2   2   2   2   2   2   2   2   1

  Coefficient of CSF no.        91 is     -0.05592330   -5.59232966E-02
  Orbital          1   2   3   6   8   9  10  11  12   7
  Spin coupling    2   2   2   2   2   2   2   2   2   1

  Coefficient of CSF no.      1457 is     -0.07192116   -7.19211582E-02
  Orbital          1   2   3   6   8   9  12   4   5   7  10  11
  Spin coupling    2   2   2   2   2   2   2   1   1   1  -1  -1

 Norm of printed CI vector ..      0.97099612

 Magnitude of CI coefficients
 ============================
 ( Ranges are relative to norm of vector :  1.00E+00 )

  10- 1 to 10- 0         3    0.95405400E+00      0.9540539957
  10- 2 to 10- 1        51    0.41830744E-01      0.9958847395
  10- 3 to 10- 2       280    0.39608697E-02      0.9998456092
  10- 4 to 10- 3       865    0.15262523E-03      0.9999982344
  10- 5 to 10- 4       698    0.17586478E-05      0.9999999931
  10- 6 to 10- 5       187    0.69087071E-08      1.0000000000
  10- 7 to 10- 6        19    0.57024034E-11      1.0000000000
  10- 8 to 10- 7         3    0.61648594E-14      1.0000000000
  Number of coefficients less than 10^-11 times norm is            0



 >>>> Total CPU  time used in SIRIUS :      7.51 seconds
 >>>> Total wall time used in SIRIUS :      7.74 seconds

 
     Date and time (Linux)  : Sun Sep  8 20:49:11 2013
     Host name              : lpqlx131.ups-tlse.fr                    


                     .---------------------------------------.
                     | End of Wave Function Section (SIRIUS) |
                     `---------------------------------------'



        *****************************************************************
        ******** Output from **PROPE input processing for ABACUS ********
        *****************************************************************



 The following molecular properties will be calculated in this run:
 ------------------------------------------------------------------

 Default print level:        0

      Nuclear quadrupole moments
      Natural orbital connection is used
      for perturbation dependent basis sets.

 Center of mass dipole origin  :    0.000000    0.000000    0.310519

 Center of mass gauge origin   :    0.000000    0.000000    0.310519


                 .------------------------------------------------.
                 | Starting in Static Property Section (ABACUS) - |
                 `------------------------------------------------'


 
     Date and time (Linux)  : Sun Sep  8 20:49:11 2013
     Host name              : lpqlx131.ups-tlse.fr                    


   ***************************************************************************
   ************************ FINAL RESULTS from ABACUS ************************
   ***************************************************************************


 
     Date and time (Linux)  : Sun Sep  8 20:49:11 2013
     Host name              : lpqlx131.ups-tlse.fr                    


                             Molecular geometry (au)
                             -----------------------

 Cl         0.0000000000            0.0000000000            1.0000000000
 O1  _1     0.0000000000            2.3736000000           -0.4431700000
 O1  _2     0.0000000000           -2.3736000000           -0.4431700000





                        Molecular wave function and energy
                        ----------------------------------

     Spin multiplicity  2     State number       1     Total charge       0

     Total energy       -609.1655896242 au (Hartrees)
                        -16576.23890675 eV
                          -1599364.0090 kJ/mol


                             Relativistic corrections
                             ------------------------

     Darwin correction:                          4.9133749959 au
     Mass-velocity correction:                  -6.4195854561 au

     Total relativistic correction:             -1.5062104602 au (0.2473%)
     Non-relativistic + relativistic energy:  -610.6718000844 au




                                  Dipole moment
                                  -------------

                 au               Debye          C m (/(10**-30)
              0.773079           1.964970           6.554436


                             Dipole moment components
                             ------------------------

                 au               Debye          C m (/(10**-30)

      z      0.77307891         1.96497048         6.55443599


   Units:   1 a.u. =   2.54175 Debye 
            1 a.u. =   8.47835 (10**-30) C m (SI)




      *********************************************************************
      **************** ABACUS - Nuclear Quadrupole moments ****************
      *********************************************************************

 String on input: "Cl      "
 String on input: "Cl      "
 String on input: "O1  _1  "
 String on input: "O1__1   "
 String on input: "O1  _2  "
 String on input: "O1__2   "


                         Nuclear quadrupole moment for Cl
                         --------------------------------

          Spin     :  1.5          Quadrupole moment:-.08165000
                            au           MHz        Gauss
 Cl     35    Vx =      -0.272184     5.221808     1.865432
 Cl     35    Vy =      -2.394395    45.936168    16.410175
 Cl     35    Vz =       2.666579   -51.157975   -18.275606
                 Asymmetry constant eta:      0.795856
                 Auxiliary value au  1/T  0.574132D-02
          Spin     :  1.5          Quadrupole moment:-.06435000
                            au           MHz        Gauss
 Cl     37    Vx =      -0.272184     4.115411     1.470184
 Cl     37    Vy =      -2.394395    36.203214    12.933187
 Cl     37    Vz =       2.666579   -40.318625   -14.403371
                 Asymmetry constant eta:      0.795856
                 Auxiliary value au  1/T  0.356612D-02


                       Nuclear quadrupole moment for O1  _1
                       ------------------------------------

          Spin     :  2.5          Quadrupole moment:-.02558000
                            au           MHz        Gauss
 O1  _1 17    Vx =      -0.494790     2.973887     1.062387
 O1  _1 17    Vy =      -1.185851     7.127439     2.546197
 O1  _1 17    Vz =       1.680642   -10.101326    -3.608584
                 Asymmetry constant eta:      0.411189
                 Auxiliary value au  1/T  0.468569D-04


                       Nuclear quadrupole moment for O1  _2
                       ------------------------------------

          Spin     :  2.5          Quadrupole moment:-.02558000
                            au           MHz        Gauss
 O1  _2 17    Vx =      -0.494790     2.973887     1.062387
 O1  _2 17    Vy =      -1.185851     7.127439     2.546197
 O1  _2 17    Vz =       1.680642   -10.101326    -3.608584
                 Asymmetry constant eta:      0.411189
                 Auxiliary value au  1/T  0.468569D-04


   Interatomic separations (in Angstrom):
   --------------------------------------

            Cl          O1  _1      O1  _2
            ------      ------      ------
 Cl    :    0.000000
 O1  _1:    1.470000    0.000000
 O1  _2:    1.470000    2.512110    0.000000


  Max    interatomic separation is    2.5121 Angstrom (    4.7472 Bohr)
  between atoms    3 and    2, "O1  _2" and "O1  _1".

  Min YX interatomic separation is    1.4700 Angstrom (    2.7779 Bohr)


  Bond distances (Angstrom):
  --------------------------

                  atom 1     atom 2       distance
                  ------     ------       --------
  bond distance:  O1  _1     Cl           1.470000
  bond distance:  O1  _2     Cl           1.470000


  Bond angles (degrees):
  ----------------------

                  atom 1     atom 2     atom 3         angle
                  ------     ------     ------         -----
  bond angle:     O1  _1     Cl         O1  _2       117.400




 CPU time statistics for ABACUS
 ------------------------------




 >>>> Total CPU  time used in ABACUS:   0.06 seconds
 >>>> Total wall time used in ABACUS:   0.06 seconds


                   .-------------------------------------------.
                   | End of Static Property Section (ABACUS) - |
                   `-------------------------------------------'

 >>>> Total CPU  time used in DALTON:   8.82 seconds
 >>>> Total wall time used in DALTON:   9.07 seconds

 
     Date and time (Linux)  : Sun Sep  8 20:49:11 2013
     Host name              : lpqlx131.ups-tlse.fr                    
