

     ************************************************************************
     *************** Dalton - An Electronic Structure Program ***************
     ************************************************************************

    This is output from DALTON 2016.alpha
   ----------------------------------------------------------------------------
    NOTE:
     
    Dalton is an experimental code for the evaluation of molecular
    properties using (MC)SCF, DFT, CI, and CC wave functions.
    The authors accept no responsibility for the performance of
    the code or for the correctness of the results.
     
    The code (in whole or part) is provided under a licence and
    is not to be reproduced for further distribution without
    the written permission of the authors or their representatives.
     
    See the home page "http://daltonprogram.org" for further information.
     
    If results obtained with this code are published,
    the appropriate citations would be both of:
     
       K. Aidas, C. Angeli, K. L. Bak, V. Bakken, R. Bast,
       L. Boman, O. Christiansen, R. Cimiraglia, S. Coriani,
       J. Cukras, P. Dahle, E. K. Dalskov, U. Ekstroem,
       T. Enevoldsen, J. J. Eriksen, P. Ettenhuber, B. Fernandez,
       L. Ferrighi, H. Fliegl, L. Frediani, K. Hald, A. Halkier,
       C. Haettig, H. Heiberg, T. Helgaker, A. C. Hennum,
       H. Hettema, E. Hjertenaes, S. Hoest, I.-M. Hoeyvik,
       M. F. Iozzi, B. Jansik, H. J. Aa. Jensen, D. Jonsson,
       P. Joergensen, M. Kaminski, J. Kauczor, S. Kirpekar,
       T. Kjaergaard, W. Klopper, S. Knecht, R. Kobayashi, H. Koch,
       J. Kongsted, A. Krapp, K. Kristensen, A. Ligabue,
       O. B. Lutnaes, J. I. Melo, K. V. Mikkelsen, R. H. Myhre,
       C. Neiss, C. B. Nielsen, P. Norman, J. Olsen,
       J. M. H. Olsen, A. Osted, M. J. Packer, F. Pawlowski,
       T. B. Pedersen, P. F. Provasi, S. Reine, Z. Rinkevicius,
       T. A. Ruden, K. Ruud, V. Rybkin, P. Salek, C. C. M. Samson,
       A. Sanchez de Meras, T. Saue, S. P. A. Sauer,
       B. Schimmelpfennig, K. Sneskov, A. H. Steindal,
       K. O. Sylvester-Hvid, P. R. Taylor, A. M. Teale,
       E. I. Tellgren, D. P. Tew, A. J. Thorvaldsen, L. Thoegersen,
       O. Vahtras, M. A. Watson, D. J. D. Wilson, M. Ziolkowski
       and H. Agren,
       "The Dalton quantum chemistry program system",
       WIREs Comput. Mol. Sci. 2013. (doi: 10.1002/wcms.1172)
    
    and
    
       Dalton, a Molecular Electronic Structure Program,
       Release Dalton2016.alpha (2015), see http://daltonprogram.org
   ----------------------------------------------------------------------------

    Authors in alphabetical order (major contribution(s) in parenthesis):

  Kestutis Aidas,           Vilnius University,           Lithuania   (QM/MM)
  Celestino Angeli,         University of Ferrara,        Italy       (NEVPT2)
  Keld L. Bak,              UNI-C,                        Denmark     (AOSOPPA, non-adiabatic coupling, magnetic properties)
  Vebjoern Bakken,          University of Oslo,           Norway      (DALTON; geometry optimizer, symmetry detection)
  Radovan Bast,             KTH Stockholm,                Sweden      (DALTON installation and execution frameworks)
  Pablo Baudin,             University of Valencia,       Spain       (Cholesky excitation energies)
  Linus Boman,              NTNU,                         Norway      (Cholesky decomposition and subsystems)
  Ove Christiansen,         Aarhus University,            Denmark     (CC module)
  Renzo Cimiraglia,         University of Ferrara,        Italy       (NEVPT2)
  Sonia Coriani,            University of Trieste,        Italy       (CC module, MCD in RESPONS)
  Janusz Cukras,            University of Trieste,        Italy       (MChD in RESPONS)
  Paal Dahle,               University of Oslo,           Norway      (Parallelization)
  Erik K. Dalskov,          UNI-C,                        Denmark     (SOPPA)
  Thomas Enevoldsen,        Univ. of Southern Denmark,    Denmark     (SOPPA)
  Janus J. Eriksen,         Aarhus University,            Denmark     (Polarizable embedding model, TDA)
  Berta Fernandez,          U. of Santiago de Compostela, Spain       (doublet spin, ESR in RESPONS)
  Lara Ferrighi,            Aarhus University,            Denmark     (PCM Cubic response)
  Heike Fliegl,             University of Oslo,           Norway      (CCSD(R12))
  Luca Frediani,            UiT The Arctic U. of Norway,  Norway      (PCM)
  Bin Gao,                  UiT The Arctic U. of Norway,  Norway      (Gen1Int library)
  Christof Haettig,         Ruhr-University Bochum,       Germany     (CC module)
  Kasper Hald,              Aarhus University,            Denmark     (CC module)
  Asger Halkier,            Aarhus University,            Denmark     (CC module)
  Erik D. Hedegaard,        Univ. of Southern Denmark,    Denmark     (Polarizable embedding model, QM/MM)
  Hanne Heiberg,            University of Oslo,           Norway      (geometry analysis, selected one-electron integrals)
  Trygve Helgaker,          University of Oslo,           Norway      (DALTON; ABACUS, ERI, DFT modules, London, and much more)
  Alf Christian Hennum,     University of Oslo,           Norway      (Parity violation)
  Hinne Hettema,            University of Auckland,       New Zealand (quadratic response in RESPONS; SIRIUS supersymmetry)
  Eirik Hjertenaes,         NTNU,                         Norway      (Cholesky decomposition)
  Maria Francesca Iozzi,    University of Oslo,           Norway      (RPA)
  Brano Jansik              Technical Univ. of Ostrava    Czech Rep.  (DFT cubic response)
  Hans Joergen Aa. Jensen,  Univ. of Southern Denmark,    Denmark     (DALTON; SIRIUS, RESPONS, ABACUS modules, London, and much more)
  Dan Jonsson,              UiT The Arctic U. of Norway,  Norway      (cubic response in RESPONS module)
  Poul Joergensen,          Aarhus University,            Denmark     (RESPONS, ABACUS, and CC modules)
  Maciej Kaminski,          University of Warsaw,         Poland      (CPPh in RESPONS)
  Joanna Kauczor,           Linkoeping University,        Sweden      (Complex polarization propagator (CPP) module)
  Sheela Kirpekar,          Univ. of Southern Denmark,    Denmark     (Mass-velocity & Darwin integrals)
  Wim Klopper,              KIT Karlsruhe,                Germany     (R12 code in CC, SIRIUS, and ABACUS modules)
  Stefan Knecht,            ETH Zurich,                   Switzerland (Parallel CI and MCSCF)
  Rika Kobayashi,           Australian National Univ.,    Australia   (DIIS in CC, London in MCSCF)
  Henrik Koch,              NTNU,                         Norway      (CC module, Cholesky decomposition)
  Jacob Kongsted,           Univ. of Southern Denmark,    Denmark     (Polarizable embedding model, QM/MM)
  Andrea Ligabue,           University of Modena,         Italy       (CTOCD, AOSOPPA)
  Nanna H. List             Univ. of Southern Denmark,    Denmark     (Polarizable embedding model)
  Ola B. Lutnaes,           University of Oslo,           Norway      (DFT Hessian)
  Juan I. Melo,             University of Buenos Aires,   Argentina   (LRESC, Relativistic Effects on NMR Shieldings)
  Kurt V. Mikkelsen,        University of Copenhagen,     Denmark     (MC-SCRF and QM/MM)
  Rolf H. Myhre,            NTNU,                         Norway      (Cholesky, subsystems and ECC2)
  Christian Neiss,          Univ. Erlangen-Nuernberg,     Germany     (CCSD(R12))
  Christian B. Nielsen,     University of Copenhagen,     Denmark     (QM/MM)
  Patrick Norman,           Linkoeping University,        Sweden      (Cubic response and complex response in RESPONS)
  Jeppe Olsen,              Aarhus University,            Denmark     (SIRIUS CI/density modules)
  Jogvan Magnus H. Olsen,   Univ. of Southern Denmark,    Denmark     (Polarizable embedding model, QM/MM)
  Anders Osted,             Copenhagen University,        Denmark     (QM/MM)
  Martin J. Packer,         University of Sheffield,      UK          (SOPPA)
  Filip Pawlowski,          Kazimierz Wielki University,  Poland      (CC3)
  Morten N. Pedersen,       Univ. of Southern Denmark,    Denmark     (Polarizable embedding model)
  Thomas B. Pedersen,       University of Oslo,           Norway      (Cholesky decomposition)
  Patricio F. Provasi,      University of Northeastern,   Argentina   (Analysis of coupling constants in localized orbitals)
  Zilvinas Rinkevicius,     KTH Stockholm,                Sweden      (open-shell DFT, ESR)
  Elias Rudberg,            KTH Stockholm,                Sweden      (DFT grid and basis info)
  Torgeir A. Ruden,         University of Oslo,           Norway      (Numerical derivatives in ABACUS)
  Kenneth Ruud,             UiT The Arctic U. of Norway,  Norway      (DALTON; ABACUS magnetic properties and much more)
  Pawel Salek,              KTH Stockholm,                Sweden      (DALTON; DFT code)
  Claire C. M. Samson       University of Karlsruhe       Germany     (Boys localization, r12 integrals in ERI)
  Alfredo Sanchez de Meras, University of Valencia,       Spain       (CC module, Cholesky decomposition)
  Trond Saue,               Paul Sabatier University,     France      (direct Fock matrix construction)
  Stephan P. A. Sauer,      University of Copenhagen,     Denmark     (SOPPA(CCSD), SOPPA prop., AOSOPPA, vibrational g-factors)
  Bernd Schimmelpfennig,    Forschungszentrum Karlsruhe,  Germany     (AMFI module)
  Kristian Sneskov,         Aarhus University,            Denmark     (Polarizable embedding model, QM/MM)
  Arnfinn H. Steindal,      UiT The Arctic U. of Norway,  Norway      (parallel QM/MM, Polarizable embedding model)
  Casper Steinmann,         Univ. of Southern Denmark,    Denmark     (QFIT, Polarizable embedding model)
  K. O. Sylvester-Hvid,     University of Copenhagen,     Denmark     (MC-SCRF)
  Peter R. Taylor,          VLSCI/Univ. of Melbourne,     Australia   (Symmetry handling ABACUS, integral transformation)
  Andrew M. Teale,          University of Nottingham,     England     (DFT-AC, DFT-D)
  David P. Tew,             University of Bristol,        England     (CCSD(R12))
  Olav Vahtras,             KTH Stockholm,                Sweden      (triplet response, spin-orbit, ESR, TDDFT, open-shell DFT)
  David J. Wilson,          La Trobe University,          Australia   (DFT Hessian and DFT magnetizabilities)
  Hans Agren,               KTH Stockholm,                Sweden      (SIRIUS module, RESPONS, MC-SCRF solvation model)
 --------------------------------------------------------------------------------

     Date and time (Linux)  : Mon May 18 11:11:25 2015
     Host name              : spongebob                               

 * Work memory size             :    64000000 =  488.28 megabytes.

 * Directories for basis set searches:
   1) /home/roberto/Workspace/dalton/DALTON/test/extpcm
   2) /home/roberto/Workspace/dalton/build/basis


Compilation information
-----------------------

 Who compiled             | roberto
 Host                     | spongebob
 System                   | Linux-3.16.0-37-generic
 CMake generator          | Unix Makefiles
 Processor                | x86_64
 64-bit integers          | OFF
 MPI                      | OFF
 Fortran compiler         | /usr/bin/gfortran
 Fortran compiler version | GNU Fortran (Ubuntu 4.9.1-16ubuntu6) 4.9.1
 C compiler               | /usr/bin/gcc
 C compiler version       | gcc (Ubuntu 4.9.1-16ubuntu6) 4.9.1
 C++ compiler             | /usr/bin/g++
 C++ compiler version     | g++ (Ubuntu 4.9.1-16ubuntu6) 4.9.1
 BLAS                     | /usr/lib/atlas-base/libf77blas.so;/usr/lib/atlas-b
                          | ase/libcblas.so;/usr/lib/atlas-base/libatlas.so
 LAPACK                   | /usr/lib/atlas-base/libatlas.so;/usr/lib/atlas-bas
                          | e/atlas/liblapack.so
 Static linking           | OFF
 Last Git revision        | cb0986207a9f55832e271eb95db63b0e39d49491
 Git branch               | pcm
 Configuration time       | 2015-05-18 10:46:06.638872


   Content of the .dal input file
 ----------------------------------

**DALTON INPUT                                    
.RUN WAVE                                         
.EXTPCM                                           
*EXTPCM                                           
.SEPARATE                                         
**WAVE FUNCTIONS                                  
.DFT                                              
 LDA                                              
**END OF DALTON INPUT                             


   Content of the .mol file
 ----------------------------

ATOMBASIS                                                                      
Water R(OH) = 0.95Aa , <HOH = 109 deg.                                         
Distance in Aangstroms                                                         
Atomtypes=2 Nosymmetry Cartesian                                               
Charge=8.0 Atoms=1 Basis=6-311++G**                                            
O      0.00000   0.00000   0.00000                                             
Charge=1.0 Atoms=2 Basis=6-311++G**                                            
H1     0.55168   0.77340   0.00000                                             
H2     0.55168  -0.77340   0.00000                                             


       *******************************************************************
       *********** Output from DALTON general input processing ***********
       *******************************************************************

 --------------------------------------------------------------------------------
   Overall default print level:    0
   Print level for DALTON.STAT:    1

    HERMIT 1- and 2-electron integral sections will be executed
    "Old" integral transformation used (limited to max 255 basis functions)
    Wave function sections will be executed (SIRIUS module)
 --------------------------------------------------------------------------------
  ===== Polarizable Continuum Model calculation set-up =====
 * Polarizable Continuum Model using PCMSolver external module:
   1: Converged potentials and charges at tesserae representative points written on file.
   2: Use point-by-point charge-attraction integrals evaluation subroutines.
   3: Separate potentials and apparent charges in nuclear and electronic.
   4: Do not print potentials and charges.


 * PCMSolver, an API for the Polarizable Continuum Model electrostatic problem. Version 1.0.3
   Main authors: R. Di Remigio, L. Frediani, K. Mozgawa
    With contributions from:
     R. Bast            (CMake framework)
     U. Ekstroem        (automatic differentiation library)
     J. Juselius        (input parsing library and CMake framework)
   Theory: - J. Tomasi, B. Mennucci and R. Cammi:
            "Quantum Mechanical Continuum Solvation Models", Chem. Rev., 105 (2005) 2999
   PCMSolver is distributed under the terms of the GNU Lesser General Public License.



   ****************************************************************************
   *************** Output of molecule and basis set information ***************
   ****************************************************************************


    The two title cards from your ".mol" input:
    ------------------------------------------------------------------------
 1: Water R(OH) = 0.95Aa , <HOH = 109 deg.                                  
 2: Distance in Aangstroms                                                  
    ------------------------------------------------------------------------

  Atomic type no.    1
  --------------------
  Nuclear charge:   8.00000
  Number of symmetry independent centers:    1
  Number of basis sets to read;    2
  The basis set is "6-311++G**" from the basis set library.
  Basis set file used for this atomic type with Z =   8 :
     "/home/roberto/Workspace/dalton/build/basis/6-311++G**"

  Info about the basis set file: your basis has no documentation.
  Basis set: 6-311++G**                                                                      

  Atomic type no.    2
  --------------------
  Nuclear charge:   1.00000
  Number of symmetry independent centers:    2
  Number of basis sets to read;    2
  The basis set is "6-311++G**" from the basis set library.
  Basis set file used for this atomic type with Z =   1 :
     "/home/roberto/Workspace/dalton/build/basis/6-311++G**"

  Info about the basis set file: your basis has no documentation.
  Basis set: 6-311++G**                                                                      


                         SYMGRP: Point group information
                         -------------------------------

@    Point group: C1 


                                 Isotopic Masses
                                 ---------------

                           O          15.994915
                           H1          1.007825
                           H2          1.007825

                       Total mass:    18.010565 amu
                       Natural abundance:  99.730 %

 Center-of-mass coordinates (a.u.):    0.061741    0.000000    0.000000


  Atoms and basis sets
  --------------------

  Number of atom types :    2
  Total number of atoms:    3

  label    atoms   charge   prim   cont     basis
  ----------------------------------------------------------------------
  O           1    8.0000    36    23      [12s6p1d|5s4p1d]                                   
  H2          2    1.0000     9     7      [6s1p|4s1p]                                        
  ----------------------------------------------------------------------
  total:      3   10.0000    54    37
  ----------------------------------------------------------------------
  Cartesian basis used.
  (Note that d, f, ... atomic GTOs are not all normalized.)

  Threshold for neglecting AO integrals:  1.00D-12


  Cartesian Coordinates (a.u.)
  ----------------------------

  Total number of coordinates:    9
  O       :     1  x   0.0000000000    2  y   0.0000000000    3  z   0.0000000000
  H1      :     4  x   0.5516800000    5  y   0.7734000000    6  z   0.0000000000
  H2      :     7  x   0.5516800000    8  y  -0.7734000000    9  z   0.0000000000


   Interatomic separations (in Angstrom):
   --------------------------------------

            O           H1          H2    
            ------      ------      ------
 O     :    0.000000
 H1    :    0.502718    0.000000
 H2    :    0.502718    0.818531    0.000000


  Max    interatomic separation is    0.8185 Angstrom (    1.5468 Bohr)
  between atoms    3 and    2, "H2    " and "H1    ".

  Min HX interatomic separation is    0.5027 Angstrom (    0.9500 Bohr)

@ WARNING: Number of short HX and YX bond lengths:    2    0
@ WARNING: If not intentional, maybe your coordinates were in Angstrom,
@ WARNING: but "Angstrom" was not specified in .mol file


  Bond distances (Angstrom):
  --------------------------

                  atom 1     atom 2       distance
                  ------     ------       --------
  bond distance:  H1         O            0.502718
  bond distance:  H2         O            0.502718
  bond distance:  H2         H1           0.818531


  Bond angles (degrees):
  ----------------------

                  atom 1     atom 2     atom 3         angle
                  ------     ------     ------         -----
  bond angle:     H1         O          H2           108.998
  bond angle:     O          H1         H2            35.501
  bond angle:     O          H2         H1            35.501




 Principal moments of inertia (u*A**2) and principal axes
 --------------------------------------------------------

   IA       0.152562          0.000000    1.000000    0.000000
   IB       0.337618          1.000000    0.000000    0.000000
   IC       0.490180          0.000000    0.000000    1.000000


 Rotational constants
 --------------------

@    The molecule is planar.

               A                   B                   C

        3312613.2088        1496895.4656        1031006.7051 MHz
          110.496883           49.931058           34.390682 cm-1


@  Nuclear repulsion energy :   17.488616348415 Hartree


~~~~~~~~~~ PCMSolver ~~~~~~~~~~
Using CODATA 2010 set of constants.
Input parsing done API-side
========== Cavity 
Cavity type: GePol
Average area = 1.07132 AU^2
Probe radius = 2.61727 AU
Number of spheres = 3 [initial = 3; added = 0]
Number of finite elements = 164
========== Solver 
Solver Type: IEFPCM, isotropic
PCM matrix hermitivitized
============ Medium 
Medium initialized from solvent built-in data.
Solvent name:          Water
Static  permittivity = 78.39
Optical permittivity = 1.776
Solvent radius =       1.385
.... Inside 
Green's function type: vacuum
.... Outside 
Green's function type: uniform dielectric
Permittivity = 78.39


 PCMSolver interface correctly initialized


                     .---------------------------------------.
                     | Starting in Integral Section (HERMIT) |
                     `---------------------------------------'



 ***************************************************************************************
 ****************** Output from **INTEGRALS input processing (HERMIT) ******************
 ***************************************************************************************


 - Using defaults, no **INTEGRALS input found

 Default print level:        1

 * Nuclear model: Point charge

 Calculation of one- and two-electron Hamiltonian integrals.

 Center of mass  (bohr):      0.061741194238      0.000000000000      0.000000000000
 Operator center (bohr):      0.000000000000      0.000000000000      0.000000000000
 Gauge origin    (bohr):      0.000000000000      0.000000000000      0.000000000000
 Dipole origin   (bohr):      0.000000000000      0.000000000000      0.000000000000


     ************************************************************************
     ************************** Output from HERINT **************************
     ************************************************************************


 Threshold for neglecting two-electron integrals:  1.00D-12
 HERMIT - Number of two-electron integrals written:      121685 ( 49.2% )
 HERMIT - Megabytes written:                              1.395

 >>>> Total CPU  time used in HERMIT:   0.09 seconds
 >>>> Total wall time used in HERMIT:   0.09 seconds


                        .----------------------------------.
                        | End of Integral Section (HERMIT) |
                        `----------------------------------'



                   .--------------------------------------------.
                   | Starting in Wave Function Section (SIRIUS) |
                   `--------------------------------------------'


 *** Output from Huckel module :

     Using EWMO model:          T
     Using EHT  model:          F
     Number of Huckel orbitals each symmetry:    7

 EWMO - Energy Weighted Maximum Overlap - is a Huckel type method,
        which normally is better than Extended Huckel Theory.
 Reference: Linderberg and Ohrn, Propagators in Quantum Chemistry (Wiley, 1973)

 Huckel EWMO eigenvalues for symmetry :  1
          -20.705062      -1.945824      -0.739359      -0.648877      -0.616200
           -0.087290      -0.037290

 **********************************************************************
 *SIRIUS* a direct, restricted step, second order MCSCF program       *
 **********************************************************************

 
     Date and time (Linux)  : Mon May 18 11:11:26 2015
     Host name              : spongebob                               

 Title lines from ".mol" input file:
     Water R(OH) = 0.95Aa , <HOH = 109 deg.                                  
     Distance in Aangstroms                                                  

 Print level on unit LUPRI =   2 is   0
 Print level on unit LUW4  =   2 is   5

@    Restricted, closed shell Kohn-Sham DFT calculation.

 Initial molecular orbitals are obtained according to
 ".MOSTART EWMO  " input option

     Wave function specification
     ============================
@    Wave function type        >>> KS-DFT <<<
@    Number of closed shell electrons          10
@    Number of electrons in active shells       0
@    Total charge of the molecule               0

@    Spin multiplicity and 2 M_S                1         0
@    Total number of symmetries                 1 (point group: C1 )
@    Reference state symmetry                   1 (irrep name : A  )
 
     This is a DFT calculation of type: LDA

     Orbital specifications
     ======================
@    Abelian symmetry species          All |    1
@                                          |  A  
                                       --- |  ---
@    Occupied SCF orbitals               5 |    5
@    Secondary orbitals                 32 |   32
@    Total number of orbitals           37 |   37
@    Number of basis functions          37 |   37

     Optimization information
     ========================
@    Number of configurations                 1
@    Number of orbital rotations            160
     ------------------------------------------
@    Total number of variables              161

     Maximum number of Fock   iterations      0
     Maximum number of DIIS   iterations     60
     Maximum number of QC-SCF iterations     60
     Threshold for SCF convergence     1.00D-05
 
     This is a DFT calculation of type: LDA


 ***********************************************
 ***** DIIS acceleration of SCF iterations *****
 ***********************************************

 C1-DIIS algorithm; max error vectors =    8

 Iter      Total energy       Solvation energy    Error norm    Delta(E)
 -----------------------------------------------------------------------------
      K-S energy, electrons, error :     -8.992557379569  10.0000003226    3.23D-07
Polarization energy components
  U_ee =   -14.18737364682726
  U_en =    14.21194829188510
  U_ne =    14.21194829188510
  U_nn =   -14.24259735261754
  U_en - U_ne = 3.55271367880050E-15

@  1  -73.7096526914     -6.074415674602E-03    4.41019D+00   -7.37D+01
      Virial theorem: -V/T =      1.952372
@      MULPOP O      -0.84; H1      0.42; H2      0.42; 
 -----------------------------------------------------------------------------
      K-S energy, electrons, error :     -9.973383171622  10.0000003352    3.35D-07
Polarization energy components
  U_ee =   -14.23365115125376
  U_en =    14.23651703753356
  U_ne =    14.23651703753356
  U_nn =   -14.24259735261754
  U_en - U_ne = 1.06581410364015E-14

@  2  -74.1461478286     -3.214428804176E-03    2.67334D+00   -4.36D-01
      Virial theorem: -V/T =      1.883911
@      MULPOP O       0.27; H1     -0.14; H2     -0.14; 
 -----------------------------------------------------------------------------
      K-S energy, electrons, error :     -9.223662121375  10.0000003182    3.18D-07
Polarization energy components
  U_ee =   -14.19799224739855
  U_en =    14.21670149838640
  U_ne =    14.21670149838640
  U_nn =   -14.24259735261754
  U_en - U_ne = 0.00000000000000E+00

@  3  -74.3370452794     -7.186603243303E-03    1.18193D+00   -1.91D-01
      Virial theorem: -V/T =      1.951189
@      MULPOP O       0.25; H1     -0.13; H2     -0.13; 
 -----------------------------------------------------------------------------
      K-S energy, electrons, error :     -9.495373272196  10.0000003236    3.24D-07
Polarization energy components
  U_ee =   -14.21912701096526
  U_en =    14.22740711932765
  U_ne =    14.22740711932764
  U_nn =   -14.24259735261754
  U_en - U_ne = 7.10542735760100E-15

@  4  -74.3817656502     -6.910124927506E-03    2.07482D-01   -4.47D-02
      Virial theorem: -V/T =      1.927650
@      MULPOP O       0.12; H1     -0.06; H2     -0.06; 
 -----------------------------------------------------------------------------
      K-S energy, electrons, error :     -9.454971623655  10.0000003230    3.23D-07
Polarization energy components
  U_ee =   -14.21613291766945
  U_en =    14.22597914109462
  U_ne =    14.22597914109461
  U_nn =   -14.24259735261754
  U_en - U_ne = 7.10542735760100E-15

@  5  -74.3833906633     -6.771988097759E-03    9.99370D-03   -1.63D-03
      Virial theorem: -V/T =      1.930915
@      MULPOP O       0.14; H1     -0.07; H2     -0.07; 
 -----------------------------------------------------------------------------
      K-S energy, electrons, error :     -9.455973019923  10.0000003231    3.23D-07
Polarization energy components
  U_ee =   -14.21614591854780
  U_en =    14.22597918161699
  U_ne =    14.22597918161699
  U_nn =   -14.24259735261754
  U_en - U_ne = 0.00000000000000E+00

@  6  -74.3833934061     -6.784907931364E-03    1.98375D-03   -2.74D-06
      Virial theorem: -V/T =      1.930818
@      MULPOP O       0.14; H1     -0.07; H2     -0.07; 
 -----------------------------------------------------------------------------
      K-S energy, electrons, error :     -9.456408843217  10.0000003231    3.23D-07
Polarization energy components
  U_ee =   -14.21617511132683
  U_en =    14.22599466668716
  U_ne =    14.22599466668716
  U_nn =   -14.24259735261754
  U_en - U_ne = 0.00000000000000E+00

@  7  -74.3833935605     -6.783130570046E-03    1.56938D-05   -1.54D-07
      Virial theorem: -V/T =      1.930784
@      MULPOP O       0.14; H1     -0.07; H2     -0.07; 
 -----------------------------------------------------------------------------
      K-S energy, electrons, error :     -9.456407789766  10.0000003231    3.23D-07
Polarization energy components
  U_ee =   -14.21617475919501
  U_en =    14.22599445651192
  U_ne =    14.22599445651192
  U_nn =   -14.24259735261754
  U_en - U_ne = 0.00000000000000E+00

@  8  -74.3833935605     -6.783198788707E-03    4.27445D-06   -6.17D-12

@ *** DIIS converged in   8 iterations !
@     Converged SCF energy, gradient:    -74.383393560459    4.27D-06
    - total time used in SIRFCK :              0.00 seconds


 *** SCF orbital energy analysis ***

 Only the 20 lowest virtual orbital energies printed in each symmetry.

 Number of electrons :   10
 Orbital occupations :    5

 Sym       Kohn-Sham orbital energies

1 A     -18.55527827    -1.19809611    -0.71960570    -0.38547722    -0.32204890
          0.00691003     0.05224934     0.12517657     0.13880013     0.17467753
          0.19329817     0.27247346     0.32858333     0.66722916     0.69931166
          0.90084937     0.94738019     0.98916422     1.27832165     1.37250725
          1.37394620     1.62038584     1.91819783     2.16688429     2.27981851

    E(LUMO) :     0.00691003 au (symmetry 1)
  - E(HOMO) :    -0.32204890 au (symmetry 1)
  ------------------------------------------
    gap     :     0.32895893 au

 >>> Writing SIRIFC interface file

 >>>> CPU and wall time for SCF :      14.560      14.648


                       .-----------------------------------.
                       | >>> Final results from SIRIUS <<< |
                       `-----------------------------------'


@    Spin multiplicity:           1
@    Spatial symmetry:            1 ( irrep  A   in C1  )
@    Total charge of molecule:    0

     SOLVATION MODEL: polarizable continuum model (PCM),

       Solvation energy:          -0.006783198789

@    Final DFT energy:            -74.383393560459                 
@    Nuclear repulsion:            17.488616348415
@    Electronic energy:           -91.865226710086

@    Final gradient norm:           0.000004274450

 
     Date and time (Linux)  : Mon May 18 11:11:41 2015
     Host name              : spongebob                               


 INFO: Sorry, plot of MOs with Molden is only implemented for spherical GTOs

File label for MO orbitals:  18May15   FOCKDIIS

 (Only coefficients >0.0100 are printed.)

 Molecular orbitals for symmetry species 1  (A  )
 ------------------------------------------------

    Orbital         1        2        3        4        5        6        7
   1 O   :s     -0.5441   0.1224  -0.0000   0.0435  -0.0000   0.0263  -0.0000
   2 O   :s     -0.4677   0.2041   0.0000   0.0695  -0.0000   0.0453  -0.0000
   3 O   :s     -0.0327  -0.3630  -0.0000  -0.2480  -0.0000  -0.1106   0.0000
   4 O   :s      0.0051  -0.0751   0.0000  -0.3997  -0.0000   0.0287   0.0000
   5 O   :s     -0.0136  -0.1419   0.0000  -0.0971   0.0000  -1.8458   0.0000
   6 O   :px    -0.0045  -0.1294   0.0000   0.2939   0.0000   0.0052   0.0000
   7 O   :py     0.0000   0.0000   0.3276  -0.0000   0.0000   0.0000   0.0461
   8 O   :pz     0.0000  -0.0000  -0.0000   0.0000  -0.3121   0.0000   0.0000
   9 O   :px     0.0046  -0.0662  -0.0000   0.3573   0.0000   0.0252  -0.0000
  10 O   :py     0.0000  -0.0000   0.2677   0.0000   0.0000  -0.0000   0.0646
  11 O   :pz     0.0000  -0.0000  -0.0000   0.0000  -0.4209   0.0000   0.0000
  12 O   :px     0.0014   0.0003   0.0000   0.2784   0.0000   0.1147   0.0000
  13 O   :py    -0.0000   0.0000   0.0992  -0.0000  -0.0000  -0.0000  -0.0842
  14 O   :pz     0.0000  -0.0000  -0.0000   0.0000  -0.3649   0.0000   0.0000
  15 O   :px    -0.0023  -0.0223  -0.0000   0.0503   0.0000  -0.2689  -0.0000
  16 O   :py     0.0000  -0.0000   0.0451  -0.0000   0.0000   0.0000   0.2684
  17 O   :pz     0.0000  -0.0000  -0.0000   0.0000  -0.0912   0.0000   0.0000
  18 O   :dxx    0.0077   0.0140  -0.0000   0.0098  -0.0000   0.0034  -0.0000
  19 O   :dxy    0.0000   0.0000   0.0146  -0.0000   0.0000   0.0000   0.0049
  20 O   :dxz   -0.0000   0.0000   0.0000  -0.0000  -0.0248  -0.0000  -0.0000
  21 O   :dyy    0.0074   0.0214   0.0000  -0.0184   0.0000   0.0008  -0.0000
  23 O   :dzz    0.0074   0.0218  -0.0000  -0.0100   0.0000   0.0022  -0.0000
  24 H1  :s     -0.0035  -0.2376   0.2679   0.0922  -0.0000  -0.0286   0.0269
  25 H1  :s     -0.0065  -0.1774   0.2744   0.0827  -0.0000  -0.1494   0.0607
  26 H1  :s      0.0082   0.0817  -0.0994   0.0200  -0.0000   0.7473  -0.0968
  27 H1  :s      0.0002   0.0029   0.0084  -0.0038  -0.0000   0.7463  -3.9859
  28 H1  :px     0.0011   0.0303  -0.0507   0.0174   0.0000   0.0165  -0.0097
  29 H1  :py     0.0022   0.0544  -0.0388  -0.0266   0.0000   0.0205  -0.0018
  30 H1  :pz     0.0000  -0.0000  -0.0000   0.0000  -0.0445   0.0000   0.0000
  31 H2  :s     -0.0035  -0.2376  -0.2679   0.0922   0.0000  -0.0286  -0.0269
  32 H2  :s     -0.0065  -0.1774  -0.2744   0.0827   0.0000  -0.1494  -0.0607
  33 H2  :s      0.0082   0.0817   0.0994   0.0200   0.0000   0.7473   0.0968
  34 H2  :s      0.0002   0.0029  -0.0084  -0.0038   0.0000   0.7463   3.9859
  35 H2  :px     0.0011   0.0303   0.0507   0.0174   0.0000   0.0165   0.0097
  36 H2  :py    -0.0022  -0.0544  -0.0388   0.0266  -0.0000  -0.0205  -0.0018
  37 H2  :pz     0.0000  -0.0000  -0.0000   0.0000  -0.0445   0.0000   0.0000

    Orbital         8        9       10       11       12       13       14
   1 O   :s      0.0045  -0.0000  -0.0344  -0.0000   0.0000   0.0302  -0.0123
   2 O   :s      0.0064  -0.0000  -0.0587  -0.0000   0.0000   0.0629  -0.0277
   3 O   :s     -0.0716  -0.0000   0.2876   0.0000  -0.0000  -0.0863  -0.4940
   4 O   :s     -0.2448  -0.0000   0.7709  -0.0000  -0.0000  -3.3008 -10.1093
   5 O   :s      6.9264   0.0000 -12.9980   0.0000  -0.0000 -20.4580  10.1973
   6 O   :px    -0.1043   0.0000  -0.0582  -0.0000  -0.0000  -0.0410   0.1036
   7 O   :py     0.0000   0.0000   0.0000  -0.0599  -0.1068  -0.0000   0.0000
   8 O   :pz     0.0000  -0.1339  -0.0000  -0.0000  -0.0000   0.0000  -0.0000
   9 O   :px    -0.1375   0.0000  -0.0199   0.0000   0.0000  -0.0572  -0.0705
  10 O   :py    -0.0000   0.0000  -0.0000  -0.1251  -0.0167   0.0000  -0.0000
  11 O   :pz     0.0000  -0.1690  -0.0000  -0.0000  -0.0000   0.0000  -0.0000
  12 O   :px    -0.3962   0.0000  -0.2421  -0.0000  -0.0000  -0.6797  -3.6468
  13 O   :py     0.0000  -0.0000  -0.0000  -0.2973  -0.5227   0.0000  -0.0000
  14 O   :pz     0.0000  -0.4517  -0.0000  -0.0000  -0.0000   0.0000  -0.0000
  15 O   :px     2.1875   0.0000  -1.4251   0.0000  -0.0000  -3.5420   2.1493
  16 O   :py    -0.0000   0.0000   0.0000   4.8560  -3.1333  -0.0000  -0.0000
  17 O   :pz     0.0000   1.2198  -0.0000  -0.0000  -0.0000   0.0000  -0.0000
  18 O   :dxx   -0.0142  -0.0000  -0.0041  -0.0000   0.0000   0.0186  -0.0395
  19 O   :dxy    0.0000   0.0000   0.0000  -0.0223   0.0131  -0.0000   0.0000
  20 O   :dxz   -0.0000  -0.0185   0.0000   0.0000   0.0000  -0.0000   0.0000
  21 O   :dyy    0.0001   0.0000   0.0143  -0.0000   0.0000   0.0334  -0.0091
  23 O   :dzz    0.0015   0.0000  -0.0030  -0.0000   0.0000   0.0212  -0.0372
  24 H1  :s     -0.0460  -0.0000   0.0062  -0.0372  -0.0497  -0.0101   0.1642
  25 H1  :s      0.3103  -0.0000  -0.3046   0.4449  -0.1674   0.7123   5.7909
  26 H1  :s     -3.0988  -0.0000   5.2679  -6.8532   9.0757  11.2369  -4.6872
  27 H1  :s     -0.6292  -0.0000   1.3053  -4.6652  -1.5093   0.5302  -0.5922
  28 H1  :px     0.0124   0.0000   0.0254  -0.0441   0.0519   0.0129  -0.1465
  29 H1  :py    -0.0112   0.0000   0.0279  -0.0373   0.0916   0.0009  -0.2679
  30 H1  :pz     0.0000   0.0149  -0.0000  -0.0000  -0.0000   0.0000  -0.0000
  31 H2  :s     -0.0460   0.0000   0.0062   0.0372   0.0497  -0.0101   0.1642
  32 H2  :s      0.3103   0.0000  -0.3046  -0.4449   0.1674   0.7123   5.7909
  33 H2  :s     -3.0988   0.0000   5.2679   6.8532  -9.0757  11.2369  -4.6872
  34 H2  :s     -0.6292   0.0000   1.3053   4.6652   1.5093   0.5302  -0.5922
  35 H2  :px     0.0124   0.0000   0.0254   0.0441  -0.0519   0.0129  -0.1465
  36 H2  :py     0.0112  -0.0000  -0.0279  -0.0373   0.0916  -0.0009   0.2679
  37 H2  :pz     0.0000   0.0149  -0.0000  -0.0000  -0.0000   0.0000  -0.0000

    Orbital        15
   7 O   :py     0.0400
  10 O   :py    -0.2505
  13 O   :py    -4.1567
  16 O   :py     3.9185
  19 O   :dxy    0.0361
  24 H1  :s      0.1684
  25 H1  :s      5.0470
  26 H1  :s     -6.2698
  27 H1  :s     -2.1127
  28 H1  :px    -0.1727
  29 H1  :py    -0.2584
  31 H2  :s     -0.1684
  32 H2  :s     -5.0470
  33 H2  :s      6.2698
  34 H2  :s      2.1127
  35 H2  :px     0.1727
  36 H2  :py    -0.2584



 >>>> Total CPU  time used in SIRIUS :     14.57 seconds
 >>>> Total wall time used in SIRIUS :     14.66 seconds

 
     Date and time (Linux)  : Mon May 18 11:11:41 2015
     Host name              : spongebob                               

 NOTE:    1 informational messages have been issued.
 Check output, result, and error files for "INFO".

 NOTE:    1 warnings have been issued.
 Check output, result, and error files for "WARNING".


                     .---------------------------------------.
                     | End of Wave Function Section (SIRIUS) |
                     `---------------------------------------'

 >>>> Total CPU  time used in DALTON:  15.22 seconds
 >>>> Total wall time used in DALTON:  15.31 seconds

 
     Date and time (Linux)  : Mon May 18 11:11:41 2015
     Host name              : spongebob                               
