

     ************************************************************************
     *************** Dalton - An Electronic Structure Program ***************
     ************************************************************************

    This is output from DALTON 2016.alpha
   ----------------------------------------------------------------------------
    NOTE:
     
    Dalton is an experimental code for the evaluation of molecular
    properties using (MC)SCF, DFT, CI, and CC wave functions.
    The authors accept no responsibility for the performance of
    the code or for the correctness of the results.
     
    The code (in whole or part) is provided under a licence and
    is not to be reproduced for further distribution without
    the written permission of the authors or their representatives.
     
    See the home page "http://daltonprogram.org" for further information.
     
    If results obtained with this code are published,
    the appropriate citations would be both of:
     
       K. Aidas, C. Angeli, K. L. Bak, V. Bakken, R. Bast,
       L. Boman, O. Christiansen, R. Cimiraglia, S. Coriani,
       J. Cukras, P. Dahle, E. K. Dalskov, U. Ekstroem,
       T. Enevoldsen, J. J. Eriksen, P. Ettenhuber, B. Fernandez,
       L. Ferrighi, H. Fliegl, L. Frediani, K. Hald, A. Halkier,
       C. Haettig, H. Heiberg, T. Helgaker, A. C. Hennum,
       H. Hettema, E. Hjertenaes, S. Hoest, I.-M. Hoeyvik,
       M. F. Iozzi, B. Jansik, H. J. Aa. Jensen, D. Jonsson,
       P. Joergensen, M. Kaminski, J. Kauczor, S. Kirpekar,
       T. Kjaergaard, W. Klopper, S. Knecht, R. Kobayashi, H. Koch,
       J. Kongsted, A. Krapp, K. Kristensen, A. Ligabue,
       O. B. Lutnaes, J. I. Melo, K. V. Mikkelsen, R. H. Myhre,
       C. Neiss, C. B. Nielsen, P. Norman, J. Olsen,
       J. M. H. Olsen, A. Osted, M. J. Packer, F. Pawlowski,
       T. B. Pedersen, P. F. Provasi, S. Reine, Z. Rinkevicius,
       T. A. Ruden, K. Ruud, V. Rybkin, P. Salek, C. C. M. Samson,
       A. Sanchez de Meras, T. Saue, S. P. A. Sauer,
       B. Schimmelpfennig, K. Sneskov, A. H. Steindal,
       K. O. Sylvester-Hvid, P. R. Taylor, A. M. Teale,
       E. I. Tellgren, D. P. Tew, A. J. Thorvaldsen, L. Thoegersen,
       O. Vahtras, M. A. Watson, D. J. D. Wilson, M. Ziolkowski
       and H. Agren,
       "The Dalton quantum chemistry program system",
       WIREs Comput. Mol. Sci. 2013. (doi: 10.1002/wcms.1172)
    
    and
    
       Dalton, a Molecular Electronic Structure Program,
       Release Dalton2016.alpha (2015), see http://daltonprogram.org
   ----------------------------------------------------------------------------

    Authors in alphabetical order (major contribution(s) in parenthesis):

  Kestutis Aidas,           Vilnius University,           Lithuania   (QM/MM)
  Celestino Angeli,         University of Ferrara,        Italy       (NEVPT2)
  Keld L. Bak,              UNI-C,                        Denmark     (AOSOPPA, non-adiabatic coupling, magnetic properties)
  Vebjoern Bakken,          University of Oslo,           Norway      (DALTON; geometry optimizer, symmetry detection)
  Radovan Bast,             KTH Stockholm,                Sweden      (DALTON installation and execution frameworks)
  Pablo Baudin,             University of Valencia,       Spain       (Cholesky excitation energies)
  Linus Boman,              NTNU,                         Norway      (Cholesky decomposition and subsystems)
  Ove Christiansen,         Aarhus University,            Denmark     (CC module)
  Renzo Cimiraglia,         University of Ferrara,        Italy       (NEVPT2)
  Sonia Coriani,            University of Trieste,        Italy       (CC module, MCD in RESPONS)
  Janusz Cukras,            University of Trieste,        Italy       (MChD in RESPONS)
  Paal Dahle,               University of Oslo,           Norway      (Parallelization)
  Erik K. Dalskov,          UNI-C,                        Denmark     (SOPPA)
  Thomas Enevoldsen,        Univ. of Southern Denmark,    Denmark     (SOPPA)
  Janus J. Eriksen,         Aarhus University,            Denmark     (Polarizable embedding model, TDA)
  Berta Fernandez,          U. of Santiago de Compostela, Spain       (doublet spin, ESR in RESPONS)
  Lara Ferrighi,            Aarhus University,            Denmark     (PCM Cubic response)
  Heike Fliegl,             University of Oslo,           Norway      (CCSD(R12))
  Luca Frediani,            UiT The Arctic U. of Norway,  Norway      (PCM)
  Bin Gao,                  UiT The Arctic U. of Norway,  Norway      (Gen1Int library)
  Christof Haettig,         Ruhr-University Bochum,       Germany     (CC module)
  Kasper Hald,              Aarhus University,            Denmark     (CC module)
  Asger Halkier,            Aarhus University,            Denmark     (CC module)
  Erik D. Hedegaard,        Univ. of Southern Denmark,    Denmark     (Polarizable embedding model, QM/MM)
  Hanne Heiberg,            University of Oslo,           Norway      (geometry analysis, selected one-electron integrals)
  Trygve Helgaker,          University of Oslo,           Norway      (DALTON; ABACUS, ERI, DFT modules, London, and much more)
  Alf Christian Hennum,     University of Oslo,           Norway      (Parity violation)
  Hinne Hettema,            University of Auckland,       New Zealand (quadratic response in RESPONS; SIRIUS supersymmetry)
  Eirik Hjertenaes,         NTNU,                         Norway      (Cholesky decomposition)
  Maria Francesca Iozzi,    University of Oslo,           Norway      (RPA)
  Brano Jansik              Technical Univ. of Ostrava    Czech Rep.  (DFT cubic response)
  Hans Joergen Aa. Jensen,  Univ. of Southern Denmark,    Denmark     (DALTON; SIRIUS, RESPONS, ABACUS modules, London, and much more)
  Dan Jonsson,              UiT The Arctic U. of Norway,  Norway      (cubic response in RESPONS module)
  Poul Joergensen,          Aarhus University,            Denmark     (RESPONS, ABACUS, and CC modules)
  Maciej Kaminski,          University of Warsaw,         Poland      (CPPh in RESPONS)
  Joanna Kauczor,           Linkoeping University,        Sweden      (Complex polarization propagator (CPP) module)
  Sheela Kirpekar,          Univ. of Southern Denmark,    Denmark     (Mass-velocity & Darwin integrals)
  Wim Klopper,              KIT Karlsruhe,                Germany     (R12 code in CC, SIRIUS, and ABACUS modules)
  Stefan Knecht,            ETH Zurich,                   Switzerland (Parallel CI and MCSCF)
  Rika Kobayashi,           Australian National Univ.,    Australia   (DIIS in CC, London in MCSCF)
  Henrik Koch,              NTNU,                         Norway      (CC module, Cholesky decomposition)
  Jacob Kongsted,           Univ. of Southern Denmark,    Denmark     (Polarizable embedding model, QM/MM)
  Andrea Ligabue,           University of Modena,         Italy       (CTOCD, AOSOPPA)
  Nanna H. List             Univ. of Southern Denmark,    Denmark     (Polarizable embedding model)
  Ola B. Lutnaes,           University of Oslo,           Norway      (DFT Hessian)
  Juan I. Melo,             University of Buenos Aires,   Argentina   (LRESC, Relativistic Effects on NMR Shieldings)
  Kurt V. Mikkelsen,        University of Copenhagen,     Denmark     (MC-SCRF and QM/MM)
  Rolf H. Myhre,            NTNU,                         Norway      (Cholesky, subsystems and ECC2)
  Christian Neiss,          Univ. Erlangen-Nuernberg,     Germany     (CCSD(R12))
  Christian B. Nielsen,     University of Copenhagen,     Denmark     (QM/MM)
  Patrick Norman,           Linkoeping University,        Sweden      (Cubic response and complex response in RESPONS)
  Jeppe Olsen,              Aarhus University,            Denmark     (SIRIUS CI/density modules)
  Jogvan Magnus H. Olsen,   Univ. of Southern Denmark,    Denmark     (Polarizable embedding model, QM/MM)
  Anders Osted,             Copenhagen University,        Denmark     (QM/MM)
  Martin J. Packer,         University of Sheffield,      UK          (SOPPA)
  Filip Pawlowski,          Kazimierz Wielki University,  Poland      (CC3)
  Morten N. Pedersen,       Univ. of Southern Denmark,    Denmark     (Polarizable embedding model)
  Thomas B. Pedersen,       University of Oslo,           Norway      (Cholesky decomposition)
  Patricio F. Provasi,      University of Northeastern,   Argentina   (Analysis of coupling constants in localized orbitals)
  Zilvinas Rinkevicius,     KTH Stockholm,                Sweden      (open-shell DFT, ESR)
  Elias Rudberg,            KTH Stockholm,                Sweden      (DFT grid and basis info)
  Torgeir A. Ruden,         University of Oslo,           Norway      (Numerical derivatives in ABACUS)
  Kenneth Ruud,             UiT The Arctic U. of Norway,  Norway      (DALTON; ABACUS magnetic properties and much more)
  Pawel Salek,              KTH Stockholm,                Sweden      (DALTON; DFT code)
  Claire C. M. Samson       University of Karlsruhe       Germany     (Boys localization, r12 integrals in ERI)
  Alfredo Sanchez de Meras, University of Valencia,       Spain       (CC module, Cholesky decomposition)
  Trond Saue,               Paul Sabatier University,     France      (direct Fock matrix construction)
  Stephan P. A. Sauer,      University of Copenhagen,     Denmark     (SOPPA(CCSD), SOPPA prop., AOSOPPA, vibrational g-factors)
  Bernd Schimmelpfennig,    Forschungszentrum Karlsruhe,  Germany     (AMFI module)
  Kristian Sneskov,         Aarhus University,            Denmark     (Polarizable embedding model, QM/MM)
  Arnfinn H. Steindal,      UiT The Arctic U. of Norway,  Norway      (parallel QM/MM, Polarizable embedding model)
  Casper Steinmann,         Univ. of Southern Denmark,    Denmark     (QFIT, Polarizable embedding model)
  K. O. Sylvester-Hvid,     University of Copenhagen,     Denmark     (MC-SCRF)
  Peter R. Taylor,          VLSCI/Univ. of Melbourne,     Australia   (Symmetry handling ABACUS, integral transformation)
  Andrew M. Teale,          University of Nottingham,     England     (DFT-AC, DFT-D)
  David P. Tew,             University of Bristol,        England     (CCSD(R12))
  Olav Vahtras,             KTH Stockholm,                Sweden      (triplet response, spin-orbit, ESR, TDDFT, open-shell DFT)
  David J. Wilson,          La Trobe University,          Australia   (DFT Hessian and DFT magnetizabilities)
  Hans Agren,               KTH Stockholm,                Sweden      (SIRIUS module, RESPONS, MC-SCRF solvation model)
 --------------------------------------------------------------------------------

     Date and time (Linux)  : Mon May 18 11:12:25 2015
     Host name              : spongebob                               

 * Work memory size             :    64000000 =  488.28 megabytes.

 * Directories for basis set searches:
   1) /home/roberto/Workspace/dalton/DALTON/test/extpcm
   2) /home/roberto/Workspace/dalton/build/basis


Compilation information
-----------------------

 Who compiled             | roberto
 Host                     | spongebob
 System                   | Linux-3.16.0-37-generic
 CMake generator          | Unix Makefiles
 Processor                | x86_64
 64-bit integers          | OFF
 MPI                      | OFF
 Fortran compiler         | /usr/bin/gfortran
 Fortran compiler version | GNU Fortran (Ubuntu 4.9.1-16ubuntu6) 4.9.1
 C compiler               | /usr/bin/gcc
 C compiler version       | gcc (Ubuntu 4.9.1-16ubuntu6) 4.9.1
 C++ compiler             | /usr/bin/g++
 C++ compiler version     | g++ (Ubuntu 4.9.1-16ubuntu6) 4.9.1
 BLAS                     | /usr/lib/atlas-base/libf77blas.so;/usr/lib/atlas-b
                          | ase/libcblas.so;/usr/lib/atlas-base/libatlas.so
 LAPACK                   | /usr/lib/atlas-base/libatlas.so;/usr/lib/atlas-bas
                          | e/atlas/liblapack.so
 Static linking           | OFF
 Last Git revision        | cb0986207a9f55832e271eb95db63b0e39d49491
 Git branch               | pcm
 Configuration time       | 2015-05-18 10:46:06.638872


   Content of the .dal input file
 ----------------------------------

**DALTON INPUT                                    
.RUN WAVE                                         
.EXTPCM                                           
*EXTPCM                                           
.SEPARATE                                         
**WAVE FUNCTIONS                                  
.DFT                                              
 LDA                                              
**END OF DALTON INPUT                             


   Content of the .mol file
 ----------------------------

BASIS                                                                          
6-311++G**                                                                     
Water R(OH) = 0.95Aa , <HOH = 109 deg.                                         
Distance in Aangstroms                                                         
Atomtypes=2 Nosymmetry                                                         
Charge=8.0 Atoms=1                                                             
O      0.00000   0.00000   0.00000                                             
Charge=1.0 Atoms=2                                                             
H1     0.55168   0.77340   0.00000                                             
H2     0.55168  -0.77340   0.00000                                             


       *******************************************************************
       *********** Output from DALTON general input processing ***********
       *******************************************************************

 --------------------------------------------------------------------------------
   Overall default print level:    0
   Print level for DALTON.STAT:    1

    HERMIT 1- and 2-electron integral sections will be executed
    "Old" integral transformation used (limited to max 255 basis functions)
    Wave function sections will be executed (SIRIUS module)
 --------------------------------------------------------------------------------
  ===== Polarizable Continuum Model calculation set-up =====
 * Polarizable Continuum Model using PCMSolver external module:
   1: Converged potentials and charges at tesserae representative points written on file.
   2: Use point-by-point charge-attraction integrals evaluation subroutines.
   3: Separate potentials and apparent charges in nuclear and electronic.
   4: Do not print potentials and charges.


 * PCMSolver, an API for the Polarizable Continuum Model electrostatic problem. Version 1.0.3
   Main authors: R. Di Remigio, L. Frediani, K. Mozgawa
    With contributions from:
     R. Bast            (CMake framework)
     U. Ekstroem        (automatic differentiation library)
     J. Juselius        (input parsing library and CMake framework)
   Theory: - J. Tomasi, B. Mennucci and R. Cammi:
            "Quantum Mechanical Continuum Solvation Models", Chem. Rev., 105 (2005) 2999
   PCMSolver is distributed under the terms of the GNU Lesser General Public License.



   ****************************************************************************
   *************** Output of molecule and basis set information ***************
   ****************************************************************************


    The two title cards from your ".mol" input:
    ------------------------------------------------------------------------
 1: Water R(OH) = 0.95Aa , <HOH = 109 deg.                                  
 2: Distance in Aangstroms                                                  
    ------------------------------------------------------------------------

  Atomic type no.    1
  --------------------
  Nuclear charge:   8.00000
  Number of symmetry independent centers:    1
  Number of basis sets to read;    2
  Basis set file used for this atomic type with Z =   8 :
     "/home/roberto/Workspace/dalton/build/basis/6-311++G**"

  Info about the basis set file: your basis has no documentation.
  Basis set: 6-311++G**                                                                      

  Atomic type no.    2
  --------------------
  Nuclear charge:   1.00000
  Number of symmetry independent centers:    2
  Number of basis sets to read;    2
  Basis set file used for this atomic type with Z =   1 :
     "/home/roberto/Workspace/dalton/build/basis/6-311++G**"

  Info about the basis set file: your basis has no documentation.
  Basis set: 6-311++G**                                                                      


                         SYMGRP: Point group information
                         -------------------------------

@    Point group: C1 


                                 Isotopic Masses
                                 ---------------

                           O          15.994915
                           H1          1.007825
                           H2          1.007825

                       Total mass:    18.010565 amu
                       Natural abundance:  99.730 %

 Center-of-mass coordinates (a.u.):    0.061741    0.000000    0.000000


  Atoms and basis sets
  --------------------

  Number of atom types :    2
  Total number of atoms:    3

  Basis set used is "6-311++G**" from the basis set library.

  label    atoms   charge   prim   cont     basis
  ----------------------------------------------------------------------
  O           1    8.0000    35    22      [12s6p1d|5s4p1d]                                   
  H2          2    1.0000     9     7      [6s1p|4s1p]                                        
  ----------------------------------------------------------------------
  total:      3   10.0000    53    36
  ----------------------------------------------------------------------
  Spherical harmonic basis used.

  Threshold for neglecting AO integrals:  1.00D-12


  Cartesian Coordinates (a.u.)
  ----------------------------

  Total number of coordinates:    9
  O       :     1  x   0.0000000000    2  y   0.0000000000    3  z   0.0000000000
  H1      :     4  x   0.5516800000    5  y   0.7734000000    6  z   0.0000000000
  H2      :     7  x   0.5516800000    8  y  -0.7734000000    9  z   0.0000000000


   Interatomic separations (in Angstrom):
   --------------------------------------

            O           H1          H2    
            ------      ------      ------
 O     :    0.000000
 H1    :    0.502718    0.000000
 H2    :    0.502718    0.818531    0.000000


  Max    interatomic separation is    0.8185 Angstrom (    1.5468 Bohr)
  between atoms    3 and    2, "H2    " and "H1    ".

  Min HX interatomic separation is    0.5027 Angstrom (    0.9500 Bohr)

@ WARNING: Number of short HX and YX bond lengths:    2    0
@ WARNING: If not intentional, maybe your coordinates were in Angstrom,
@ WARNING: but "Angstrom" was not specified in .mol file


  Bond distances (Angstrom):
  --------------------------

                  atom 1     atom 2       distance
                  ------     ------       --------
  bond distance:  H1         O            0.502718
  bond distance:  H2         O            0.502718
  bond distance:  H2         H1           0.818531


  Bond angles (degrees):
  ----------------------

                  atom 1     atom 2     atom 3         angle
                  ------     ------     ------         -----
  bond angle:     H1         O          H2           108.998
  bond angle:     O          H1         H2            35.501
  bond angle:     O          H2         H1            35.501




 Principal moments of inertia (u*A**2) and principal axes
 --------------------------------------------------------

   IA       0.152562          0.000000    1.000000    0.000000
   IB       0.337618          1.000000    0.000000    0.000000
   IC       0.490180          0.000000    0.000000    1.000000


 Rotational constants
 --------------------

@    The molecule is planar.

               A                   B                   C

        3312613.2088        1496895.4656        1031006.7051 MHz
          110.496883           49.931058           34.390682 cm-1


@  Nuclear repulsion energy :   17.488616348415 Hartree


~~~~~~~~~~ PCMSolver ~~~~~~~~~~
Using CODATA 2010 set of constants.
Input parsing done API-side
========== Cavity 
Cavity type: GePol
Average area = 1.07132 AU^2
Probe radius = 2.61727 AU
Number of spheres = 3 [initial = 3; added = 0]
Number of finite elements = 164
========== Solver 
Solver Type: IEFPCM, isotropic
PCM matrix hermitivitized
============ Medium 
Medium initialized from solvent built-in data.
Solvent name:          Water
Static  permittivity = 78.39
Optical permittivity = 1.776
Solvent radius =       1.385
.... Inside 
Green's function type: vacuum
.... Outside 
Green's function type: uniform dielectric
Permittivity = 78.39


 PCMSolver interface correctly initialized


                     .---------------------------------------.
                     | Starting in Integral Section (HERMIT) |
                     `---------------------------------------'



 ***************************************************************************************
 ****************** Output from **INTEGRALS input processing (HERMIT) ******************
 ***************************************************************************************


 - Using defaults, no **INTEGRALS input found

 Default print level:        1

 * Nuclear model: Point charge

 Calculation of one- and two-electron Hamiltonian integrals.

 Center of mass  (bohr):      0.061741194238      0.000000000000      0.000000000000
 Operator center (bohr):      0.000000000000      0.000000000000      0.000000000000
 Gauge origin    (bohr):      0.000000000000      0.000000000000      0.000000000000
 Dipole origin   (bohr):      0.000000000000      0.000000000000      0.000000000000


     ************************************************************************
     ************************** Output from HERINT **************************
     ************************************************************************


 Threshold for neglecting two-electron integrals:  1.00D-12
 HERMIT - Number of two-electron integrals written:      108605 ( 48.9% )
 HERMIT - Megabytes written:                              1.250

 >>>> Total CPU  time used in HERMIT:   0.09 seconds
 >>>> Total wall time used in HERMIT:   0.09 seconds


                        .----------------------------------.
                        | End of Integral Section (HERMIT) |
                        `----------------------------------'



                   .--------------------------------------------.
                   | Starting in Wave Function Section (SIRIUS) |
                   `--------------------------------------------'


 *** Output from Huckel module :

     Using EWMO model:          T
     Using EHT  model:          F
     Number of Huckel orbitals each symmetry:    7

 EWMO - Energy Weighted Maximum Overlap - is a Huckel type method,
        which normally is better than Extended Huckel Theory.
 Reference: Linderberg and Ohrn, Propagators in Quantum Chemistry (Wiley, 1973)

 Huckel EWMO eigenvalues for symmetry :  1
          -20.705062      -1.945824      -0.739359      -0.648877      -0.616200
           -0.087290      -0.037290

 **********************************************************************
 *SIRIUS* a direct, restricted step, second order MCSCF program       *
 **********************************************************************

 
     Date and time (Linux)  : Mon May 18 11:12:25 2015
     Host name              : spongebob                               

 Title lines from ".mol" input file:
     Water R(OH) = 0.95Aa , <HOH = 109 deg.                                  
     Distance in Aangstroms                                                  

 Print level on unit LUPRI =   2 is   0
 Print level on unit LUW4  =   2 is   5

@    Restricted, closed shell Kohn-Sham DFT calculation.

 Initial molecular orbitals are obtained according to
 ".MOSTART EWMO  " input option

     Wave function specification
     ============================
@    Wave function type        >>> KS-DFT <<<
@    Number of closed shell electrons          10
@    Number of electrons in active shells       0
@    Total charge of the molecule               0

@    Spin multiplicity and 2 M_S                1         0
@    Total number of symmetries                 1 (point group: C1 )
@    Reference state symmetry                   1 (irrep name : A  )
 
     This is a DFT calculation of type: LDA

     Orbital specifications
     ======================
@    Abelian symmetry species          All |    1
@                                          |  A  
                                       --- |  ---
@    Occupied SCF orbitals               5 |    5
@    Secondary orbitals                 31 |   31
@    Total number of orbitals           36 |   36
@    Number of basis functions          36 |   36

     Optimization information
     ========================
@    Number of configurations                 1
@    Number of orbital rotations            155
     ------------------------------------------
@    Total number of variables              156

     Maximum number of Fock   iterations      0
     Maximum number of DIIS   iterations     60
     Maximum number of QC-SCF iterations     60
     Threshold for SCF convergence     1.00D-05
 
     This is a DFT calculation of type: LDA


 ***********************************************
 ***** DIIS acceleration of SCF iterations *****
 ***********************************************

 C1-DIIS algorithm; max error vectors =    8

 Iter      Total energy       Solvation energy    Error norm    Delta(E)
 -----------------------------------------------------------------------------
      K-S energy, electrons, error :     -8.991990871643  10.0000003223    3.22D-07
Polarization energy components
  U_ee =   -14.18736005093552
  U_en =    14.21194074863313
  U_ne =    14.21194074863313
  U_nn =   -14.24259735261754
  U_en - U_ne = 0.00000000000000E+00

@  1  -73.7090398587     -6.075906286792E-03    4.24392D+00   -7.37D+01
      Virial theorem: -V/T =      1.952390
@      MULPOP O      -0.85; H1      0.43; H2      0.43; 
 -----------------------------------------------------------------------------
      K-S energy, electrons, error :     -9.966312541424  10.0000003357    3.36D-07
Polarization energy components
  U_ee =   -14.23354359955765
  U_en =    14.23648480905998
  U_ne =    14.23648480905998
  U_nn =   -14.24259735261754
  U_en - U_ne = -7.10542735760100E-15

@  2  -74.1452468755     -3.171334055228E-03    2.58520D+00   -4.36D-01
      Virial theorem: -V/T =      1.884988
@      MULPOP O       0.01; H1     -0.00; H2     -0.00; 
 -----------------------------------------------------------------------------
      K-S energy, electrons, error :     -9.236352552676  10.0000003200    3.20D-07
Polarization energy components
  U_ee =   -14.19876189345469
  U_en =    14.21709906084808
  U_ne =    14.21709906084809
  U_nn =   -14.24259735261754
  U_en - U_ne = -3.55271367880050E-15

@  3  -74.3337574509     -7.161124376061E-03    1.12174D+00   -1.89D-01
      Virial theorem: -V/T =      1.949531
@      MULPOP O       0.07; H1     -0.04; H2     -0.04; 
 -----------------------------------------------------------------------------
      K-S energy, electrons, error :     -9.497540980231  10.0000003248    3.25D-07
Polarization energy components
  U_ee =   -14.21907277442617
  U_en =    14.22738340491552
  U_ne =    14.22738340491552
  U_nn =   -14.24259735261754
  U_en - U_ne = -3.55271367880050E-15

@  4  -74.3751206997     -6.903317212675E-03    2.04779D-01   -4.14D-02
      Virial theorem: -V/T =      1.927267
@      MULPOP O      -0.07; H1      0.04; H2      0.04; 
 -----------------------------------------------------------------------------
      K-S energy, electrons, error :     -9.457367207879  10.0000003242    3.24D-07
Polarization energy components
  U_ee =   -14.21612733554900
  U_en =    14.22597495779175
  U_ne =    14.22597495779175
  U_nn =   -14.24259735261754
  U_en - U_ne = -1.06581410364015E-14

@  5  -74.3767218590     -6.774772583048E-03    8.98920D-03   -1.60D-03
      Virial theorem: -V/T =      1.930512
@      MULPOP O      -0.06; H1      0.03; H2      0.03; 
 -----------------------------------------------------------------------------
      K-S energy, electrons, error :     -9.458266860117  10.0000003242    3.24D-07
Polarization energy components
  U_ee =   -14.21612881827447
  U_en =    14.22596998972906
  U_ne =    14.22596998972906
  U_nn =   -14.24259735261754
  U_en - U_ne = -3.55271367880050E-15

@  6  -74.3767241321     -6.786191433887E-03    1.73816D-03   -2.27D-06
      Virial theorem: -V/T =      1.930424
@      MULPOP O      -0.06; H1      0.03; H2      0.03; 
 -----------------------------------------------------------------------------
      K-S energy, electrons, error :     -9.458647707960  10.0000003242    3.24D-07
Polarization energy components
  U_ee =   -14.21615411396562
  U_en =    14.22598332949046
  U_ne =    14.22598332949046
  U_nn =   -14.24259735261754
  U_en - U_ne = 0.00000000000000E+00

@  7  -74.3767242531     -6.784807602248E-03    1.88398D-05   -1.21D-07
      Virial theorem: -V/T =      1.930394
@      MULPOP O      -0.06; H1      0.03; H2      0.03; 
 -----------------------------------------------------------------------------
      K-S energy, electrons, error :     -9.458650002449  10.0000003242    3.24D-07
Polarization energy components
  U_ee =   -14.21615407013559
  U_en =    14.22598328958422
  U_ne =    14.22598328958422
  U_nn =   -14.24259735261754
  U_en - U_ne = 0.00000000000000E+00

@  8  -74.3767242531     -6.784843584690E-03    3.21289D-06   -9.59D-12

@ *** DIIS converged in   8 iterations !
@     Converged SCF energy, gradient:    -74.376724253088    3.21D-06
    - total time used in SIRFCK :              0.00 seconds


 *** SCF orbital energy analysis ***

 Only the 20 lowest virtual orbital energies printed in each symmetry.

 Number of electrons :   10
 Orbital occupations :    5

 Sym       Kohn-Sham orbital energies

1 A     -18.55536796    -1.19640478    -0.72033577    -0.38535469    -0.32210112
          0.00696583     0.05230479     0.12519405     0.13870768     0.17484099
          0.19348238     0.27234661     0.33132781     0.67110829     0.69966513
          0.90085272     0.94797136     0.98921037     1.31669760     1.37341684
          1.37810201     1.62130030     1.91862216     2.24617589     2.28052505

    E(LUMO) :     0.00696583 au (symmetry 1)
  - E(HOMO) :    -0.32210112 au (symmetry 1)
  ------------------------------------------
    gap     :     0.32906695 au

 >>> Writing SIRIFC interface file

 >>>> CPU and wall time for SCF :      13.524      13.585


                       .-----------------------------------.
                       | >>> Final results from SIRIUS <<< |
                       `-----------------------------------'


@    Spin multiplicity:           1
@    Spatial symmetry:            1 ( irrep  A   in C1  )
@    Total charge of molecule:    0

     SOLVATION MODEL: polarizable continuum model (PCM),

       Solvation energy:          -0.006784843585

@    Final DFT energy:            -74.376724253088                 
@    Nuclear repulsion:            17.488616348415
@    Electronic energy:           -91.858555757919

@    Final gradient norm:           0.000003212891

 
     Date and time (Linux)  : Mon May 18 11:12:39 2015
     Host name              : spongebob                               

File label for MO orbitals:  18May15   FOCKDIIS

 (Only coefficients >0.0100 are printed.)

 Molecular orbitals for symmetry species 1  (A  )
 ------------------------------------------------

    Orbital         1        2        3        4        5        6        7
   1 O   :1s    -0.5434   0.1219   0.0000   0.0436  -0.0000   0.0262   0.0000
   2 O   :1s    -0.4734   0.1927   0.0000   0.0730  -0.0000   0.0440  -0.0000
   3 O   :1s    -0.0478  -0.4099  -0.0000  -0.2313  -0.0000  -0.1165  -0.0000
   4 O   :1s    -0.0252  -0.1762  -0.0000  -0.3632  -0.0000   0.0149  -0.0000
   5 O   :1s     0.0475   0.1065   0.0000  -0.2007   0.0000  -1.7899   0.0000
   6 O   :2px   -0.0041  -0.1280   0.0000   0.2937   0.0000   0.0053   0.0000
   7 O   :2py   -0.0000  -0.0000   0.3281   0.0000   0.0000  -0.0000   0.0462
   8 O   :2pz    0.0000  -0.0000  -0.0000   0.0000  -0.3125   0.0000   0.0000
   9 O   :2px   -0.0080  -0.0968  -0.0000   0.3676   0.0000   0.0217  -0.0000
  10 O   :2py   -0.0000  -0.0000   0.2678   0.0000   0.0000  -0.0000   0.0644
  11 O   :2pz    0.0000  -0.0000  -0.0000   0.0000  -0.4213   0.0000   0.0000
  12 O   :2px   -0.0083  -0.0341  -0.0000   0.2911   0.0000   0.1090  -0.0000
  13 O   :2py   -0.0000  -0.0000   0.0990   0.0000  -0.0000  -0.0000  -0.0841
  14 O   :2pz    0.0000  -0.0000  -0.0000   0.0000  -0.3644   0.0000   0.0000
  15 O   :2px    0.0085   0.0220   0.0000   0.0316   0.0000  -0.2576   0.0000
  16 O   :2py    0.0000   0.0000   0.0448  -0.0000   0.0000   0.0000   0.2725
  17 O   :2pz    0.0000  -0.0000  -0.0000   0.0000  -0.0912   0.0000   0.0000
  18 O   :3d2-   0.0000   0.0000   0.0147  -0.0000   0.0000   0.0000   0.0049
  20 O   :3d0    0.0031   0.0115   0.0000  -0.0087   0.0000   0.0009   0.0000
  21 O   :3d1+  -0.0000   0.0000   0.0000  -0.0000  -0.0249  -0.0000  -0.0000
  22 O   :3d2+   0.0019  -0.0038  -0.0000   0.0271  -0.0000   0.0030  -0.0000
  23 H1  :1s     0.0085  -0.2116   0.2679   0.0842  -0.0000  -0.0259   0.0269
  24 H1  :1s     0.0272  -0.0654   0.2738   0.0421  -0.0000  -0.1341   0.0617
  25 H1  :1s    -0.0279  -0.0624  -0.0987   0.0792  -0.0000   0.7170  -0.1067
  26 H1  :1s    -0.0011  -0.0031   0.0083  -0.0010  -0.0000   0.7442  -3.9859
  27 H1  :2px   -0.0049   0.0134  -0.0508   0.0230   0.0000   0.0145  -0.0098
  28 H1  :2py   -0.0065   0.0301  -0.0388  -0.0184   0.0000   0.0177  -0.0020
  29 H1  :2pz    0.0000  -0.0000  -0.0000   0.0000  -0.0443   0.0000   0.0000
  30 H2  :1s     0.0085  -0.2116  -0.2679   0.0842   0.0000  -0.0259  -0.0269
  31 H2  :1s     0.0272  -0.0654  -0.2738   0.0421   0.0000  -0.1341  -0.0617
  32 H2  :1s    -0.0279  -0.0624   0.0987   0.0792   0.0000   0.7170   0.1067
  33 H2  :1s    -0.0011  -0.0031  -0.0083  -0.0010   0.0000   0.7442   3.9859
  34 H2  :2px   -0.0049   0.0134   0.0508   0.0230   0.0000   0.0145   0.0098
  35 H2  :2py    0.0065  -0.0301  -0.0388   0.0184  -0.0000  -0.0177  -0.0020
  36 H2  :2pz    0.0000  -0.0000  -0.0000   0.0000  -0.0443   0.0000   0.0000

    Orbital         8        9       10       11       12       13       14
   1 O   :1s     0.0045  -0.0000   0.0344  -0.0000   0.0000   0.0298  -0.0129
   2 O   :1s     0.0086  -0.0000   0.0601  -0.0000   0.0000   0.0500  -0.0144
   3 O   :1s    -0.0589  -0.0000  -0.2806   0.0000  -0.0000  -0.1628  -0.3947
   4 O   :1s    -0.2209  -0.0000  -0.7568   0.0000  -0.0000  -3.5231  -9.9028
   5 O   :1s     6.7959   0.0000  12.9478  -0.0000   0.0000 -20.0647   9.8845
   6 O   :2px   -0.1047   0.0000   0.0580  -0.0000   0.0000  -0.0388   0.1031
   7 O   :2py    0.0000   0.0000   0.0000  -0.0599  -0.1068   0.0000  -0.0000
   8 O   :2pz    0.0000  -0.1340   0.0000  -0.0000  -0.0000   0.0000  -0.0000
   9 O   :2px   -0.1307   0.0000   0.0236   0.0000  -0.0000  -0.0965  -0.0230
  10 O   :2py   -0.0000   0.0000   0.0000  -0.1250  -0.0161   0.0000  -0.0000
  11 O   :2pz    0.0000  -0.1688   0.0000  -0.0000  -0.0000   0.0000  -0.0000
  12 O   :2px   -0.3871   0.0000   0.2471   0.0000  -0.0000  -0.7584  -3.5792
  13 O   :2py    0.0000  -0.0000   0.0000  -0.2973  -0.5220   0.0000  -0.0000
  14 O   :2pz    0.0000  -0.4515   0.0000  -0.0000  -0.0000   0.0000  -0.0000
  15 O   :2px    2.1654   0.0000   1.4173  -0.0000   0.0000  -3.4711   2.0953
  16 O   :2py   -0.0000   0.0000  -0.0000   4.8562  -3.1342  -0.0000   0.0000
  17 O   :2pz    0.0000   1.2197   0.0000  -0.0000  -0.0000   0.0000  -0.0000
  18 O   :3d2-  -0.0000   0.0000  -0.0000  -0.0223   0.0131  -0.0000   0.0000
  20 O   :3d0    0.0086   0.0000   0.0086  -0.0000   0.0000   0.0019  -0.0235
  21 O   :3d1+  -0.0000  -0.0185  -0.0000   0.0000   0.0000  -0.0000   0.0000
  22 O   :3d2+  -0.0150  -0.0000   0.0180   0.0000  -0.0000  -0.0107  -0.0355
  23 H1  :1s    -0.0510  -0.0000  -0.0092  -0.0372  -0.0496   0.0203   0.1317
  24 H1  :1s     0.2801  -0.0000   0.2875   0.4451  -0.1692   0.9224   5.5673
  25 H1  :1s    -3.0269  -0.0000  -5.2383  -6.8539   9.0785  11.0080  -4.4895
  26 H1  :1s    -0.6258  -0.0000  -1.3047  -4.6641  -1.5124   0.5225  -0.5891
  27 H1  :2px    0.0165   0.0000  -0.0230  -0.0440   0.0519  -0.0117  -0.1170
  28 H1  :2py   -0.0055   0.0000  -0.0246  -0.0374   0.0918  -0.0334  -0.2297
  29 H1  :2pz    0.0000   0.0150   0.0000  -0.0000  -0.0000   0.0000  -0.0000
  30 H2  :1s    -0.0510   0.0000  -0.0092   0.0372   0.0496   0.0203   0.1317
  31 H2  :1s     0.2801   0.0000   0.2875  -0.4451   0.1692   0.9224   5.5673
  32 H2  :1s    -3.0269   0.0000  -5.2383   6.8539  -9.0785  11.0080  -4.4895
  33 H2  :1s    -0.6258   0.0000  -1.3047   4.6641   1.5124   0.5225  -0.5891
  34 H2  :2px    0.0165   0.0000  -0.0230   0.0440  -0.0519  -0.0117  -0.1170
  35 H2  :2py    0.0055  -0.0000   0.0246  -0.0374   0.0918   0.0334   0.2297
  36 H2  :2pz    0.0000   0.0150   0.0000  -0.0000  -0.0000   0.0000  -0.0000

    Orbital        15
   7 O   :2py   -0.0401
  10 O   :2py    0.2504
  13 O   :2py    4.1574
  16 O   :2py   -3.9174
  18 O   :3d2-  -0.0362
  23 H1  :1s    -0.1684
  24 H1  :1s    -5.0465
  25 H1  :1s     6.2658
  26 H1  :1s     2.1134
  27 H1  :2px    0.1729
  28 H1  :2py    0.2583
  30 H2  :1s     0.1684
  31 H2  :1s     5.0465
  32 H2  :1s    -6.2658
  33 H2  :1s    -2.1134
  34 H2  :2px   -0.1729
  35 H2  :2py    0.2583



 >>>> Total CPU  time used in SIRIUS :     13.54 seconds
 >>>> Total wall time used in SIRIUS :     13.60 seconds

 
     Date and time (Linux)  : Mon May 18 11:12:39 2015
     Host name              : spongebob                               

 NOTE:    1 warnings have been issued.
 Check output, result, and error files for "WARNING".


                     .---------------------------------------.
                     | End of Wave Function Section (SIRIUS) |
                     `---------------------------------------'

 >>>> Total CPU  time used in DALTON:  14.19 seconds
 >>>> Total wall time used in DALTON:  14.25 seconds

 
     Date and time (Linux)  : Mon May 18 11:12:39 2015
     Host name              : spongebob                               
