

     ************************************************************************
     *************** Dalton - An Electronic Structure Program ***************
     ************************************************************************

    This is output from DALTON release Dalton2017.alpha (2017)
         ( Web site: http://daltonprogram.org )

   ----------------------------------------------------------------------------

    NOTE:
     
    Dalton is an experimental code for the evaluation of molecular
    properties using (MC)SCF, DFT, CI, and CC wave functions.
    The authors accept no responsibility for the performance of
    the code or for the correctness of the results.
     
    The code (in whole or part) is provided under a licence and
    is not to be reproduced for further distribution without
    the written permission of the authors or their representatives.
     
    See the home page "http://daltonprogram.org" for further information.
     
    If results obtained with this code are published,
    the appropriate citations would be both of:
     
       K. Aidas, C. Angeli, K. L. Bak, V. Bakken, R. Bast,
       L. Boman, O. Christiansen, R. Cimiraglia, S. Coriani,
       P. Dahle, E. K. Dalskov, U. Ekstroem,
       T. Enevoldsen, J. J. Eriksen, P. Ettenhuber, B. Fernandez,
       L. Ferrighi, H. Fliegl, L. Frediani, K. Hald, A. Halkier,
       C. Haettig, H. Heiberg, T. Helgaker, A. C. Hennum,
       H. Hettema, E. Hjertenaes, S. Hoest, I.-M. Hoeyvik,
       M. F. Iozzi, B. Jansik, H. J. Aa. Jensen, D. Jonsson,
       P. Joergensen, J. Kauczor, S. Kirpekar,
       T. Kjaergaard, W. Klopper, S. Knecht, R. Kobayashi, H. Koch,
       J. Kongsted, A. Krapp, K. Kristensen, A. Ligabue,
       O. B. Lutnaes, J. I. Melo, K. V. Mikkelsen, R. H. Myhre,
       C. Neiss, C. B. Nielsen, P. Norman, J. Olsen,
       J. M. H. Olsen, A. Osted, M. J. Packer, F. Pawlowski,
       T. B. Pedersen, P. F. Provasi, S. Reine, Z. Rinkevicius,
       T. A. Ruden, K. Ruud, V. Rybkin, P. Salek, C. C. M. Samson,
       A. Sanchez de Meras, T. Saue, S. P. A. Sauer,
       B. Schimmelpfennig, K. Sneskov, A. H. Steindal,
       K. O. Sylvester-Hvid, P. R. Taylor, A. M. Teale,
       E. I. Tellgren, D. P. Tew, A. J. Thorvaldsen, L. Thoegersen,
       O. Vahtras, M. A. Watson, D. J. D. Wilson, M. Ziolkowski
       and H. Agren,
       "The Dalton quantum chemistry program system",
       WIREs Comput. Mol. Sci. 2014, 4:269–284 (doi: 10.1002/wcms.1172)
     
    and
     
       Dalton, a Molecular Electronic Structure Program,
       Release Dalton2017.alpha (2017), see http://daltonprogram.org
   ----------------------------------------------------------------------------

    Authors in alphabetical order (major contribution(s) in parenthesis):

  Kestutis Aidas,           Vilnius University,           Lithuania   (QM/MM)
  Celestino Angeli,         University of Ferrara,        Italy       (NEVPT2)
  Keld L. Bak,              UNI-C,                        Denmark     (AOSOPPA, non-adiabatic coupling, magnetic properties)
  Vebjoern Bakken,          University of Oslo,           Norway      (DALTON; geometry optimizer, symmetry detection)
  Radovan Bast,             UiT The Arctic U. of Norway,  Norway      (DALTON installation and execution frameworks)
  Pablo Baudin,             University of Valencia,       Spain       (Cholesky excitation energies)
  Linus Boman,              NTNU,                         Norway      (Cholesky decomposition and subsystems)
  Ove Christiansen,         Aarhus University,            Denmark     (CC module)
  Renzo Cimiraglia,         University of Ferrara,        Italy       (NEVPT2)
  Sonia Coriani,            University of Trieste,        Italy       (CC module, MCD in RESPONS)
  Janusz Cukras,            University of Trieste,        Italy       (MChD in RESPONS)
  Paal Dahle,               University of Oslo,           Norway      (Parallelization)
  Erik K. Dalskov,          UNI-C,                        Denmark     (SOPPA)
  Thomas Enevoldsen,        Univ. of Southern Denmark,    Denmark     (SOPPA)
  Janus J. Eriksen,         Aarhus University,            Denmark     (Polarizable embedding model, TDA)
  Rasmus Faber,             University of Copenhagen,     Denmark     (Vib.avg. NMR with SOPPA, parallel AO-SOPPA)
  Berta Fernandez,          U. of Santiago de Compostela, Spain       (doublet spin, ESR in RESPONS)
  Lara Ferrighi,            Aarhus University,            Denmark     (PCM Cubic response)
  Heike Fliegl,             University of Oslo,           Norway      (CCSD(R12))
  Luca Frediani,            UiT The Arctic U. of Norway,  Norway      (PCM)
  Bin Gao,                  UiT The Arctic U. of Norway,  Norway      (Gen1Int library)
  Christof Haettig,         Ruhr-University Bochum,       Germany     (CC module)
  Kasper Hald,              Aarhus University,            Denmark     (CC module)
  Asger Halkier,            Aarhus University,            Denmark     (CC module)
  Frederik Beyer Hansen,    University of Copenhagen,     Denmark     (Parallel AO-SOPPA)
  Erik D. Hedegaard,        Univ. of Southern Denmark,    Denmark     (Polarizable embedding model, QM/MM)
  Hanne Heiberg,            University of Oslo,           Norway      (geometry analysis, selected one-electron integrals)
  Trygve Helgaker,          University of Oslo,           Norway      (DALTON; ABACUS, ERI, DFT modules, London, and much more)
  Alf Christian Hennum,     University of Oslo,           Norway      (Parity violation)
  Hinne Hettema,            University of Auckland,       New Zealand (quadratic response in RESPONS; SIRIUS supersymmetry)
  Eirik Hjertenaes,         NTNU,                         Norway      (Cholesky decomposition)
  Pi A. B. Haase,           University of Copenhagen,     Denmark     (Triplet AO-SOPPA)
  Maria Francesca Iozzi,    University of Oslo,           Norway      (RPA)
  Brano Jansik              Technical Univ. of Ostrava    Czech Rep.  (DFT cubic response)
  Hans Joergen Aa. Jensen,  Univ. of Southern Denmark,    Denmark     (DALTON; SIRIUS, RESPONS, ABACUS modules, London, and much more)
  Dan Jonsson,              UiT The Arctic U. of Norway,  Norway      (cubic response in RESPONS module)
  Poul Joergensen,          Aarhus University,            Denmark     (RESPONS, ABACUS, and CC modules)
  Maciej Kaminski,          University of Warsaw,         Poland      (CPPh in RESPONS)
  Joanna Kauczor,           Linkoeping University,        Sweden      (Complex polarization propagator (CPP) module)
  Sheela Kirpekar,          Univ. of Southern Denmark,    Denmark     (Mass-velocity & Darwin integrals)
  Wim Klopper,              KIT Karlsruhe,                Germany     (R12 code in CC, SIRIUS, and ABACUS modules)
  Stefan Knecht,            ETH Zurich,                   Switzerland (Parallel CI and MCSCF)
  Rika Kobayashi,           Australian National Univ.,    Australia   (DIIS in CC, London in MCSCF)
  Henrik Koch,              NTNU,                         Norway      (CC module, Cholesky decomposition)
  Jacob Kongsted,           Univ. of Southern Denmark,    Denmark     (Polarizable embedding model, QM/MM)
  Andrea Ligabue,           University of Modena,         Italy       (CTOCD, AOSOPPA)
  Nanna H. List             Univ. of Southern Denmark,    Denmark     (Polarizable embedding model)
  Ola B. Lutnaes,           University of Oslo,           Norway      (DFT Hessian)
  Juan I. Melo,             University of Buenos Aires,   Argentina   (LRESC, Relativistic Effects on NMR Shieldings)
  Kurt V. Mikkelsen,        University of Copenhagen,     Denmark     (MC-SCRF and QM/MM)
  Rolf H. Myhre,            NTNU,                         Norway      (Cholesky, subsystems and ECC2)
  Christian Neiss,          Univ. Erlangen-Nuernberg,     Germany     (CCSD(R12))
  Christian B. Nielsen,     University of Copenhagen,     Denmark     (QM/MM)
  Patrick Norman,           Linkoeping University,        Sweden      (Cubic response and complex frequency response in RESPONS)
  Jeppe Olsen,              Aarhus University,            Denmark     (SIRIUS CI/density modules)
  Jogvan Magnus H. Olsen,   Univ. of Southern Denmark,    Denmark     (Polarizable embedding model, QM/MM)
  Anders Osted,             Copenhagen University,        Denmark     (QM/MM)
  Martin J. Packer,         University of Sheffield,      UK          (SOPPA)
  Filip Pawlowski,          Kazimierz Wielki University,  Poland      (CC3)
  Morten N. Pedersen,       Univ. of Southern Denmark,    Denmark     (Polarizable embedding model)
  Thomas B. Pedersen,       University of Oslo,           Norway      (Cholesky decomposition)
  Patricio F. Provasi,      University of Northeastern,   Argentina   (Analysis of coupling constants in localized orbitals)
  Zilvinas Rinkevicius,     KTH Stockholm,                Sweden      (open-shell DFT, ESR)
  Elias Rudberg,            KTH Stockholm,                Sweden      (DFT grid and basis info)
  Torgeir A. Ruden,         University of Oslo,           Norway      (Numerical derivatives in ABACUS)
  Kenneth Ruud,             UiT The Arctic U. of Norway,  Norway      (DALTON; ABACUS magnetic properties and much more)
  Pawel Salek,              KTH Stockholm,                Sweden      (DALTON; DFT code)
  Claire C. M. Samson       University of Karlsruhe       Germany     (Boys localization, r12 integrals in ERI)
  Alfredo Sanchez de Meras, University of Valencia,       Spain       (CC module, Cholesky decomposition)
  Trond Saue,               Paul Sabatier University,     France      (direct Fock matrix construction)
  Stephan P. A. Sauer,      University of Copenhagen,     Denmark     (SOPPA(CCSD), SOPPA prop., AOSOPPA, vibrational g-factors)
  Bernd Schimmelpfennig,    Forschungszentrum Karlsruhe,  Germany     (AMFI module)
  Kristian Sneskov,         Aarhus University,            Denmark     (Polarizable embedding model, QM/MM)
  Arnfinn H. Steindal,      UiT The Arctic U. of Norway,  Norway      (parallel QM/MM, Polarizable embedding model)
  Casper Steinmann,         Univ. of Southern Denmark,    Denmark     (QFIT, Polarizable embedding model)
  K. O. Sylvester-Hvid,     University of Copenhagen,     Denmark     (MC-SCRF)
  Peter R. Taylor,          VLSCI/Univ. of Melbourne,     Australia   (Symmetry handling ABACUS, integral transformation)
  Andrew M. Teale,          University of Nottingham,     England     (DFT-AC, DFT-D)
  David P. Tew,             University of Bristol,        England     (CCSD(R12))
  Olav Vahtras,             KTH Stockholm,                Sweden      (triplet response, spin-orbit, ESR, TDDFT, open-shell DFT)
  David J. Wilson,          La Trobe University,          Australia   (DFT Hessian and DFT magnetizabilities)
  Hans Agren,               KTH Stockholm,                Sweden      (SIRIUS module, RESPONS, MC-SCRF solvation model)
 --------------------------------------------------------------------------------

     Date and time (Linux)  : Sun Mar 11 23:22:41 2018
     Host name              : foeroyar                                

 * Work memory size             :    64000000 =  488.28 megabytes.

 * Directories for basis set searches:
   1) /home/magnus/Projects/dalton_devel/dalton-foeroyingur/build/test/pehf_isopol
   2) /home/magnus/Projects/dalton_devel/dalton-foeroyingur/build/basis


Compilation information
-----------------------

 Who compiled             | magnus
 Host                     | foeroyar
 System                   | Linux-4.15.6-300.fc27.x86_64
 CMake generator          | Unix Makefiles
 Processor                | x86_64
 64-bit integers          | OFF
 MPI                      | OFF
 Fortran compiler         | /usr/bin/gfortran
 Fortran compiler version | GNU Fortran (GCC) 7.3.1 20180303 (Red Hat 7.3.1-5)
 C compiler               | /usr/bin/gcc
 C compiler version       | gcc (GCC) 7.3.1 20180303 (Red Hat 7.3.1-5)
 C++ compiler             | /usr/bin/g++
 C++ compiler version     | g++ (GCC) 7.3.1 20180303 (Red Hat 7.3.1-5)
 BLAS                     | /home/magnus/Programs/intel/compilers_and_librarie
                          | s_2018.1.163/linux/mkl/lib/intel64/libmkl_gf_lp64.
                          | so;/home/magnus/Programs/intel/compilers_and_libra
                          | ries_2018.1.163/linux/mkl/lib/intel64/libmkl_seque
                          | ntial.so;/home/magnus/Programs/intel/compilers_and
                          | _libraries_2018.1.163/linux/mkl/lib/intel64/libmkl
                          | _core.so;/usr/lib64/libpthread.so;/usr/lib64/libm.
                          | so
 LAPACK                   | /home/magnus/Programs/intel/compilers_and_librarie
                          | s_2018.1.163/linux/mkl/lib/intel64/libmkl_lapack95
                          | _lp64.a;/home/magnus/Programs/intel/compilers_and_
                          | libraries_2018.1.163/linux/mkl/lib/intel64/libmkl_
                          | gf_lp64.so
 Static linking           | OFF
 Last Git revision        | c26c19694269d0231f4416cb83b028f9456ffab8
 Git branch               | add-multipole-interaction
 Configuration time       | 2018-03-11 23:22:22.832814


   Content of the .dal input file
 ----------------------------------

**DALTON
.RUN WAVE FUNCTION
.PEQM
*PEQM
.ISOPOL
**WAVE FUNCTIONS
.HF
**END OF


   Content of the .mol file
 ----------------------------

BASIS
STO-3G
Acrolein
------------------------
AtomTypes=3 NoSymmetry Angstrom
Charge=6.0 Atoms=3
C             -0.145335   -0.546770    0.000607
C              1.274009   -0.912471   -0.000167
C              1.630116   -2.207690   -0.000132
Charge=8.0 Atoms=1
O             -0.560104    0.608977    0.000534
Charge=1.0 Atoms=4
H             -0.871904   -1.386459    0.001253
H              2.004448   -0.101417   -0.000710
H              0.879028   -3.000685    0.000484
H              2.675323   -2.516779   -0.000673


       *******************************************************************
       *********** Output from DALTON general input processing ***********
       *******************************************************************

 --------------------------------------------------------------------------------
   Overall default print level:    0
   Print level for DALTON.STAT:    1

    HERMIT 1- and 2-electron integral sections will be executed
    "Old" integral transformation used (limited to max 255 basis functions)
    Wave function sections will be executed (SIRIUS module)
    Environment is modeled using polarizable embedding scheme (PE library)
 --------------------------------------------------------------------------------


   ****************************************************************************
   *************** Output of molecule and basis set information ***************
   ****************************************************************************


    The two title cards from your ".mol" input:
    ------------------------------------------------------------------------
 1: Acrolein                                                                
 2: ------------------------                                                
    ------------------------------------------------------------------------

  Coordinates are entered in Angstrom and converted to atomic units.
          - Conversion factor : 1 bohr = 0.52917721 A

  Atomic type no.    1
  --------------------
  Nuclear charge:   6.00000
  Number of symmetry independent centers:    3
  Number of basis sets to read;    2
  Basis set file used for this atomic type with Z =   6 :
     "/home/magnus/Projects/dalton_devel/dalton-foeroyingur/build/basis/STO-3G"

  Atomic type no.    2
  --------------------
  Nuclear charge:   8.00000
  Number of symmetry independent centers:    1
  Number of basis sets to read;    2
  Basis set file used for this atomic type with Z =   8 :
     "/home/magnus/Projects/dalton_devel/dalton-foeroyingur/build/basis/STO-3G"

  Atomic type no.    3
  --------------------
  Nuclear charge:   1.00000
  Number of symmetry independent centers:    4
  Number of basis sets to read;    2
  Basis set file used for this atomic type with Z =   1 :
     "/home/magnus/Projects/dalton_devel/dalton-foeroyingur/build/basis/STO-3G"


                         SYMGRP: Point group information
                         -------------------------------

@    Point group: C1 


                                 Isotopic Masses
                                 ---------------

                           C          12.000000
                           C          12.000000
                           C          12.000000
                           O          15.994915
                           H           1.007825
                           H           1.007825
                           H           1.007825
                           H           1.007825

                       Total mass:    56.026215 amu
                       Natural abundance:  96.446 %

 Center-of-mass coordinates (a.u.):    0.973773   -1.393790    0.000425


  Atoms and basis sets
  --------------------

  Number of atom types :    3
  Total number of atoms:    8

  Basis set used is "STO-3G" from the basis set library.

  label    atoms   charge   prim   cont     basis
  ----------------------------------------------------------------------
  C           3    6.0000    15     5      [6s3p|2s1p]                                        
  O           1    8.0000    15     5      [6s3p|2s1p]                                        
  H           4    1.0000     3     1      [3s|1s]                                            
  ----------------------------------------------------------------------
  total:      8   30.0000    72    24
  ----------------------------------------------------------------------

  Threshold for neglecting AO integrals:  1.00D-12


  Cartesian Coordinates (a.u.)
  ----------------------------

  Total number of coordinates:   24
  C       :     1  x  -0.2746433464    2  y  -1.0332455534    3  z   0.0011470638
  C       :     4  x   2.4075280908    5  y  -1.7243202870    6  z  -0.0003155843
  C       :     7  x   3.0804727920    8  y  -4.1719294689    9  z  -0.0002494438
  O       :    10  x  -1.0584431615   11  y   1.1507997464   12  z   0.0010091138
  H       :    13  x  -1.6476597673   14  y  -2.6200277935   15  z   0.0023678268
  H       :    16  x   3.7878577518   17  y  -0.1916503544   18  z  -0.0013417055
  H       :    19  x   1.6611221762   20  y  -5.6704728374   21  z   0.0009146274
  H       :    22  x   5.0556277659   23  y  -4.7560230271   24  z  -0.0012717857


   Interatomic separations (in Angstrom):
   --------------------------------------

            C           C           C           O           H           H     
            ------      ------      ------      ------      ------      ------
 C     :    0.000000
 C     :    1.465700    0.000000
 C     :    2.431231    1.343281    0.000000
 O     :    1.227919    2.383018    3.568007    0.000000
 H     :    1.110397    2.197637    2.633349    2.019650    0.000000
 H     :    2.195429    1.091490    2.139278    2.661125    3.150355    0.000000
 H     :    2.659139    2.125241    1.092234    3.885970    2.381489    3.110036
 H     :    3.440501    2.130137    1.089951    4.498704    3.722962    2.506800

            H           H     
            ------      ------
 H     :    0.000000
 H     :    1.860334    0.000000


  Max    interatomic separation is    4.4987 Angstrom (    8.5013 Bohr)
  between atoms    8 and    4, "H     " and "O     ".

  Min HX interatomic separation is    1.0900 Angstrom (    2.0597 Bohr)

  Min YX interatomic separation is    1.2279 Angstrom (    2.3204 Bohr)


  Bond distances (Angstrom):
  --------------------------

                  atom 1     atom 2       distance
                  ------     ------       --------
  bond distance:  C          C            1.465700
  bond distance:  C          C            1.343281
  bond distance:  O          C            1.227919
  bond distance:  H          C            1.110397
  bond distance:  H          C            1.091490
  bond distance:  H          C            1.092234
  bond distance:  H          C            1.089951


  Bond angles (degrees):
  ----------------------

                  atom 1     atom 2     atom 3         angle
                  ------     ------     ------         -----
  bond angle:     C          C          O            124.190
  bond angle:     C          C          H            116.421
  bond angle:     O          C          H            119.389
  bond angle:     C          C          C            119.821
  bond angle:     C          C          H            117.558
  bond angle:     C          C          H            122.621
  bond angle:     C          C          H            121.182
  bond angle:     C          C          H            121.847
  bond angle:     H          C          H            116.971




 Principal moments of inertia (u*A**2) and principal axes
 --------------------------------------------------------

   IA      10.696865         -0.668732    0.743503    0.000230
   IB     108.794831          0.743503    0.668732   -0.000587
   IC     119.491696          0.000590    0.000221    1.000000


 Rotational constants
 --------------------

@    The molecule is planar.

               A                   B                   C

          47245.5253           4645.2483           4229.4069 MHz
            1.575941            0.154949            0.141078 cm-1


@  Nuclear repulsion energy :  102.664846860515 Hartree

  Reading potential input file for polarizable embedding calculation

    .------------------------------------------------.
    | Information from polarizable embedding library |
    `------------------------------------------------´

      Number of classical sites:     10

      Multipole moments upto 3rd order.

      Dipole-dipole polarizabilities.

      Iterative solver for induced moments will be used
      with convergence threshold: 1.0E-08
      Total charge of classical region:    0.0000
 


                     .---------------------------------------.
                     | Starting in Integral Section (HERMIT) |
                     `---------------------------------------'



 ***************************************************************************************
 ****************** Output from **INTEGRALS input processing (HERMIT) ******************
 ***************************************************************************************


 - Using defaults, no **INTEGRALS input found

 Default print level:        1

 * Nuclear model: Point charge

 Calculation of one- and two-electron Hamiltonian integrals.

 Center of mass  (bohr):      0.973773359129     -1.393789716280      0.000424788898
 Operator center (bohr):      0.000000000000      0.000000000000      0.000000000000
 Gauge origin    (bohr):      0.000000000000      0.000000000000      0.000000000000
 Dipole origin   (bohr):      0.000000000000      0.000000000000      0.000000000000


     ************************************************************************
     ************************** Output from HERINT **************************
     ************************************************************************



                      Nuclear contribution to dipole moments
                      --------------------------------------

                 au               Debye          C m (/(10**-30)

      x     31.66954785        80.49595632       268.50560837
      y    -45.60874790      -115.92586657      -386.68706791
      z      0.01223409         0.03109595         0.10372491



 Threshold for neglecting two-electron integrals:  1.00D-12
 HERMIT - Number of two-electron integrals written:       43383 ( 96.1% )
 HERMIT - Megabytes written:                              0.502

  Time used in TWOINT     is       0.26 seconds
  Total CPU  time used in HERMIT:   0.34 seconds
  Total wall time used in HERMIT:   0.34 seconds


                        .----------------------------------.
                        | End of Integral Section (HERMIT) |
                        `----------------------------------'



                   .--------------------------------------------.
                   | Starting in Wave Function Section (SIRIUS) |
                   `--------------------------------------------'


 *** Output from Huckel module :

     Using EWMO model:          T
     Using EHT  model:          F
     Number of Huckel orbitals each symmetry:   24

 EWMO - Energy Weighted Maximum Overlap - is a Huckel type method,
        which normally is better than Extended Huckel Theory.
 Reference: Linderberg and Ohrn, Propagators in Quantum Chemistry (Wiley, 1973)

 Huckel EWMO eigenvalues for symmetry :  1
          -20.684561     -11.357400     -11.351264     -11.346036      -1.724840
           -1.477979      -1.046134      -1.031570      -0.744448      -0.729231
           -0.672044      -0.551742      -0.540543      -0.516178      -0.438809
           -0.319925      -0.220785      -0.162868      -0.131432      -0.129120
           -0.123435      -0.114530      -0.093199      -0.085427

 **********************************************************************
 *SIRIUS* a direct, restricted step, second order MCSCF program       *
 **********************************************************************

 
     Date and time (Linux)  : Sun Mar 11 23:22:41 2018
     Host name              : foeroyar                                

 Title lines from ".mol" input file:
     Acrolein                                                                
     ------------------------                                                

 Print level on unit LUPRI =   2 is   0
 Print level on unit LUW4  =   2 is   5

@    Restricted, closed shell Hartree-Fock calculation.

 Initial molecular orbitals are obtained according to
 ".MOSTART EWMO  " input option

@    QM part is embedded in an environment :

@         Model: PE

     Wave function specification
     ============================

     Wave function environment is modeled using the
     polarizable embedding model (PE library).

@    Wave function type        --- PE-HF ---
@    Number of closed shell electrons          30
@    Number of electrons in active shells       0
@    Total charge of the molecule               0

@    Spin multiplicity and 2 M_S                1         0
@    Total number of symmetries                 1 (point group: C1 )
@    Reference state symmetry                   1 (irrep name : A  )

     Orbital specifications
     ======================
@    Abelian symmetry species          All |    1
@                                          |  A  
                                       --- |  ---
@    Occupied SCF orbitals              15 |   15
@    Secondary orbitals                  9 |    9
@    Total number of orbitals           24 |   24
@    Number of basis functions          24 |   24

     Optimization information
     ========================
@    Number of configurations                 1
@    Number of orbital rotations            135
     ------------------------------------------
@    Total number of variables              136

     Maximum number of Fock   iterations      0
     Maximum number of DIIS   iterations     60
     Maximum number of QC-SCF iterations     60
     Threshold for SCF convergence     1.00D-05


 ***********************************************
 ***** DIIS acceleration of SCF iterations *****
 ***********************************************

 C1-DIIS algorithm; max error vectors =    8

 Iter      Total energy     Embedding energy      Error norm     Delta(E)
 -----------------------------------------------------------------------------

Calculating AOSUPINT
     (Precalculated AO two-electron integrals are transformed to P-supermatrix elements.
      Threshold for discarding integrals :  1.00D-12 )
@  1  -187.945752872     -4.594001588209E-02    2.01668D+00   -1.88D+02
      Virial theorem: -V/T =      2.003042
@    MULPOP   C       0.93; C       0.24; C       0.42; O      -1.03; H      -0.16; H      -0.14; H      -0.12; H      -0.13; 
   1  Level shift: doubly occupied orbital energies shifted by -2.00D-01
 -----------------------------------------------------------------------------
@  2  -188.275536838     -7.705035506414E-03    7.51748D-01   -3.30D-01
      Virial theorem: -V/T =      2.009184
@    MULPOP   C      -0.14; C      -0.12; C      -0.13; O       0.05; H       0.05; H       0.11; H       0.09; H       0.09; 
   2  Level shift: doubly occupied orbital energies shifted by -1.00D-01
 -----------------------------------------------------------------------------
@  3  -188.314150432     -1.750554593319E-02    1.09240D-01   -3.86D-02
      Virial theorem: -V/T =      2.007953
@    MULPOP   C       0.16; C      -0.10; C      -0.11; O      -0.26; H       0.05; H       0.09; H       0.08; H       0.08; 
   3  Level shift: doubly occupied orbital energies shifted by -2.50D-02
 -----------------------------------------------------------------------------
@  4  -188.315928380     -1.788389167015E-02    3.05281D-02   -1.78D-03
      Virial theorem: -V/T =      2.007873
@    MULPOP   C       0.14; C      -0.09; C      -0.09; O      -0.27; H       0.07; H       0.10; H       0.07; H       0.08; 
   4  Level shift: doubly occupied orbital energies shifted by -1.25D-02
 -----------------------------------------------------------------------------
@  5  -188.316105270     -1.782317581210E-02    1.13714D-02   -1.77D-04
      Virial theorem: -V/T =      2.007840
@    MULPOP   C       0.14; C      -0.09; C      -0.10; O      -0.27; H       0.07; H       0.10; H       0.07; H       0.08; 
 -----------------------------------------------------------------------------
@  6  -188.316124346     -1.783018126165E-02    2.95110D-03   -1.91D-05
      Virial theorem: -V/T =      2.007842
@    MULPOP   C       0.14; C      -0.09; C      -0.10; O      -0.27; H       0.07; H       0.10; H       0.07; H       0.08; 
 -----------------------------------------------------------------------------
@  7  -188.316126007     -1.782036930096E-02    1.03702D-03   -1.66D-06
      Virial theorem: -V/T =      2.007844
@    MULPOP   C       0.14; C      -0.09; C      -0.10; O      -0.27; H       0.07; H       0.10; H       0.07; H       0.08; 
 -----------------------------------------------------------------------------
@  8  -188.316126169     -1.781841334030E-02    3.19829D-04   -1.62D-07
      Virial theorem: -V/T =      2.007845
@    MULPOP   C       0.14; C      -0.09; C      -0.10; O      -0.27; H       0.07; H       0.10; H       0.07; H       0.08; 
 -----------------------------------------------------------------------------
@  9  -188.316126186     -1.781702410278E-02    5.62439D-05   -1.76D-08
      Virial theorem: -V/T =      2.007845
@    MULPOP   C       0.14; C      -0.09; C      -0.10; O      -0.27; H       0.07; H       0.10; H       0.07; H       0.08; 
 -----------------------------------------------------------------------------
@ 10  -188.316126187     -1.781682238983E-02    9.20138D-06   -5.19D-10

@ *** DIIS converged in  10 iterations !
@     Converged SCF energy, gradient:   -188.316126186639    9.20D-06
    - total time used in SIRFCK :              0.00 seconds


 *** SCF orbital energy analysis ***
   (incl. contribution from polarizable embedding potential)

 Number of electrons :   30
 Orbital occupations :   15

 Sym       Hartree-Fock orbital energies

1 A     -20.28662019   -11.13861865   -11.05463176   -11.04557145    -1.34158004
         -1.02284021    -0.82739600    -0.73548602    -0.61555525    -0.60419684
         -0.52220078    -0.50297388    -0.47758286    -0.36174311    -0.32480747
          0.20517612     0.38409476     0.59674165     0.62711255     0.66023810
          0.73848674     0.84304154     0.92772896     1.04032211

    E(LUMO) :     0.20517612 au (symmetry 1)
  - E(HOMO) :    -0.32480747 au (symmetry 1)
  ------------------------------------------
    gap     :     0.52998360 au

    .--------------------------------------------------.
    | Final results from polarizable embedding library |
    `--------------------------------------------------´

        Polarizable embedding energy contributions:
       ---------------------------------------------

       Electrostatic contributions:
            Electronic                -0.467133252306
            Nuclear                    0.448807800596
            Multipole                  0.001021874822
            Total                     -0.017303576887

       Polarization contributions:
            Electronic                -0.027439156996
            Nuclear                    0.026835116777
            Multipole                  0.000090794717
            Total                     -0.000513245503

       Total PE energy:            -0.017816822390

 --- Writing SIRIFC interface file

 CPU and wall time for SCF :       0.505       0.507


                       .-----------------------------------.
                       | --- Final results from SIRIUS --- |
                       `-----------------------------------'


@    Spin multiplicity:           1
@    Spatial symmetry:            1 ( irrep  A   in C1  )
@    Total charge of molecule:    0

@    Final HF energy:            -188.316126186639                 
@    Nuclear repulsion:           102.664846860515
@    Electronic energy:          -290.963156224765
@    Embedding energy:             -0.017816822390

@    Final gradient norm:           0.000009201383

 
     Date and time (Linux)  : Sun Mar 11 23:22:42 2018
     Host name              : foeroyar                                

File label for MO orbitals:  11Mar18   FOCKDIIS

 (Only coefficients > 0.0100 are printed.)

 Molecular orbitals for symmetry species 1  (A  )
 ------------------------------------------------

    Orbital         1        2        3        4        5        6        7
   1 C   :1s    -0.0005  -0.9926   0.0004   0.0013   0.1234  -0.0655   0.1391
   2 C   :1s     0.0071  -0.0332  -0.0000  -0.0065  -0.2837   0.1849  -0.4280
   3 C   :2px   -0.0021  -0.0003  -0.0001  -0.0043   0.0476   0.1136  -0.1060
   4 C   :2py    0.0059  -0.0005   0.0002   0.0011  -0.1463  -0.0899   0.1306
   6 C   :1s     0.0000   0.0004   0.0399   0.9914   0.0214  -0.1794   0.0533
   7 C   :1s    -0.0003   0.0061  -0.0062   0.0366  -0.0516   0.4698  -0.1586
   8 C   :2px    0.0000  -0.0040  -0.0012  -0.0004   0.0282  -0.0163   0.1812
   9 C   :2py   -0.0006   0.0013   0.0043  -0.0016  -0.0077  -0.0929  -0.1653
  11 C   :1s    -0.0000   0.0003   0.9915  -0.0392   0.0045  -0.1572  -0.1474
  12 C   :1s    -0.0001  -0.0001   0.0353  -0.0092  -0.0108   0.4162   0.4325
  13 C   :2px   -0.0001  -0.0000  -0.0004   0.0013   0.0023  -0.0397   0.0557
  14 C   :2py   -0.0000   0.0000   0.0012  -0.0045  -0.0055   0.1050  -0.0569
  16 O   :1s    -0.9943  -0.0002   0.0000  -0.0000   0.2184   0.0460  -0.0786
  17 O   :1s    -0.0260   0.0058  -0.0001   0.0003  -0.7668  -0.1798   0.3402
  18 O   :2px   -0.0019   0.0007  -0.0000   0.0002  -0.0542   0.0216  -0.0697
  19 O   :2py    0.0052  -0.0016   0.0001  -0.0001   0.1485  -0.0076   0.1115
  21 H   :1s    -0.0002   0.0065  -0.0001   0.0001  -0.0318   0.0479  -0.1539
  22 H   :1s     0.0002  -0.0000  -0.0002  -0.0067  -0.0083   0.0990  -0.0512
  23 H   :1s     0.0000   0.0001  -0.0067   0.0004  -0.0019   0.0984   0.1509
  24 H   :1s     0.0000   0.0001  -0.0067   0.0004  -0.0011   0.0902   0.1897

    Orbital         8        9       10       11       12       13       14
   1 C   :1s    -0.0910   0.0072   0.0548   0.0047   0.0289  -0.0000  -0.0049
   2 C   :1s     0.2958  -0.0211  -0.1860  -0.0111  -0.1106   0.0000   0.0176
   3 C   :2px   -0.2390  -0.3747   0.0211   0.0867  -0.2007   0.0004   0.2001
   4 C   :2py   -0.1718  -0.1147  -0.2325  -0.3691   0.0761   0.0002   0.0581
   5 C   :2pz    0.0002   0.0003   0.0000   0.0001   0.0002   0.5625  -0.0001
   6 C   :1s     0.1077  -0.0310  -0.0343   0.0046  -0.0184   0.0000  -0.0359
   7 C   :1s    -0.3318   0.1021   0.0978  -0.0020   0.0801  -0.0000   0.1575
   8 C   :2px   -0.1331   0.3078  -0.0766  -0.0561   0.2264   0.0001  -0.3132
   9 C   :2py   -0.1450  -0.0718  -0.2781   0.3252   0.2481   0.0000   0.0577
  10 C   :2pz    0.0001  -0.0002   0.0001  -0.0000  -0.0001   0.2917   0.0002
  11 C   :1s    -0.0568   0.0158   0.0141   0.0233   0.0105  -0.0000   0.0069
  12 C   :1s     0.1775  -0.0648  -0.0630  -0.0649  -0.0293   0.0000  -0.0216
  13 C   :2px   -0.0491   0.1942  -0.3272   0.1903  -0.3527   0.0001   0.0730
  14 C   :2py   -0.1709   0.2748   0.2289  -0.2836  -0.2253   0.0001  -0.0642
  15 C   :2pz    0.0001  -0.0002   0.0001  -0.0000   0.0003   0.1873  -0.0001
  16 O   :1s     0.0422   0.0013  -0.0747  -0.0568   0.0112  -0.0000  -0.0014
  17 O   :1s    -0.1931  -0.0084   0.3813   0.3154  -0.0646   0.0000   0.0094
  18 O   :2px   -0.1240  -0.3456  -0.2222  -0.1879  -0.2243   0.0004  -0.7926
  19 O   :2py   -0.1717  -0.1262   0.3526   0.4961  -0.1838   0.0002  -0.2836
  20 O   :2pz    0.0001   0.0003   0.0000  -0.0000   0.0003   0.5777   0.0006
  21 H   :1s     0.2762   0.2009   0.0383   0.2024   0.0098  -0.0000  -0.3536
  22 H   :1s    -0.2443   0.1541  -0.1389   0.1760   0.3455  -0.0001  -0.1247
  23 H   :1s     0.1770  -0.2787   0.0202   0.0459   0.3825  -0.0000  -0.0584
  24 H   :1s     0.0717   0.0546  -0.3228   0.2063  -0.2840   0.0000   0.1039

    Orbital        15       16       17       18       19       20       21
   1 C   :1s     0.0000   0.0000   0.0000   0.0142  -0.1917   0.0177  -0.0007
   2 C   :1s    -0.0000  -0.0000  -0.0000  -0.0879   1.1838  -0.1146   0.0220
   3 C   :2px    0.0001  -0.0003  -0.0004  -0.3378   0.0349  -0.0617  -0.8905
   4 C   :2py    0.0000  -0.0001  -0.0002  -0.2790  -0.4583   0.1678  -0.2495
   5 C   :2pz    0.1696  -0.5366  -0.6708   0.0003   0.0001  -0.0000   0.0006
   6 C   :1s    -0.0000  -0.0000   0.0000   0.0517   0.1061   0.0121  -0.1868
   7 C   :1s     0.0000   0.0000  -0.0000  -0.3185  -0.6269  -0.0473   1.2330
   8 C   :2px   -0.0003  -0.0002   0.0004  -0.5132   0.4221  -0.1285   0.0048
   9 C   :2py   -0.0001  -0.0001   0.0001  -0.3430  -0.2333   0.2851   0.2003
  10 C   :2pz   -0.5659  -0.4000   0.7303   0.0003  -0.0002   0.0000  -0.0000
  11 C   :1s    -0.0000   0.0000  -0.0000  -0.0042  -0.0389  -0.2035   0.0529
  12 C   :1s     0.0000  -0.0000   0.0000   0.0120   0.2270   1.3026  -0.3331
  13 C   :2px   -0.0003   0.0004  -0.0003  -0.6029   0.3042   0.0474  -0.0086
  14 C   :2py   -0.0001   0.0001  -0.0001  -0.1966  -0.0364  -0.4672  -0.4171
  15 C   :2pz   -0.5857   0.6326  -0.5301   0.0004  -0.0002   0.0001   0.0001
  16 O   :1s    -0.0000  -0.0000  -0.0000  -0.0178   0.0223   0.0101   0.0039
  17 O   :1s     0.0000   0.0000   0.0000   0.1245  -0.1271  -0.0742  -0.0283
  18 O   :2px    0.0003   0.0003   0.0003   0.1656  -0.0370  -0.0319   0.2195
  19 O   :2py    0.0001   0.0002   0.0001  -0.1106   0.1901   0.0784   0.1262
  20 O   :2pz    0.4123   0.5832   0.4476  -0.0001  -0.0000  -0.0000  -0.0002
  21 H   :1s     0.0000   0.0000  -0.0000  -0.3593  -0.9170   0.1878  -0.6375
  22 H   :1s     0.0000   0.0000   0.0001   0.8186   0.2524  -0.0677  -0.6986
  23 H   :1s     0.0000   0.0000  -0.0000  -0.5800   0.1106  -0.9322  -0.0678
  24 H   :1s    -0.0000   0.0000   0.0000   0.5290  -0.4416  -0.8053   0.0781

    Orbital        22       23       24
   1 C   :1s    -0.1184   0.0248  -0.0388
   2 C   :1s     0.7782  -0.1788   0.2561
   3 C   :2px   -0.1848  -0.6842  -0.1196
   4 C   :2py    0.6534   0.2358   0.8372
   6 C   :1s     0.0535   0.0302  -0.0695
   7 C   :1s    -0.3755  -0.2457   0.5460
   8 C   :2px    0.2001  -0.9718  -0.1122
   9 C   :2py    0.4633   0.3094  -1.0291
  11 C   :1s    -0.0307  -0.0449   0.0840
  12 C   :1s     0.2258   0.3343  -0.6637
  13 C   :2px   -0.6957   0.5631   0.3679
  14 C   :2py    0.4005   0.6969  -0.7159
  16 O   :1s     0.0882   0.0265   0.0682
  17 O   :1s    -0.6325  -0.2002  -0.5186
  18 O   :2px   -0.2580   0.0465  -0.2005
  19 O   :2py    0.6633   0.2391   0.4946
  21 H   :1s    -0.0794  -0.1652   0.2453
  22 H   :1s    -0.2407   0.4025   0.3747
  23 H   :1s    -0.2212   0.5469   0.0473
  24 H   :1s     0.5320  -0.3788  -0.1525

  Total CPU  time used in SIRIUS :   0.51 seconds
  Total wall time used in SIRIUS :   0.51 seconds

 
     Date and time (Linux)  : Sun Mar 11 23:22:42 2018
     Host name              : foeroyar                                


                     .---------------------------------------.
                     | End of Wave Function Section (SIRIUS) |
                     `---------------------------------------'

  Total CPU  time used in DALTON:   0.86 seconds
  Total wall time used in DALTON:   0.86 seconds

 
     Date and time (Linux)  : Sun Mar 11 23:22:42 2018
     Host name              : foeroyar                                
