

     ************************************************************************
     *************** Dalton - An Electronic Structure Program ***************
     ************************************************************************

    This is output from DALTON (Release Dalton2013 patch 0)
   ----------------------------------------------------------------------------
    NOTE:
     
    Dalton is an experimental code for the evaluation of molecular
    properties using (MC)SCF, DFT, CI, and CC wave functions.
    The authors accept no responsibility for the performance of
    the code or for the correctness of the results.
     
    The code (in whole or part) is provided under a licence and
    is not to be reproduced for further distribution without
    the written permission of the authors or their representatives.
     
    See the home page "http://daltonprogram.org" for further information.
     
    If results obtained with this code are published,
    the appropriate citations would be both of:
     
       K. Aidas, C. Angeli, K. L. Bak, V. Bakken, R. Bast,
       L. Boman, O. Christiansen, R. Cimiraglia, S. Coriani,
       P. Dahle, E. K. Dalskov, U. Ekstroem, T. Enevoldsen,
       J. J. Eriksen, P. Ettenhuber, B. Fernandez, L. Ferrighi,
       H. Fliegl, L. Frediani, K. Hald, A. Halkier, C. Haettig,
       H. Heiberg, T. Helgaker, A. C. Hennum, H. Hettema,
       E. Hjertenaes, S. Hoest, I.-M. Hoeyvik, M. F. Iozzi,
       B. Jansik, H. J. Aa. Jensen, D. Jonsson, P. Joergensen,
       J. Kauczor, S. Kirpekar, T. Kjaergaard, W. Klopper,
       S. Knecht, R. Kobayashi, H. Koch, J. Kongsted, A. Krapp,
       K. Kristensen, A. Ligabue, O. B. Lutnaes, J. I. Melo,
       K. V. Mikkelsen, R. H. Myhre, C. Neiss, C. B. Nielsen,
       P. Norman, J. Olsen, J. M. H. Olsen, A. Osted,
       M. J. Packer, F. Pawlowski, T. B. Pedersen, P. F. Provasi,
       S. Reine, Z. Rinkevicius, T. A. Ruden, K. Ruud, V. Rybkin,
       P. Salek, C. C. M. Samson, A. Sanchez de Meras, T. Saue,
       S. P. A. Sauer, B. Schimmelpfennig, K. Sneskov,
       A. H. Steindal, K. O. Sylvester-Hvid, P. R. Taylor,
       A. M. Teale, E. I. Tellgren, D. P. Tew, A. J. Thorvaldsen,
       L. Thoegersen, O. Vahtras, M. A. Watson, D. J. D. Wilson,
       M. Ziolkowski and H. Agren.
       The Dalton quantum chemistry program system.
       WIREs Comput. Mol. Sci. 2013. doi: 10.1002/wcms.1172
    
    and
    
       Dalton, a Molecular Electronic Structure Program,
       Release DALTON2013.0 (2013), see http://daltonprogram.org
   ----------------------------------------------------------------------------

    Authors in alphabetical order (major contribution(s) in parenthesis):

  Kestutis Aidas,           Vilnius University,           Lithuania   (QM/MM)
  Celestino Angeli,         University of Ferrara,        Italy       (NEVPT2)
  Keld L. Bak,              UNI-C,                        Denmark     (AOSOPPA, non-adiabatic coupling, magnetic properties)
  Vebjoern Bakken,          University of Oslo,           Norway      (DALTON; geometry optimizer, symmetry detection)
  Radovan Bast,             KTH Stockholm                 Sweden      (DALTON installation and execution frameworks)
  Linus Boman,              NTNU,                         Norway      (Cholesky decomposition and subsystems)
  Ove Christiansen,         Aarhus University,            Denmark     (CC module)
  Renzo Cimiraglia,         University of Ferrara,        Italy       (NEVPT2)
  Sonia Coriani,            University of Trieste,        Italy       (CC module, MCD in RESPONS)
  Paal Dahle,               University of Oslo,           Norway      (Parallelization)
  Erik K. Dalskov,          UNI-C,                        Denmark     (SOPPA)
  Thomas Enevoldsen,        Univ. of Southern Denmark,    Denmark     (SOPPA)
  Janus J. Eriksen,         Aarhus University,            Denmark     (PE-MP2/SOPPA, TDA)
  Berta Fernandez,          U. of Santiago de Compostela, Spain       (doublet spin, ESR in RESPONS)
  Lara Ferrighi,            Aarhus University,            Denmark     (PCM Cubic response)
  Heike Fliegl,             University of Oslo,           Norway      (CCSD(R12))
  Luca Frediani,            UiT The Arctic U. of Norway,  Norway      (PCM)
  Bin Gao,                  UiT The Arctic U. of Norway,  Norway      (Gen1Int library)
  Christof Haettig,         Ruhr-University Bochum,       Germany     (CC module)
  Kasper Hald,              Aarhus University,            Denmark     (CC module)
  Asger Halkier,            Aarhus University,            Denmark     (CC module)
  Hanne Heiberg,            University of Oslo,           Norway      (geometry analysis, selected one-electron integrals)
  Trygve Helgaker,          University of Oslo,           Norway      (DALTON; ABACUS, ERI, DFT modules, London, and much more)
  Alf Christian Hennum,     University of Oslo,           Norway      (Parity violation)
  Hinne Hettema,            University of Auckland,       New Zealand (quadratic response in RESPONS; SIRIUS supersymmetry)
  Eirik Hjertenaes,         NTNU,                         Norway      (Cholesky decomposition)
  Maria Francesca Iozzi,    University of Oslo,           Norway      (RPA)
  Brano Jansik              Technical Univ. of Ostrava    Czech Rep.  (DFT cubic response)
  Hans Joergen Aa. Jensen,  Univ. of Southern Denmark,    Denmark     (DALTON; SIRIUS, RESPONS, ABACUS modules, London, and much more)
  Dan Jonsson,              UiT The Arctic U. of Norway,  Norway      (cubic response in RESPONS module)
  Poul Joergensen,          Aarhus University,            Denmark     (RESPONS, ABACUS, and CC modules)
  Joanna Kauczor,           Linkoeping University,        Sweden      (Complex polarization propagator (CPP) module)
  Sheela Kirpekar,          Univ. of Southern Denmark,    Denmark     (Mass-velocity & Darwin integrals)
  Wim Klopper,              KIT Karlsruhe,                Germany     (R12 code in CC, SIRIUS, and ABACUS modules)
  Stefan Knecht,            ETH Zurich,                   Switzerland (Parallel CI and MCSCF)
  Rika Kobayashi,           Australian National Univ.,    Australia   (DIIS in CC, London in MCSCF)
  Henrik Koch,              NTNU,                         Norway      (CC module, Cholesky decomposition)
  Jacob Kongsted,           Univ. of Southern Denmark,    Denmark     (Polarizable embedding, QM/MM)
  Andrea Ligabue,           University of Modena,         Italy       (CTOCD, AOSOPPA)
  Ola B. Lutnaes,           University of Oslo,           Norway      (DFT Hessian)
  Juan I. Melo,             University of Buenos Aires,   Argentina   (LRESC, Relativistic Effects on NMR Shieldings)
  Kurt V. Mikkelsen,        University of Copenhagen,     Denmark     (MC-SCRF and QM/MM)
  Rolf H. Myhre,            NTNU,                         Norway      (Cholesky, subsystems and ECC2)
  Christian Neiss,          Univ. Erlangen-Nuernberg,     Germany     (CCSD(R12))
  Christian B. Nielsen,     University of Copenhagen,     Denmark     (QM/MM)
  Patrick Norman,           Linkoeping University,        Sweden      (Cubic response and complex response in RESPONS)
  Jeppe Olsen,              Aarhus University,            Denmark     (SIRIUS CI/density modules)
  Jogvan Magnus H. Olsen,   Univ. of Southern Denmark,    Denmark     (Polarizable embedding, PE library, QM/MM)
  Anders Osted,             Copenhagen University,        Denmark     (QM/MM)
  Martin J. Packer,         University of Sheffield,      UK          (SOPPA)
  Filip Pawlowski,          Kazimierz Wielki University   Poland      (CC3)
  Thomas B. Pedersen,       University of Oslo,           Norway      (Cholesky decomposition)
  Patricio F. Provasi,      University of Northeastern,   Argentina   (Analysis of coupling constants in localized orbitals)
  Zilvinas Rinkevicius,     KTH Stockholm,                Sweden      (open-shell DFT, ESR)
  Elias Rudberg,            KTH Stockholm,                Sweden      (DFT grid and basis info)
  Torgeir A. Ruden,         University of Oslo,           Norway      (Numerical derivatives in ABACUS)
  Kenneth Ruud,             UiT The Arctic U. of Norway,  Norway      (DALTON; ABACUS magnetic properties and  much more)
  Pawel Salek,              KTH Stockholm,                Sweden      (DALTON; DFT code)
  Claire C. M. Samson       University of Karlsruhe       Germany     (Boys localization, r12 integrals in ERI)
  Alfredo Sanchez de Meras, University of Valencia,       Spain       (CC module, Cholesky decomposition)
  Trond Saue,               Paul Sabatier University,     France      (direct Fock matrix construction)
  Stephan P. A. Sauer,      University of Copenhagen,     Denmark     (SOPPA(CCSD), SOPPA prop., AOSOPPA, vibrational g-factors)
  Bernd Schimmelpfennig,    Forschungszentrum Karlsruhe,  Germany     (AMFI module)
  Kristian Sneskov,         Aarhus University,            Denmark     (QM/MM, PE-CC)
  Arnfinn H. Steindal,      UiT The Arctic U. of Norway,  Norway      (parallel QM/MM)
  K. O. Sylvester-Hvid,     University of Copenhagen,     Denmark     (MC-SCRF)
  Peter R. Taylor,          VLSCI/Univ. of Melbourne,     Australia   (Symmetry handling ABACUS, integral transformation)
  Andrew M. Teale,          University of Nottingham,     England     (DFT-AC, DFT-D)
  David P. Tew,             University of Bristol,        England     (CCSD(R12))
  Olav Vahtras,             KTH Stockholm,                Sweden      (triplet response, spin-orbit, ESR, TDDFT, open-shell DFT)
  David J. Wilson,          La Trobe University,          Australia   (DFT Hessian and DFT magnetizabilities)
  Hans Agren,               KTH Stockholm,                Sweden      (SIRIUS module, RESPONS, MC-SCRF solvation model)
 --------------------------------------------------------------------------------

     Date and time (Linux)  : Sun Sep  8 21:10:12 2013
     Host name              : lpqlx131.ups-tlse.fr                    

 * Work memory size             :    64000000 =  488.28 megabytes.

 * Directories for basis set searches:
   1) /home/bast/DALTON-2013.0-Source/build/test_cc2_r12_aux_ch4_sym_a3_f12
   2) /home/bast/DALTON-2013.0-Source/build/basis


Compilation information
-----------------------

 Who compiled             | bast
 Host                     | lpqlx131.ups-tlse.fr
 System                   | Linux-3.8.5-201.fc18.x86_64
 CMake generator          | Unix Makefiles
 Processor                | x86_64
 64-bit integers          | OFF
 MPI                      | OFF
 Fortran compiler         | /usr/bin/gfortran
 Fortran compiler version | GNU Fortran (GCC) 4.7.2 20121109 (Red Hat 4.7.2-8)
 C compiler               | /usr/bin/gcc
 C compiler version       | gcc (GCC) 4.7.2 20121109 (Red Hat 4.7.2-8)
 C++ compiler             | /usr/bin/g++
 C++ compiler version     | g++ (GCC) 4.7.2 20121109 (Red Hat 4.7.2-8)
 Static linking           | OFF
 Last Git revision        | f34203295a86316e27f9e7b44f9b6769c4a046c0
 Configuration time       | 2013-09-08 20:31:27.952056


   Content of the .dal input file
 ----------------------------------

**DALTON INPUT                                    
.RUN WAVE FUNCTION                                
.DIRECT                                           
*MOLBAS                                           
.R12AUX                                           
**INTEGRALS                                       
.R12GTG                                           
 1                                                
 1.0 0.0                                          
**WAVE FUNCTION                                   
.CC                                               
*ORBITAL INPUT                                    
.NOSUPSYM                                         
.MOSTART                                          
 H1DIAG                                           
*SCF IN                                           
.THRESH                                           
 1.0D-10                                          
*CC INPUT                                         
.CC2                                              
.PRINT                                            
 5                                                
.FROIMP                                           
 1 0 0 0                                          
 0 0 0 0                                          
.THRENR                                           
 1.0D-10                                          
.MAX IT                                           
 300                                              
*CCEXCI                                           
.THREXC                                           
 1.D-8                                            
.NCCEXCI                                          
 4 4 4 4                                          
*R12 INPUT                                        
.NO HYB                                           
.CC2                                              
 3B                                               
**END OF DALTON INPUT                             


   Content of the .mol file
 ----------------------------

BASIS                                                                          
6-311G** 6-311G**                                                              
Direct CC2-R12/B calculation using symmetry                                    
                                                                               
    4    2 XY XZ                                                               
 1      6.    1                                                                
C      0.000000000000000   0.000000000000000   0.000000000000000       *       
 1      1.    1                                                                
H      1.276731000000000   1.276731000000000   1.276731000000000       *       
 2      6.    1                                                                
C      0.000000000000000   0.000000000000000   0.000000000000000       *       
 2      1.    1                                                                
H      1.276731000000000   1.276731000000000   1.276731000000000       *       


       *******************************************************************
       *********** Output from DALTON general input processing ***********
       *******************************************************************

 --------------------------------------------------------------------------------
   Overall default print level:    0
   Print level for DALTON.STAT:    1

    AO-direct calculation (in sections where implemented)
    HERMIT 1- and 2-electron integral sections will be executed
    "Old" integral transformation used (limited to max 255 basis functions)
    Wave function sections will be executed (SIRIUS module)
 --------------------------------------------------------------------------------


 Changes of defaults for *MOLBAS:
 --------------------------------

 Print level in molecule setup (READIN):    1

 .R12AUX: Reading auxiliary basis sets from .mol file for R12



   ****************************************************************************
   *************** Output of molecule and basis set information ***************
   ****************************************************************************


    The two title cards from your ".mol" input:
    ------------------------------------------------------------------------
 1: Direct CC2-R12/B calculation using symmetry                             
 2:                                                                         
    ------------------------------------------------------------------------

  Atomic type no.    1
  --------------------
  Nuclear charge:   6.00000
  Number of symmetry independent centers:    1
  Number of basis sets to read;    1
  Basis set file used for this atomic type with Z =   6 :
     "/home/bast/DALTON-2013.0-Source/build/basis/6-311G**"

  Info about the basis set file: your basis has no documentation.
  Basis set: 6-311G**                                                                        

  Atomic type no.    2
  --------------------
  Nuclear charge:   1.00000
  Number of symmetry independent centers:    1
  Number of basis sets to read;    1
  Basis set file used for this atomic type with Z =   1 :
     "/home/bast/DALTON-2013.0-Source/build/basis/6-311G**"

  Info about the basis set file: your basis has no documentation.
  Basis set: 6-311G**                                                                        

  Atomic type no.    3
  --------------------
  Nuclear charge:   6.00000
  Number of symmetry independent centers:    1
  This is an auxiliary basis for R12, MBSI:    2
  Basis set file used for this atomic type with Z =   6 :
     "/home/bast/DALTON-2013.0-Source/build/basis/6-311G**"

  Info about the basis set file: your basis has no documentation.
  Basis set: 6-311G**                                                                        

  Atomic type no.    4
  --------------------
  Nuclear charge:   1.00000
  Number of symmetry independent centers:    1
  This is an auxiliary basis for R12, MBSI:    2
  Basis set file used for this atomic type with Z =   1 :
     "/home/bast/DALTON-2013.0-Source/build/basis/6-311G**"

  Info about the basis set file: your basis has no documentation.
  Basis set: 6-311G**                                                                        


                         SYMGRP: Point group information
                         -------------------------------

Point group: D2 

   * The point group was generated by:

      Rotation about the z-axis
      Rotation about the y-axis

   * Group multiplication table

        |  E   C2z  C2y  C2x
   -----+--------------------
     E  |  E   C2z  C2y  C2x
    C2z | C2z   E   C2x  C2y
    C2y | C2y  C2x   E   C2z
    C2x | C2x  C2y  C2z   E 

   * Character table

        |  E   C2z  C2y  C2x
   -----+--------------------
    A   |   1    1    1    1
    B2  |   1   -1    1   -1
    B1  |   1    1   -1   -1
    B3  |   1   -1   -1    1

   * Direct product table

        | A    B2   B1   B3 
   -----+--------------------
    A   | A    B2   B1   B3 
    B2  | B2   A    B3   B1 
    B1  | B1   B3   A    B2 
    B3  | B3   B1   B2   A  


                                 Isotopic Masses
                                 ---------------

                           C          12.000000
                           H   _1      1.007825
                           H   _2      1.007825
                           H   _3      1.007825
                           H   _4      1.007825
                           C           0.000000
                           H   _1      0.000000
                           H   _2      0.000000
                           H   _3      0.000000
                           H   _4      0.000000

                       Total mass:    16.031300 amu
                       Natural abundance:   0.000 %

 Center-of-mass coordinates (a.u.):    0.000000    0.000000    0.000000


  Atoms and basis sets
  --------------------

  Number of atom types :    4
  Total number of atoms:   10

  Basis set 1 refers to the basis "6-311G**" from the basis set library.

  Basis set 2 refers to the basis "6-311G**" from the basis set library.

  label  basis   atoms  charge   prim  cont     basis
  ------------------------------------------------------------------------------
  C        1       1    6.0000    31    18      [11s5p1d|4s3p1d]                                   
  H        1       4    1.0000     8     6      [5s1p|3s1p]                                        
  C        2       1    0.0000    31    18      [11s5p1d|4s3p1d]                                   
  H        2       4    0.0000     8     6      [5s1p|3s1p]                                        
  ------------------------------------------------------------------------------
  total:          10   10.0000   126    84
  ------------------------------------------------------------------------------
  Spherical harmonic basis used.

  Threshold for neglecting AO integrals:  1.00D-12


  Cartesian Coordinates (a.u.)
  ----------------------------

  Total number of coordinates:   30
  C       :     1  x   0.0000000000    2  y   0.0000000000    3  z   0.0000000000
  H   / 1 :     4  x   1.2767310000    5  y   1.2767310000    6  z   1.2767310000
  H   / 2 :     7  x  -1.2767310000    8  y  -1.2767310000    9  z   1.2767310000
  H   / 3 :    10  x  -1.2767310000   11  y   1.2767310000   12  z  -1.2767310000
  H   / 4 :    13  x   1.2767310000   14  y  -1.2767310000   15  z  -1.2767310000
  C       :    16  x   0.0000000000   17  y   0.0000000000   18  z   0.0000000000
  H   / 1 :    19  x   1.2767310000   20  y   1.2767310000   21  z   1.2767310000
  H   / 2 :    22  x  -1.2767310000   23  y  -1.2767310000   24  z   1.2767310000
  H   / 3 :    25  x  -1.2767310000   26  y   1.2767310000   27  z  -1.2767310000
  H   / 4 :    28  x   1.2767310000   29  y  -1.2767310000   30  z  -1.2767310000


  Symmetry Coordinates
  --------------------

  Number of coordinates in each symmetry:     6    8    8    8

  Symmetry  A   ( 1)

    1   H     x    [  4  -    7  -   10  +   13 ]/4
    2   H     y    [  5  -    8  +   11  -   14 ]/4
    3   H     z    [  6  +    9  -   12  -   15 ]/4
    4   H     x    [ 19  -   22  -   25  +   28 ]/4
    5   H     y    [ 20  -   23  +   26  -   29 ]/4
    6   H     z    [ 21  +   24  -   27  -   30 ]/4

  Symmetry  B2  ( 2)

    7   C     y    2
    8   H     x    [  4  +    7  -   10  -   13 ]/4
    9   H     y    [  5  +    8  +   11  +   14 ]/4
   10   H     z    [  6  -    9  -   12  +   15 ]/4
   11   C     y   17
   12   H     x    [ 19  +   22  -   25  -   28 ]/4
   13   H     y    [ 20  +   23  +   26  +   29 ]/4
   14   H     z    [ 21  -   24  -   27  +   30 ]/4

  Symmetry  B1  ( 3)

   15   C     z    3
   16   H     x    [  4  -    7  +   10  -   13 ]/4
   17   H     y    [  5  -    8  -   11  +   14 ]/4
   18   H     z    [  6  +    9  +   12  +   15 ]/4
   19   C     z   18
   20   H     x    [ 19  -   22  +   25  -   28 ]/4
   21   H     y    [ 20  -   23  -   26  +   29 ]/4
   22   H     z    [ 21  +   24  +   27  +   30 ]/4

  Symmetry  B3  ( 4)

   23   C     x    1
   24   H     x    [  4  +    7  +   10  +   13 ]/4
   25   H     y    [  5  +    8  -   11  -   14 ]/4
   26   H     z    [  6  -    9  +   12  -   15 ]/4
   27   C     x   16
   28   H     x    [ 19  +   22  +   25  +   28 ]/4
   29   H     y    [ 20  +   23  -   26  -   29 ]/4
   30   H     z    [ 21  -   24  +   27  -   30 ]/4


   Interatomic separations (in Angstrom):
   --------------------------------------

            C           H   _1      H   _2      H   _3      H   _4      C     
            ------      ------      ------      ------      ------      ------
 C     :    0.000000
 H   _1:    1.170203    0.000000
 H   _2:    1.170203    1.910933    0.000000
 H   _3:    1.170203    1.910933    1.910933    0.000000
 H   _4:    1.170203    1.910933    1.910933    1.910933    0.000000
 C     :    0.000000    1.170203    1.170203    1.170203    1.170203    0.000000
 H   _1:    1.170203    0.000000    1.910933    1.910933    1.910933    1.170203
 H   _2:    1.170203    1.910933    0.000000    1.910933    1.910933    1.170203
 H   _3:    1.170203    1.910933    1.910933    0.000000    1.910933    1.170203
 H   _4:    1.170203    1.910933    1.910933    1.910933    0.000000    1.170203

            H   _1      H   _2      H   _3      H   _4
            ------      ------      ------      ------
 H   _1:    0.000000
 H   _2:    1.910933    0.000000
 H   _3:    1.910933    1.910933    0.000000
 H   _4:    1.910933    1.910933    1.910933    0.000000


  Max    interatomic separation is    1.9109 Angstrom (    3.6111 Bohr)
  between atoms    3 and    2, "H   _2" and "H   _1".

  Min HX interatomic separation is    0.0000 Angstrom (    0.0000 Bohr)

  Min YX interatomic separation is    0.0000 Angstrom (    0.0000 Bohr)

WARNING: Number of short HX and YX bond lengths:    4    1
WARNING: If not intentional, maybe your coordinates were in Angstrom,
WARNING: but "Angstrom" was not specified in .mol file


  Bond distances (Angstrom):
  --------------------------

                  atom 1     atom 2       distance
                  ------     ------       --------
  bond distance:  H   _1     C            1.170203
  bond distance:  H   _2     C            1.170203
  bond distance:  H   _3     C            1.170203
  bond distance:  H   _4     C            1.170203


  Bond angles (degrees):
  ----------------------

                  atom 1     atom 2     atom 3         angle
                  ------     ------     ------         -----
  bond angle:     H   _1     C          H   _2       109.471
  bond angle:     H   _1     C          H   _3       109.471
  bond angle:     H   _1     C          H   _4       109.471
  bond angle:     H   _2     C          H   _3       109.471
  bond angle:     H   _2     C          H   _4       109.471
  bond angle:     H   _3     C          H   _4       109.471




 Principal moments of inertia (u*A**2) and principal axes
 --------------------------------------------------------

   IA       3.680240          1.000000    0.000000    0.000000
   IB       3.680240          0.000000    1.000000    0.000000
   IC       3.680240          0.000000    0.000000    1.000000


 Rotational constants
 --------------------

               A                   B                   C

         137322.2814         137322.2814         137322.2814 MHz
            4.580578            4.580578            4.580578 cm-1


@  Nuclear repulsion energy :   12.514560078913 Hartree


  Symmetry Orbitals
  -----------------

  Number of orbitals in each symmetry:          24   20   20   20

  Number of main orbitals in each symmetry:          12   10   10   10
  Number of auxiliary functions in each symmetry:    12   10   10   10


  Symmetry  A  ( 1)

    1     C    M   1s         1
    2     C    M   1s         2
    3     C    M   1s         3
    4     C    M   1s         4
    5     C    M   3d0       16
    6     C    M   3d2+      18
    7     H    M   1s        19 +   20 +   21 +   22
    8     H    M   1s        23 +   24 +   25 +   26
    9     H    M   1s        27 +   28 +   29 +   30
   10     H    M   2px       31 -   32 -   33 +   34
   11     H    M   2py       35 -   36 +   37 -   38
   12     H    M   2pz       39 +   40 -   41 -   42
   13     C    A   1s        43
   14     C    A   1s        44
   15     C    A   1s        45
   16     C    A   1s        46
   17     C    A   3d0       58
   18     C    A   3d2+      60
   19     H    A   1s        61 +   62 +   63 +   64
   20     H    A   1s        65 +   66 +   67 +   68
   21     H    A   1s        69 +   70 +   71 +   72
   22     H    A   2px       73 -   74 -   75 +   76
   23     H    A   2py       77 -   78 +   79 -   80
   24     H    A   2pz       81 +   82 -   83 -   84


  Symmetry  B2 ( 2)

   25     C    M   2py        6
   26     C    M   2py        9
   27     C    M   2py       12
   28     C    M   3d1+      17
   29     H    M   1s        19 -   20 +   21 -   22
   30     H    M   1s        23 -   24 +   25 -   26
   31     H    M   1s        27 -   28 +   29 -   30
   32     H    M   2px       31 +   32 -   33 -   34
   33     H    M   2py       35 +   36 +   37 +   38
   34     H    M   2pz       39 -   40 -   41 +   42
   35     C    A   2py       48
   36     C    A   2py       51
   37     C    A   2py       54
   38     C    A   3d1+      59
   39     H    A   1s        61 -   62 +   63 -   64
   40     H    A   1s        65 -   66 +   67 -   68
   41     H    A   1s        69 -   70 +   71 -   72
   42     H    A   2px       73 +   74 -   75 -   76
   43     H    A   2py       77 +   78 +   79 +   80
   44     H    A   2pz       81 -   82 -   83 +   84


  Symmetry  B1 ( 3)

   45     C    M   2pz        7
   46     C    M   2pz       10
   47     C    M   2pz       13
   48     C    M   3d2-      14
   49     H    M   1s        19 +   20 -   21 -   22
   50     H    M   1s        23 +   24 -   25 -   26
   51     H    M   1s        27 +   28 -   29 -   30
   52     H    M   2px       31 -   32 +   33 -   34
   53     H    M   2py       35 -   36 -   37 +   38
   54     H    M   2pz       39 +   40 +   41 +   42
   55     C    A   2pz       49
   56     C    A   2pz       52
   57     C    A   2pz       55
   58     C    A   3d2-      56
   59     H    A   1s        61 +   62 -   63 -   64
   60     H    A   1s        65 +   66 -   67 -   68
   61     H    A   1s        69 +   70 -   71 -   72
   62     H    A   2px       73 -   74 +   75 -   76
   63     H    A   2py       77 -   78 -   79 +   80
   64     H    A   2pz       81 +   82 +   83 +   84


  Symmetry  B3 ( 4)

   65     C    M   2px        5
   66     C    M   2px        8
   67     C    M   2px       11
   68     C    M   3d1-      15
   69     H    M   1s        19 -   20 -   21 +   22
   70     H    M   1s        23 -   24 -   25 +   26
   71     H    M   1s        27 -   28 -   29 +   30
   72     H    M   2px       31 +   32 +   33 +   34
   73     H    M   2py       35 +   36 -   37 -   38
   74     H    M   2pz       39 -   40 +   41 -   42
   75     C    A   2px       47
   76     C    A   2px       50
   77     C    A   2px       53
   78     C    A   3d1-      57
   79     H    A   1s        61 -   62 -   63 +   64
   80     H    A   1s        65 -   66 -   67 +   68
   81     H    A   1s        69 -   70 -   71 +   72
   82     H    A   2px       73 +   74 +   75 +   76
   83     H    A   2py       77 +   78 -   79 -   80
   84     H    A   2pz       81 -   82 +   83 -   84

  Number of floating/multiple basis set orbitals :    5

  Symmetries of electric field:  B3 (4)  B2 (2)  B1 (3)

  Symmetries of magnetic field:  B3 (4)  B2 (2)  B1 (3)


                     .---------------------------------------.
                     | Starting in Integral Section (HERMIT) |
                     `---------------------------------------'



    *************************************************************************
    ****************** Output from HERMIT input processing ******************
    *************************************************************************


 Default print level:        1

 * Nuclear model: Point charge

 Calculation of one-electron Hamiltonian integrals.

 The following one-electron property integrals are calculated as requested:
          - overlap integrals
          - Cartesian multipole moment integrals of orders 2 and lower

 Center of mass  (bohr):      0.000000000000      0.000000000000      0.000000000000
 Operator center (bohr):      0.000000000000      0.000000000000      0.000000000000
 Gauge origin    (bohr):      0.000000000000      0.000000000000      0.000000000000
 Dipole origin   (bohr):      0.000000000000      0.000000000000      0.000000000000


     ************************************************************************
     ************************** Output from HERINT **************************
     ************************************************************************

 >>>> Total CPU  time used in HERMIT:   0.04 seconds
 >>>> Total wall time used in HERMIT:   0.04 seconds


                        .----------------------------------.
                        | End of Integral Section (HERMIT) |
                        `----------------------------------'



                   .--------------------------------------------.
                   | Starting in Wave Function Section (SIRIUS) |
                   `--------------------------------------------'

 NCCEXCI for singlet:           4           4           4           4

 >>>> Detected R12 input:
 Direct Fock matrix formation switched on!
 Scale factors for CC excitations manifolds:
 for bra states (projection manifold):   1.0000000000000000     
 for ket states (operator manifold)  :   1.0000000000000000     

 **********************************************************************
 *SIRIUS* a direct, restricted step, second order MCSCF program       *
 **********************************************************************

 
     Date and time (Linux)  : Sun Sep  8 21:10:13 2013
     Host name              : lpqlx131.ups-tlse.fr                    

 Title lines from ".mol" input file:
     Direct CC2-R12/B calculation using symmetry                             
                                                                             

 Print level on unit LUPRI =   2 is   0
 Print level on unit LUW4  =   2 is   5

@    (Integral direct) CC calculation.

@    This is a combination run starting with
@              a restricted, closed shell Hartree-Fock calculation

 Fock matrices are calculated directly without use of integrals on disk.

 Initial molecular orbitals are obtained according to
 ".MOSTART H1DIAG" input option

     Wave function specification
     ============================

     For the specification of the Coupled Cluster: see later.

@    For the wave function of type :      >>> CC <<<
@    Number of closed shell electrons          10
@    Number of electrons in active shells       0
@    Total charge of the molecule               0

@    Spin multiplicity and 2 M_S                1         0
     Total number of symmetries                 4
@    Reference state symmetry                   1

     Orbital specifications
     ======================
     Abelian symmetry species          All |    1    2    3    4
                                       --- |  ---  ---  ---  ---
     Total number of orbitals           42 |   12   10   10   10
     Number of basis functions          84 |   24   20   20   20

      ** Automatic occupation of RHF orbitals **

      -- Initial occupation of symmetries is determined from diagonal of H1 matrix.           
      -- Initial occupation of symmetries is :
@    Occupied SCF orbitals               5 |    2    1    1    1

     Maximum number of Fock   iterations      0
     Maximum number of DIIS   iterations     60
     Maximum number of QC-SCF iterations     60
     Threshold for SCF convergence     1.00D-10


 Changes of defaults for CC:
 ---------------------------


 -This is a direct atomic orbital integral based
  calculation for coupled cluster wave function

 -Implicit frozen core calculation
 -Excitation energies calculated
  


 >>>>> DIIS optimization of Hartree-Fock <<<<<

 C1-DIIS algorithm; max error vectors =   10

 Automatic occupation of symmetries with  10 electrons.

 Iter     Total energy    Error norm  Delta(E)    SCF occupation
 -----------------------------------------------------------------------------
   1  Screening settings (-IFTHRS, DIFDEN)   -7    T
@  1  -26.9208461562       1.74D+01  -2.69D+01     2   1   1   1
      Virial theorem: -V/T =      1.397424
@      MULPOP C      -3.96; H   _1  0.99; H   _2  0.99; H   _3  0.99; H   _4  0.99; 
 -----------------------------------------------------------------------------
   2  Screening settings (-IFTHRS, DIFDEN)   -7    T
@  2  -34.5740142129       5.98D+00  -7.65D+00     2   1   1   1
      Virial theorem: -V/T =      2.092202
@      MULPOP C       7.24; H   _1 -1.81; H   _2 -1.81; H   _3 -1.81; H   _4 -1.81; 
 -----------------------------------------------------------------------------
   3  Screening settings (-IFTHRS, DIFDEN)   -7    T
@  3  -38.7812870349       4.97D+00  -4.21D+00     2   1   1   1
      Virial theorem: -V/T =      1.865551
@      MULPOP C      -2.05; H   _1  0.51; H   _2  0.51; H   _3  0.51; H   _4  0.51; 
 -----------------------------------------------------------------------------
   4  Screening settings (-IFTHRS, DIFDEN)   -7    T
@  4  -40.0920858983       1.21D+00  -1.31D+00     2   1   1   1
      Virial theorem: -V/T =      1.982551
@      MULPOP C      -0.78; H   _1  0.19; H   _2  0.19; H   _3  0.19; H   _4  0.19; 
 -----------------------------------------------------------------------------
   5  Screening settings (-IFTHRS, DIFDEN)   -7    T
@  5  -40.1914985533       6.81D-02  -9.94D-02     2   1   1   1
      Virial theorem: -V/T =      2.012916
@      MULPOP C      -0.36; H   _1  0.09; H   _2  0.09; H   _3  0.09; H   _4  0.09; 
 -----------------------------------------------------------------------------
   6  Screening settings (-IFTHRS, DIFDEN)   -9    F
@  6  -40.1917302493       2.39D-02  -2.32D-04     2   1   1   1
      Virial theorem: -V/T =      2.011954
@      MULPOP C      -0.38; H   _1  0.09; H   _2  0.09; H   _3  0.09; H   _4  0.09; 
 -----------------------------------------------------------------------------
   7  Screening settings (-IFTHRS, DIFDEN)   -9    T
@  7  -40.1917714460       1.96D-03  -4.12D-05     2   1   1   1
      Virial theorem: -V/T =      2.011289
@      MULPOP C      -0.38; H   _1  0.10; H   _2  0.10; H   _3  0.10; H   _4  0.10; 
 -----------------------------------------------------------------------------
   8  Screening settings (-IFTHRS, DIFDEN)   -9    T
@  8  -40.1917720843       2.24D-04  -6.38D-07     2   1   1   1
      Virial theorem: -V/T =      2.011253
@      MULPOP C      -0.38; H   _1  0.10; H   _2  0.10; H   _3  0.10; H   _4  0.10; 
 -----------------------------------------------------------------------------
   9  Screening settings (-IFTHRS, DIFDEN)  -11    F
@  9  -40.1917720926       2.77D-05  -8.29D-09     2   1   1   1
      Virial theorem: -V/T =      2.011254
@      MULPOP C      -0.38; H   _1  0.09; H   _2  0.09; H   _3  0.09; H   _4  0.09; 
 -----------------------------------------------------------------------------
  10  Screening settings (-IFTHRS, DIFDEN)  -11    T
@ 10  -40.1917720926       1.91D-06  -7.56D-11     2   1   1   1
      Virial theorem: -V/T =      2.011255
@      MULPOP C      -0.38; H   _1  0.09; H   _2  0.09; H   _3  0.09; H   _4  0.09; 
 -----------------------------------------------------------------------------
  11  Screening settings (-IFTHRS, DIFDEN)  -13    F
@ 11  -40.1917720926       2.05D-07   5.93D-12     2   1   1   1
      Virial theorem: -V/T =      2.011255
@      MULPOP C      -0.38; H   _1  0.09; H   _2  0.09; H   _3  0.09; H   _4  0.09; 
 -----------------------------------------------------------------------------
  12  Screening settings (-IFTHRS, DIFDEN)  -16    F
@ 12  -40.1917720926       3.18D-08  -5.68D-14     2   1   1   1
      Virial theorem: -V/T =      2.011255
@      MULPOP C      -0.38; H   _1  0.09; H   _2  0.09; H   _3  0.09; H   _4  0.09; 
 -----------------------------------------------------------------------------
  13  Screening settings (-IFTHRS, DIFDEN)  -16    T
@ 13  -40.1917720926       6.90D-10   2.84D-14     2   1   1   1
      Virial theorem: -V/T =      2.011255
@      MULPOP C      -0.38; H   _1  0.09; H   _2  0.09; H   _3  0.09; H   _4  0.09; 
 -----------------------------------------------------------------------------
  14  Screening settings (-IFTHRS, DIFDEN)  -16    T
@ 14  -40.1917720926       1.78D-11  -1.42D-14     2   1   1   1

@ *** DIIS converged in  14 iterations !
@     Converged SCF energy, gradient:    -40.191772092640    1.78D-11
    - total time used in SIRFCK :              0.00 seconds


 *** SCF orbital energy analysis ***

 Only the five lowest virtual orbital energies printed in each symmetry.

 Number of electrons :   10
 Orbital occupations :    2    1    1    1

 Sym       Hartree-Fock orbital energies

  1    -11.24614520    -0.91114126     0.15222200     0.67112701     0.94587496
         1.19833119     1.19833119

  2     -0.52478334     0.22923252     0.41945542     0.77679176     1.66708634
         1.69778322

  3     -0.52478334     0.22923252     0.41945542     0.77679176     1.66708634
         1.69778322

  4     -0.52478334     0.22923252     0.41945542     0.77679176     1.66708634
         1.69778322

    E(LUMO) :     0.15222200 au (symmetry 1)
  - E(HOMO) :    -0.52478334 au (symmetry 3)
  ------------------------------------------
    gap     :     0.67700534 au

 >>> Writing SIRIFC interface file <<<

  Canonical primary and secondary basis sets
  ISYM       NORB1 MBAS1       NORB2 MBAS2
     1          12    12          12    12
     2          10    10          10    10
     3          10    10          10    10
     4          10    10          10    10

 Computation of exchange matrix done [6]

 AUXILIARY BASIS LOW EIGENVALUES
 ISYM         EIGENVALUE
   1      0.007899519454
   2      0.006483084240
   3      0.006483084240
   4      0.006483084240
 >>>  Time used in R12AUX     is   0.31 seconds

 >>>> CPU and wall time for SCF :       0.802       0.810


                       .-----------------------------------.
                       | >>> Final results from SIRIUS <<< |
                       `-----------------------------------'


@    Spin multiplicity:           1
@    Spatial symmetry:            1
@    Total charge of molecule:    0

@    Final HF energy:             -40.191772092640                 
@    Nuclear repulsion:            12.514560078913
@    Electronic energy:           -52.706332171553

@    Final gradient norm:           0.000000000018

 
     Date and time (Linux)  : Sun Sep  8 21:10:13 2013
     Host name              : lpqlx131.ups-tlse.fr                    

 (Only coefficients >0.0100 are printed.)

 Molecular orbitals for symmetry species  1
 ------------------------------------------

    Orbital         1        2        3        4
   1 C   :1s     0.5636  -0.1015   0.0530   0.0703
   2 C   :1s     0.4666  -0.1682   0.0852   0.1326
   3 C   :1s     0.0034   0.4331  -0.0983  -0.4555
   4 C   :1s    -0.0008   0.2981  -1.9759  -1.0416
   7 H   :1s     0.0003   0.0770   0.0184   0.0634
   8 H   :1s     0.0002   0.1094  -0.0089   0.9859
   9 H   :1s     0.0001   0.0088   0.7492  -0.3081
  10 H   :2px   -0.0001  -0.0110  -0.0006   0.0199
  11 H   :2py   -0.0001  -0.0110  -0.0006   0.0199
  12 H   :2pz   -0.0001  -0.0110  -0.0006   0.0199

 Molecular orbitals for symmetry species  2
 ------------------------------------------

    Orbital         1        2        3
   1 C   :2py    0.1818  -0.1464   0.0159
   2 C   :2py    0.2931  -0.1083  -0.0054
   3 C   :2py    0.2049  -1.1248   1.3166
   4 C   :3d1+   0.0320   0.0232   0.0151
   5 H   :1s     0.0961   0.0193  -0.0386
   6 H   :1s     0.1589  -0.0805  -0.7668
   7 H   :1s     0.0754   1.2270   0.2180
   8 H   :2px   -0.0095   0.0099   0.0117
   9 H   :2py    0.0002   0.0059   0.0259
  10 H   :2pz   -0.0095   0.0099   0.0117

 Molecular orbitals for symmetry species  3
 ------------------------------------------

    Orbital         1        2        3
   1 C   :2pz    0.1818  -0.1464   0.0159
   2 C   :2pz    0.2931  -0.1083  -0.0054
   3 C   :2pz    0.2049  -1.1248   1.3166
   4 C   :3d2-   0.0320   0.0232   0.0151
   5 H   :1s     0.0961   0.0193  -0.0386
   6 H   :1s     0.1589  -0.0805  -0.7668
   7 H   :1s     0.0754   1.2270   0.2180
   8 H   :2px   -0.0095   0.0099   0.0117
   9 H   :2py   -0.0095   0.0099   0.0117
  10 H   :2pz    0.0002   0.0059   0.0259

 Molecular orbitals for symmetry species  4
 ------------------------------------------

    Orbital         1        2        3
   1 C   :2px    0.1818  -0.1464   0.0159
   2 C   :2px    0.2931  -0.1083  -0.0054
   3 C   :2px    0.2049  -1.1248   1.3166
   4 C   :3d1-   0.0320   0.0232   0.0151
   5 H   :1s     0.0961   0.0193  -0.0386
   6 H   :1s     0.1589  -0.0805  -0.7668
   7 H   :1s     0.0754   1.2270   0.2180
   8 H   :2px    0.0002   0.0059   0.0259
   9 H   :2py   -0.0095   0.0099   0.0117
  10 H   :2pz   -0.0095   0.0099   0.0117



 >>>> Total CPU  time used in SIRIUS :      0.81 seconds
 >>>> Total wall time used in SIRIUS :      0.81 seconds

 
     Date and time (Linux)  : Sun Sep  8 21:10:13 2013
     Host name              : lpqlx131.ups-tlse.fr                    


                     .---------------------------------------.
                     | End of Wave Function Section (SIRIUS) |
                     `---------------------------------------'



                    .------------------------------------------.
                    | Starting in Coupled Cluster Section (CC) |
                    `------------------------------------------'

  

 *******************************************************************************
 *******************************************************************************
 *                                                                             *
 *                                                                             *
 *                    START OF COUPLED CLUSTER CALCULATION                     *
 *                                                                             *
 *                                                                             *
 *******************************************************************************
 *******************************************************************************


 LWORK =        64000000



 CCR12 ANSATZ =   3

 CCR12 APPROX =  10

   NRHF   :       1       1       1       1
   NRHFS  :       2       1       1       1
   NORB1  :      12      10      10      10
   NORB2  :      12      10      10      10

 Number of primary orbitals             :           42
 Number of secondary orbitals           :           42
 Total number of orbitals               :           84
 Total number of basis functions        :           84
 Number of (i|p') integrals             :           84
 Number of (i|u') integrals             :           84
 Number of (Ip'|1/r12|jL) integrals     :           84
 Number of (ip'|1/r12|jq') integrals    :        14280
 Number of (ip'|r12|jq') integrals      :        14280
 Number of (ip'|[T1,r12]|jq') integrals :        28224
 Threshold for R12 contributions            =  0.00000    
 Threshold for singular value decomposition = 0.100000E-11

 Calculation with Gaussian-damped linear-r12 terms
 Expansion coefficients and exponents:
    1        1.000000000000000        0.000000000000000
 The B matrix is transformed into an orthogonal basis
 and inverted by diagonalization

 ******************************************************************************
 The MP2-R12/A and MP2-R12/B energies are computed as described in:
 W. Klopper and C. C. M. Samson, J. Chem. Phys. 116, 6397-6410 (2002).
 ------------------------------------------------------------------------------
 Ansatz 3 is used and results are printed for approximations A and B.
------------------------------------------------------------------------------
 The Gaussian-damped R12 integrals are computed as described in:
 C. C. M. Samson, W. Klopper and T. Helgaker,
 Comp. Phys. Commun. 149, 1-10 (2002).
 ******************************************************************************

 Core memory required by CCSD_R12 :          85926  (double words)

 Computation of (ik|[[f12,T1],f12]|jl) integrals done
 >>>  Time used in #6 [4]     is   0.34 seconds
 Computation of (ik|f12**2|jl) integrals done
 >>>  Time used in #4 [4]     is   0.33 seconds
 Computation of (ik|f12/r12|jl) integrals done
 >>>  Time used in #2 [4]     is   0.30 seconds
 Computation of (ip'|f12|jq') integrals done
 >>>  Time used in #3 [6]     is   4.07 seconds
 Backtransformation of (ip'|r12|jq') integrals done
 Computation of V^aj_kl intermediate done

 >>> Time used for V^aj_kl is    0.01 seconds

 Computation of (ip'|1/r12|jq') integrals done
 >>>  Time used in #1 [5]     is   1.34 seconds
 Computation of (ip'|r12|jq')X(p'r')(kr'|r12|lq') integrals done
 >>>  Time used in #4 [5]     is   1.38 seconds
 Computation of (i'p'|f12|jq') integrals done
 >>>  Time used in #3 [6]     is   4.07 seconds
 Computation of (ip'|[T,f12]|jq') integrals done
 >>>  Time used in #5 [5]     is   3.93 seconds


          +-------------------------------------------------------------+
          ! MP2-R12 ansatz := (1 - V1*V2) * (1 - O1 - O2 + O1*O2) * R12 !
          +-------------------------------------------------------------+



                         +--------------------------------+
                         ! Auxiliary-basis MP2-R12 method !
                         +--------------------------------+


 SECOND-ORDER R12/B   PAIR ENERGIES:

   1   -0.008552696   -0.009858643    0.000000000    0.000000000     2.59104         3.10606    
   2   -0.012167435   -0.015055369   -0.004524398   -0.005125339     2.19765         2.71743    
   3   -0.013386563   -0.015640938    0.000000000    0.000000000     1.80249         2.32835    
   4   -0.012167435   -0.015055369   -0.004524398   -0.005125339     2.19765         2.71743    
   5   -0.013412621   -0.015437867   -0.011368248   -0.012875294     1.80249         2.32835    
   6   -0.013386563   -0.015640938    0.000000000    0.000000000     1.80249         2.32835    
   7   -0.012167435   -0.015055369   -0.004524398   -0.005125339     2.19765         2.71743    
   8   -0.013412621   -0.015437867   -0.011368248   -0.012875294     1.80249         2.32835    
   9   -0.013412621   -0.015437867   -0.011368248   -0.012875294     1.80249         2.32835    
  10   -0.013386563   -0.015640938    0.000000000    0.000000000     1.80249         2.32835    

       -0.125452553   -0.148261165   -0.047677939   -0.054001899

              MP2-R12/B   correlation energy =   -0.202263065
 >>>  Time used in E(R12)     is   0.14 seconds
 Time for MP2-R12 part cpu :   15.893000000000001     
 Time for MP2-R12 part wall:   16.012000024318695     
 Preparing R12 Ansatz 2/3 ... ONEAUX= F
   

 *******************************************************************
 *                                                                 *
 *<<<<<<<<<<                                             >>>>>>>>>>*
 *<<<<<<<<<< OUTPUT FROM COUPLED CLUSTER ENERGY PROGRAM  >>>>>>>>>>*
 *<<<<<<<<<<                                             >>>>>>>>>>*
 *                                                                 *
 *******************************************************************


             The Direct Coupled Cluster Energy Program
             -----------------------------------------


          Number of t1 amplitudes                 :        37
          Number of t2 amplitudes                 :      2812
          Number of t2' amplitudes for R12 part   :        40
          Total number of amplitudes in ccsd      :      2889



                        +---------------------------------+
                        ! Largest amplitudes in MP2 guess !
                        +---------------------------------+



          CC_PRAM:Overall Contribution of the Different Components
          --------------------------------------------------------



          Single Excitation Contribution :               0.0000 %

          Double Excitation Contribution :             100.0000 %

          ||T1||/||T2||                  :               0.0000

          Norm of Total Amplitude Vector :               0.1770


 +=============================================================================+
 | symmetry|  orbital index  |   Excitation Numbers             |   Amplitude  |
 |  Index  |   a   b   i   j |      NAI      NBJ |     NAIBJ    |              |
 +=============================================================================+
 +-----------------------------------------------------------------------------+
 | 2 2 2 2 |   1   1   1   1 |       11       11 |           66 |   -0.020674  |
 | 2 2 2 2 |   3   3   1   1 |       13       13 |           91 |   -0.024956  |
 | 3 3 3 3 |   1   1   1   1 |       20       20 |          210 |   -0.020674  |
 | 3 3 3 3 |   3   3   1   1 |       22       22 |          253 |   -0.024956  |
 | 4 4 4 4 |   1   1   1   1 |       29       29 |          435 |   -0.020674  |
 | 4 4 4 4 |   3   3   1   1 |       31       31 |          496 |   -0.024956  |
 | 1 1 3 3 |   4   4   1   1 |       22       22 |         1659 |   -0.023106  |
 +=============================================================================+


          Norm of Printed Amplitude Vector :             0.0607

          Printed all single excitations greater than 0.010000

          Printed all double excitations greater than 0.020000
 Iter.  1: Coupled cluster MP2-R12/B energy :     -40.3940351574687639
     Conventional correlation energy:    -0.1772244891090153
     R12 correlation energy         :    -0.0250385757192737
     Total correlation energy       :    -0.2022630648282890


       Iteration no.:  1
       -----------------

       Time used in   RHS - TOTAL  :       0.61 seconds
       Norm^2 of t1am   after ccvec:        0.0000000000D+00
       Norm^2 of t2am   after ccvec:        0.3132031271D-01
       Norm^2 of omega1 after ccvec:        0.1493865155D-02
       Norm^2 of omega2 after ccvec:        0.1007586827D-27
       Norm^2 of r12am     in NXTAM:        0.1193200374D+00
       Norm^2 of Omegar12  in NXTAM:        0.1019833086D-26
 Iter.  1: Coupled cluster CC2-R12/B energy :     -40.3939356210674703
     Conventional correlation energy:    -0.1771249527077288
     R12 correlation energy         :    -0.0250385757192679
     Total correlation energy       :    -0.2021635284269967


       Iteration no.:  2
       -----------------

       Time used in   RHS - TOTAL  :       0.61 seconds
       Norm^2 of t1am   after ccvec:        0.3632883250D-03
       Norm^2 of t2am   after ccvec:        0.3132031271D-01
       Norm^2 of omega1 after ccvec:        0.1850635151D-04
       Norm^2 of omega2 after ccvec:        0.8052288434D-04
       Norm^2 of r12am     in NXTAM:        0.1193200374D+00
       Norm^2 of Omegar12  in NXTAM:        0.1265491235D-06
 Iter.  2: Coupled cluster CC2-R12/B energy :     -40.3952410978050409
     Conventional correlation energy:    -0.1782794904857354
     R12 correlation energy         :    -0.0251895146788279
     Total correlation energy       :    -0.2034690051645634


       Iteration no.:  3
       -----------------

       Time used in   RHS - TOTAL  :       0.61 seconds
       Norm^2 of t1am   after ccvec:        0.4621160766D-03
       Norm^2 of t2am   after ccvec:        0.3166191029D-01
       Norm^2 of omega1 after ccvec:        0.3893216573D-05
       Norm^2 of omega2 after ccvec:        0.1039257096D-05
       Norm^2 of r12am     in NXTAM:        0.1206894995D+00
       Norm^2 of Omegar12  in NXTAM:        0.1387411400D-07
 Iter.  3: Coupled cluster CC2-R12/B energy :     -40.3953955690783530
     Conventional correlation energy:    -0.1784210789456893
     R12 correlation energy         :    -0.0252023974921898
     Total correlation energy       :    -0.2036234764378790


       Iteration no.:  4
       -----------------

       Time used in   RHS - TOTAL  :       0.61 seconds
       Norm^2 of t1am   after ccvec:        0.5504077666D-03
       Norm^2 of t2am   after ccvec:        0.3173376199D-01
       Norm^2 of omega1 after ccvec:        0.1250409933D-06
       Norm^2 of omega2 after ccvec:        0.1189295096D-06
       Norm^2 of r12am     in NXTAM:        0.1208021416D+00
       Norm^2 of Omegar12  in NXTAM:        0.1179290531D-08
 Iter.  4: Coupled cluster CC2-R12/B energy :     -40.3953879135475589
     Conventional correlation energy:    -0.1784018519074309
     R12 correlation energy         :    -0.0252139689996536
     Total correlation energy       :    -0.2036158209070845


       Iteration no.:  5
       -----------------

       Time used in   RHS - TOTAL  :       0.61 seconds
       Norm^2 of t1am   after ccvec:        0.5596125264D-03
       Norm^2 of t2am   after ccvec:        0.3172589933D-01
       Norm^2 of omega1 after ccvec:        0.7505023270D-08
       Norm^2 of omega2 after ccvec:        0.3169214033D-08
       Norm^2 of r12am     in NXTAM:        0.1208900381D+00
       Norm^2 of Omegar12  in NXTAM:        0.2765583021D-10
 Iter.  5: Coupled cluster CC2-R12/B energy :     -40.3953857868832884
     Conventional correlation energy:    -0.1783981863752473
     R12 correlation energy         :    -0.0252155078675640
     Total correlation energy       :    -0.2036136942428113


       Iteration no.:  6
       -----------------

       Time used in   RHS - TOTAL  :       0.61 seconds
       Norm^2 of t1am   after ccvec:        0.5599440404D-03
       Norm^2 of t2am   after ccvec:        0.3172492753D-01
       Norm^2 of omega1 after ccvec:        0.7782088412D-10
       Norm^2 of omega2 after ccvec:        0.9109578134D-10
       Norm^2 of r12am     in NXTAM:        0.1208951683D+00
       Norm^2 of Omegar12  in NXTAM:        0.8895419035D-12
 Iter.  6: Coupled cluster CC2-R12/B energy :     -40.3953862289638934
     Conventional correlation energy:    -0.1783984112832613
     R12 correlation energy         :    -0.0252157250401545
     Total correlation energy       :    -0.2036141363234158


       Iteration no.:  7
       -----------------

       Time used in   RHS - TOTAL  :       0.60 seconds
       Norm^2 of t1am   after ccvec:        0.5601337470D-03
       Norm^2 of t2am   after ccvec:        0.3172484188D-01
       Norm^2 of omega1 after ccvec:        0.3847394819D-11
       Norm^2 of omega2 after ccvec:        0.2643077037D-11
       Norm^2 of r12am     in NXTAM:        0.1208971648D+00
       Norm^2 of Omegar12  in NXTAM:        0.5593145350D-14
 Iter.  7: Coupled cluster CC2-R12/B energy :     -40.3953862730022024
     Conventional correlation energy:    -0.1783984197798461
     R12 correlation energy         :    -0.0252157605818764
     Total correlation energy       :    -0.2036141803617225


       Iteration no.:  8
       -----------------

       Time used in   RHS - TOTAL  :       0.60 seconds
       Norm^2 of t1am   after ccvec:        0.5601640451D-03
       Norm^2 of t2am   after ccvec:        0.3172480969D-01
       Norm^2 of omega1 after ccvec:        0.1131410559D-12
       Norm^2 of omega2 after ccvec:        0.6219637143D-13
       Norm^2 of r12am     in NXTAM:        0.1208974563D+00
       Norm^2 of Omegar12  in NXTAM:        0.1369380829D-14
 Iter.  8: Coupled cluster CC2-R12/B energy :     -40.3953862564921167
     Conventional correlation energy:    -0.1783984178961830
     R12 correlation energy         :    -0.0252157459554578
     Total correlation energy       :    -0.2036141638516408


       Iteration no.:  9
       -----------------

       Time used in   RHS - TOTAL  :       0.60 seconds
       Norm^2 of t1am   after ccvec:        0.5601585170D-03
       Norm^2 of t2am   after ccvec:        0.3172480373D-01
       Norm^2 of omega1 after ccvec:        0.2703199685D-14
       Norm^2 of omega2 after ccvec:        0.1354033623D-14
       Norm^2 of r12am     in NXTAM:        0.1208973832D+00
       Norm^2 of Omegar12  in NXTAM:        0.3861063088D-16
 Iter.  9: Coupled cluster CC2-R12/B energy :     -40.3953862543691287
     Conventional correlation energy:    -0.1783984174395954
     R12 correlation energy         :    -0.0252157442890532
     Total correlation energy       :    -0.2036141617286486


       Iteration no.: 10
       -----------------

       Time used in   RHS - TOTAL  :       0.60 seconds
       Norm^2 of t1am   after ccvec:        0.5601591818D-03
       Norm^2 of t2am   after ccvec:        0.3172480386D-01
       Norm^2 of omega1 after ccvec:        0.1734185399D-15
       Norm^2 of omega2 after ccvec:        0.3537447021D-15
       Norm^2 of r12am     in NXTAM:        0.1208973658D+00
       Norm^2 of Omegar12  in NXTAM:        0.1528175172D-17
 Iter. 10: Coupled cluster CC2-R12/B energy :     -40.3953862547415099
     Conventional correlation energy:    -0.1783984183051288
     R12 correlation energy         :    -0.0252157437959069
     Total correlation energy       :    -0.2036141621010358


       Iteration no.: 11
       -----------------

       Time used in   RHS - TOTAL  :       0.60 seconds
       Norm^2 of t1am   after ccvec:        0.5601592221D-03
       Norm^2 of t2am   after ccvec:        0.3172480374D-01
       Norm^2 of omega1 after ccvec:        0.1885888951D-16
       Norm^2 of omega2 after ccvec:        0.6326406842D-17
       Norm^2 of r12am     in NXTAM:        0.1208973629D+00
       Norm^2 of Omegar12  in NXTAM:        0.1852435133D-18
 Iter. 11: Coupled cluster CC2-R12/B energy :     -40.3953862545014815
     Conventional correlation energy:    -0.1783984181808762
     R12 correlation energy         :    -0.0252157436801293
     Total correlation energy       :    -0.2036141618610054


       Iteration no.: 12
       -----------------

       Time used in   RHS - TOTAL  :       0.60 seconds
       Norm^2 of t1am   after ccvec:        0.5601592953D-03
       Norm^2 of t2am   after ccvec:        0.3172480368D-01
       Norm^2 of omega1 after ccvec:        0.4060509643D-18
       Norm^2 of omega2 after ccvec:        0.3776676183D-18
       Norm^2 of r12am     in NXTAM:        0.1208973616D+00
       Norm^2 of Omegar12  in NXTAM:        0.2982802292D-20
 Iter. 12: Coupled cluster CC2-R12/B energy :     -40.3953862545294697
     Conventional correlation energy:    -0.1783984181881522
     R12 correlation energy         :    -0.0252157437008388
     Total correlation energy       :    -0.2036141618889910


 CC2-R12/B energy converged to within   0.10D-09 is          -40.395386254529
 Final 2-norm of the CC vector function:  8.85278816D-10
 R12       energy converged to within   0.10D-09 is     -0.025215744


                    +------------------------------------------+
                    ! Largest amplitudes in converged solution !
                    +------------------------------------------+



          CC_PRAM:Overall Contribution of the Different Components
          --------------------------------------------------------



          Single Excitation Contribution :               1.7350 %

          Double Excitation Contribution :              98.2650 %

          ||T1||/||T2||                  :               0.1329

          Tau1 diagnostic                :               0.0084

          Norm of Total Amplitude Vector :               0.1797


 +=============================================================================+
 | symmetry|  orbital index  |   Excitation Numbers             |   Amplitude  |
 |  Index  |   a   b   i   j |      NAI      NBJ |     NAIBJ    |              |
 +=============================================================================+
 | 1   1   |   3       1     |        3          |              |   -0.003395  |
 | 2   2   |   1       1     |       11          |              |   -0.002952  |
 | 2   2   |   2       1     |       12          |              |    0.009355  |
 | 2   2   |   3       1     |       13          |              |    0.006605  |
 | 2   2   |   7       1     |       17          |              |   -0.004959  |
 | 3   3   |   1       1     |       20          |              |   -0.002952  |
 | 3   3   |   2       1     |       21          |              |    0.009355  |
 | 3   3   |   3       1     |       22          |              |    0.006605  |
 | 3   3   |   7       1     |       26          |              |   -0.004959  |
 | 4   4   |   1       1     |       29          |              |   -0.002952  |
 | 4   4   |   2       1     |       30          |              |    0.009355  |
 | 4   4   |   3       1     |       31          |              |    0.006605  |
 | 4   4   |   7       1     |       35          |              |   -0.004959  |
 +-----------------------------------------------------------------------------+
 | 2 2 2 2 |   1   1   1   1 |       11       11 |           66 |   -0.020925  |
 | 2 2 2 2 |   3   3   1   1 |       13       13 |           91 |   -0.025432  |
 | 3 3 3 3 |   1   1   1   1 |       20       20 |          210 |   -0.020925  |
 | 3 3 3 3 |   3   3   1   1 |       22       22 |          253 |   -0.025432  |
 | 4 4 4 4 |   1   1   1   1 |       29       29 |          435 |   -0.020925  |
 | 4 4 4 4 |   3   3   1   1 |       31       31 |          496 |   -0.025432  |
 | 1 1 3 3 |   4   4   1   1 |       22       22 |         1659 |   -0.023184  |
 +=============================================================================+


          Norm of Printed Amplitude Vector :             0.0655

          Printed all single excitations greater than 0.002634

          Printed all double excitations greater than 0.019826





             +-------------------------------------------------------+
             ! Final results from the Coupled Cluster energy program !
             +-------------------------------------------------------+



            Total SCF   energy:                   -40.1917720926

            Total MP2-R12/B energy:               -40.3940351575

            Total CC2-R12/B energy:               -40.3953862545




                   +--------------------------------------------+
                   ! Calculating singlet intermediates for CCLR !
                   +--------------------------------------------+



       Time used in   RHS - TOTAL  :       0.61 seconds


            E-intermediates calculated 
            Fock-intermediate calculated 


   

 *******************************************************************
 *                                                                 *
 *<<<<<<<<<< OUTPUT FROM COUPLED CLUSTER LINEAR RESPONSE >>>>>>>>>>*
 *                                                                 *
 *<<<<<<<<<<     CALCULATION OF EXCITATION ENERGIES      >>>>>>>>>>*
 *                                                                 *
 *******************************************************************



                            +--------------------------+
                            !  CC2 Excitation Energies !
                            +--------------------------+


 --------------------------
 Symmetry class Nr.:     1
 Multiplicity      :     1
 --------------------------

 Length of Excitation vectors in this class is:      2889
 Converging for  4 roots.
  >> output from FNDMN3 <<
  LOWEST VALUE AND PLACE   0.75401585626256251               20
  HIGHST VALUE AND PLACE    51.649282694685546               92
IELMNT XMIN IMIN NDEG        1    7.54016D-01      20   1
IELMNT XMIN IMIN NDEG        2    7.54016D-01      11   2
IELMNT XMIN IMIN NDEG        3    7.54016D-01      29   3
IELMNT XMIN IMIN NDEG        4    9.44239D-01      21   1
IELMNT XMIN IMIN NDEG        5    9.44239D-01      30   2
IELMNT XMIN IMIN NDEG        6    9.44239D-01      12   3
IELMNT XMIN IMIN NDEG        7    1.06336D+00       1   1
IELMNT XMIN IMIN NDEG        8    1.30158D+00      22   1
  NUMBER OF ELEMENTS OBTAINED IN FNDMN3            7
  FROM FNDMN3 : 
    PLACES OF LOWEST ELEMENTS 
     1 :     20     11     29     21     30     12      1
  MIN AND MAX IN SELECTED SUPSPACE   0.75401585626256251        1.0633632596759572     
 Start vector guessed from diagonal
 ... selected element no. 20
 Start vector guessed from diagonal
 ... selected element no. 11
 Start vector guessed from diagonal
 ... selected element no. 29
 Start vector guessed from diagonal
 ... selected element no. 21
 CCEQ_SOL: IPRLE   =               5
 CCEQ_SOL: TRIPLET =     F
 CCEQ_SOL: LINQCC  =     F
 CCEQ_SOL: NREDH   =               4
 CCEQ_SOL: MAXRED  =             200
 CCEQ_SOL: MAXLE   =             300
 CCEQ_SOL: ISIDE   =               1
 CCEQ_SOL: ISTRVE  =               1
 CCEQ_SOL: NVEC    =               4
 CCEQ_SOL: NUPVEC  =               4
 CCEQ_SOL: NCCVAR  =            2889



 >>>>> COUPLED CLUSTER RESPONSE SOLVER <<<<<

    Iter  #Vectors  time (min)   residual
    --------------------------------------


 Time used in     CC_RHTR in total   :       1.52 seconds
 Time used in   CC part              :       0.02 seconds
 Time used in   Int. calc. & read    :       0.34 seconds
 Time used in   IO of vectors/I.M.   :       0.00 seconds
  

 REDUCED EIGENVALUES real part:

               Column   1
       1       0.57225388
       2       0.57540966
       3       0.62992629
       4       0.71525283
    ==== End of matrix output ====
  
 ROOT:  1 RESIDUAL TOT: 3.10687D-01
 ROOT:  2 RESIDUAL TOT: 3.06199D-01
 ROOT:  3 RESIDUAL TOT: 3.26626D-01
 ROOT:  4 RESIDUAL TOT: 3.19033D-01
      1       4         0.03     0.33E+00

 Lowest eigenvalues in this iteration: 

               Column   1
       1       0.57225388
       2       0.57540966
       3       0.62992629
       4       0.71525283
    ==== End of matrix output ====
 Dimension of the reduced space:     8
 >>> TIME USED IN THIS MICRO ITERATION        1.53



 Time used in     CC_RHTR in total   :       1.53 seconds
 Time used in   CC part              :       0.02 seconds
 Time used in   Int. calc. & read    :       0.34 seconds
 Time used in   IO of vectors/I.M.   :       0.00 seconds
  

 REDUCED EIGENVALUES real part:

               Column   1
       1       0.49429419
       2       0.49564668
       3       0.55069422
       4       0.64147474
    ==== End of matrix output ====
  
 ROOT:  1 RESIDUAL TOT: 5.20679D-02
 ROOT:  2 RESIDUAL TOT: 5.49991D-02
 ROOT:  3 RESIDUAL TOT: 8.24889D-02
 ROOT:  4 RESIDUAL TOT: 5.49928D-02
      2       4         0.03     0.82E-01

 Lowest eigenvalues in this iteration: 

               Column   1
       1       0.49429419
       2       0.49564668
       3       0.55069422
       4       0.64147474
    ==== End of matrix output ====
 Dimension of the reduced space:    12
 >>> TIME USED IN THIS MICRO ITERATION        1.54



 Time used in     CC_RHTR in total   :       1.53 seconds
 Time used in   CC part              :       0.02 seconds
 Time used in   Int. calc. & read    :       0.35 seconds
 Time used in   IO of vectors/I.M.   :       0.00 seconds
  

 REDUCED EIGENVALUES real part:

               Column   1
       1       0.49156930
       2       0.49210577
       3       0.54548725
       4       0.63959395
    ==== End of matrix output ====
  
 ROOT:  1 RESIDUAL TOT: 3.21889D-02
 ROOT:  2 RESIDUAL TOT: 3.84313D-02
 ROOT:  3 RESIDUAL TOT: 3.89232D-02
 ROOT:  4 RESIDUAL TOT: 1.42766D-02
      3       4         0.03     0.39E-01

 Lowest eigenvalues in this iteration: 

               Column   1
       1       0.49156930
       2       0.49210577
       3       0.54548725
       4       0.63959395
    ==== End of matrix output ====
 Dimension of the reduced space:    16
 >>> TIME USED IN THIS MICRO ITERATION        1.54



 Time used in     CC_RHTR in total   :       1.54 seconds
 Time used in   CC part              :       0.02 seconds
 Time used in   Int. calc. & read    :       0.34 seconds
 Time used in   IO of vectors/I.M.   :       0.00 seconds
  

 REDUCED EIGENVALUES real part:

               Column   1
       1       0.49164211
       2       0.49204312
       3       0.54531727
       4       0.63990454
    ==== End of matrix output ====
  
 ROOT:  1 RESIDUAL TOT: 1.20046D-02
 ROOT:  2 RESIDUAL TOT: 1.72677D-02
 ROOT:  3 RESIDUAL TOT: 3.17019D-02
 ROOT:  4 RESIDUAL TOT: 7.62730D-03
      4       4         0.03     0.32E-01

 Lowest eigenvalues in this iteration: 

               Column   1
       1       0.49164211
       2       0.49204312
       3       0.54531727
       4       0.63990454
    ==== End of matrix output ====
 Dimension of the reduced space:    20
 >>> TIME USED IN THIS MICRO ITERATION        1.54



 Time used in     CC_RHTR in total   :       1.54 seconds
 Time used in   CC part              :       0.02 seconds
 Time used in   Int. calc. & read    :       0.35 seconds
 Time used in   IO of vectors/I.M.   :       0.00 seconds
  

 REDUCED EIGENVALUES real part:

               Column   1
       1       0.49152647
       2       0.49172711
       3       0.54361247
       4       0.63981094
    ==== End of matrix output ====
  
 ROOT:  1 RESIDUAL TOT: 6.95604D-03
 ROOT:  2 RESIDUAL TOT: 1.67681D-02
 ROOT:  3 RESIDUAL TOT: 2.43357D-02
 ROOT:  4 RESIDUAL TOT: 1.68205D-02
      5       4         0.03     0.24E-01

 Lowest eigenvalues in this iteration: 

               Column   1
       1       0.49152647
       2       0.49172711
       3       0.54361247
       4       0.63981094
    ==== End of matrix output ====
 Dimension of the reduced space:    24
 >>> TIME USED IN THIS MICRO ITERATION        1.54



 Time used in     CC_RHTR in total   :       1.54 seconds
 Time used in   CC part              :       0.02 seconds
 Time used in   Int. calc. & read    :       0.35 seconds
 Time used in   IO of vectors/I.M.   :       0.00 seconds
  

 REDUCED EIGENVALUES real part:

               Column   1
       1       0.49148755
       2       0.49149713
       3       0.54314575
       4       0.63931286
    ==== End of matrix output ====
  
 ROOT:  1 RESIDUAL TOT: 3.02965D-03
 ROOT:  2 RESIDUAL TOT: 5.37981D-03
 ROOT:  3 RESIDUAL TOT: 1.00580D-02
 ROOT:  4 RESIDUAL TOT: 3.14802D-02
      6       4         0.03     0.31E-01

 Lowest eigenvalues in this iteration: 

               Column   1
       1       0.49148755
       2       0.49149713
       3       0.54314575
       4       0.63931286
    ==== End of matrix output ====
 Dimension of the reduced space:    28
 >>> TIME USED IN THIS MICRO ITERATION        1.55



 Time used in     CC_RHTR in total   :       1.54 seconds
 Time used in   CC part              :       0.02 seconds
 Time used in   Int. calc. & read    :       0.35 seconds
 Time used in   IO of vectors/I.M.   :       0.00 seconds
  

 REDUCED EIGENVALUES real part:

               Column   1
       1       0.49148001
       2       0.49148159
       3       0.54313805
       4       0.63833586
    ==== End of matrix output ====
  
 ROOT:  1 RESIDUAL TOT: 8.91156D-04
 ROOT:  2 RESIDUAL TOT: 6.63010D-04
 ROOT:  3 RESIDUAL TOT: 2.69214D-03
 ROOT:  4 RESIDUAL TOT: 5.19411D-02
      7       4         0.03     0.52E-01

 Lowest eigenvalues in this iteration: 

               Column   1
       1       0.49148001
       2       0.49148159
       3       0.54313805
       4       0.63833586
    ==== End of matrix output ====
 Dimension of the reduced space:    32
 >>> TIME USED IN THIS MICRO ITERATION        1.55



 Time used in     CC_RHTR in total   :       1.54 seconds
 Time used in   CC part              :       0.02 seconds
 Time used in   Int. calc. & read    :       0.35 seconds
 Time used in   IO of vectors/I.M.   :       0.00 seconds
  

 REDUCED EIGENVALUES real part:

               Column   1
       1       0.49148486
       2       0.49148542
       3       0.54315617
       4       0.63831076
    ==== End of matrix output ====
  
 ROOT:  1 RESIDUAL TOT: 1.23841D-04
 ROOT:  2 RESIDUAL TOT: 1.58111D-04
 ROOT:  3 RESIDUAL TOT: 5.58947D-04
 ROOT:  4 RESIDUAL TOT: 4.23481D-03
      8       4         0.03     0.42E-02

 Lowest eigenvalues in this iteration: 

               Column   1
       1       0.49148486
       2       0.49148542
       3       0.54315617
       4       0.63831076
    ==== End of matrix output ====
 Dimension of the reduced space:    36
 >>> TIME USED IN THIS MICRO ITERATION        1.55



 Time used in     CC_RHTR in total   :       1.53 seconds
 Time used in   CC part              :       0.02 seconds
 Time used in   Int. calc. & read    :       0.35 seconds
 Time used in   IO of vectors/I.M.   :       0.00 seconds
  

 REDUCED EIGENVALUES real part:

               Column   1
       1       0.49148356
       2       0.49148359
       3       0.54315724
       4       0.63828996
    ==== End of matrix output ====
  
 ROOT:  1 RESIDUAL TOT: 3.45168D-05
 ROOT:  2 RESIDUAL TOT: 2.95258D-05
 ROOT:  3 RESIDUAL TOT: 1.19886D-04
 ROOT:  4 RESIDUAL TOT: 1.20110D-03
      9       4         0.03     0.12E-02

 Lowest eigenvalues in this iteration: 

               Column   1
       1       0.49148356
       2       0.49148359
       3       0.54315724
       4       0.63828996
    ==== End of matrix output ====
 Dimension of the reduced space:    40
 >>> TIME USED IN THIS MICRO ITERATION        1.55



 Time used in     CC_RHTR in total   :       1.54 seconds
 Time used in   CC part              :       0.02 seconds
 Time used in   Int. calc. & read    :       0.35 seconds
 Time used in   IO of vectors/I.M.   :       0.00 seconds
  

 REDUCED EIGENVALUES real part:

               Column   1
       1       0.49148360
       2       0.49148361
       3       0.54315754
       4       0.63829182
    ==== End of matrix output ====
  
 ROOT:  1 RESIDUAL TOT: 4.82287D-06
 ROOT:  2 RESIDUAL TOT: 4.71317D-06
 ROOT:  3 RESIDUAL TOT: 2.49575D-05
 ROOT:  4 RESIDUAL TOT: 2.57702D-04
     10       4         0.03     0.26E-03

 Lowest eigenvalues in this iteration: 

               Column   1
       1       0.49148360
       2       0.49148361
       3       0.54315754
       4       0.63829182
    ==== End of matrix output ====
 Dimension of the reduced space:    44
 >>> TIME USED IN THIS MICRO ITERATION        1.55



 Time used in     CC_RHTR in total   :       1.54 seconds
 Time used in   CC part              :       0.02 seconds
 Time used in   Int. calc. & read    :       0.35 seconds
 Time used in   IO of vectors/I.M.   :       0.00 seconds
  

 REDUCED EIGENVALUES real part:

               Column   1
       1       0.49148364
       2       0.49148364
       3       0.54315753
       4       0.63829199
    ==== End of matrix output ====
  
 ROOT:  1 RESIDUAL TOT: 8.03827D-07
 ROOT:  2 RESIDUAL TOT: 8.63473D-07
 ROOT:  3 RESIDUAL TOT: 5.28849D-06
 ROOT:  4 RESIDUAL TOT: 5.28728D-05
     11       4         0.03     0.53E-04

 Lowest eigenvalues in this iteration: 

               Column   1
       1       0.49148364
       2       0.49148364
       3       0.54315753
       4       0.63829199
    ==== End of matrix output ====
 Dimension of the reduced space:    48
 >>> TIME USED IN THIS MICRO ITERATION        1.56



 Time used in     CC_RHTR in total   :       1.53 seconds
 Time used in   CC part              :       0.01 seconds
 Time used in   Int. calc. & read    :       0.35 seconds
 Time used in   IO of vectors/I.M.   :       0.00 seconds
  

 REDUCED EIGENVALUES real part:

               Column   1
       1       0.49148364
       2       0.49148364
       3       0.54315754
       4       0.63829232
    ==== End of matrix output ====
  
 ROOT:  1 RESIDUAL TOT: 1.24043D-07
 ROOT:  2 RESIDUAL TOT: 1.39813D-07
 ROOT:  3 RESIDUAL TOT: 6.13768D-07
 ROOT:  4 RESIDUAL TOT: 7.11861D-06
     12       4         0.03     0.71E-05

 Lowest eigenvalues in this iteration: 

               Column   1
       1       0.49148364
       2       0.49148364
       3       0.54315754
       4       0.63829232
    ==== End of matrix output ====
 Dimension of the reduced space:    52
 >>> TIME USED IN THIS MICRO ITERATION        1.55



 Time used in     CC_RHTR in total   :       1.53 seconds
 Time used in   CC part              :       0.02 seconds
 Time used in   Int. calc. & read    :       0.35 seconds
 Time used in   IO of vectors/I.M.   :       0.00 seconds
  

 REDUCED EIGENVALUES real part:

               Column   1
       1       0.49148364
       2       0.49148364
       3       0.54315754
       4       0.63829240
    ==== End of matrix output ====
  
 ROOT:  1 RESIDUAL TOT: 2.95857D-08
 ROOT:  2 RESIDUAL TOT: 2.09672D-08
 ROOT:  3 RESIDUAL TOT: 9.41404D-08
 ROOT:  4 RESIDUAL TOT: 1.45590D-06
     13       4         0.03     0.15E-05

 Lowest eigenvalues in this iteration: 

               Column   1
       1       0.49148364
       2       0.49148364
       3       0.54315754
       4       0.63829240
    ==== End of matrix output ====
 Dimension of the reduced space:    56
 >>> TIME USED IN THIS MICRO ITERATION        1.55



 Time used in     CC_RHTR in total   :       1.53 seconds
 Time used in   CC part              :       0.02 seconds
[...]
 | 4 1 2 2 |   2  10   1   1 |       11       19 |          677 |    0.020024  |
 | 1 1 3 2 |   3  10   1   1 |       21       19 |          687 |   -0.024600  |
 | 2 1 4 2 |   2  10   1   1 |       30       19 |          696 |   -0.027946  |
 | 4 4 2 3 |   1   1   1   1 |       10       20 |          713 |    0.020024  |
 | 4 3 2 4 |   1   2   1   1 |       10       30 |         1083 |   -0.027946  |
 | 2 3 4 4 |   1   1   1   1 |       29       29 |         1065 |   -0.025933  |
 | 4 2 1 2 |   1   1   1   1 |        1       11 |         1740 |   -0.032406  |
 | 4 3 1 3 |   1   1   1   1 |        1       20 |         2073 |   -0.032406  |
 | 4 3 1 3 |   1   9   1   1 |        1       28 |         2369 |   -0.034725  |
 | 3 3 2 3 |   2   9   1   1 |       11       28 |         2379 |   -0.042415  |
 | 3 3 2 3 |   3   9   1   1 |       12       28 |         2380 |   -0.018884  |
 | 3 3 2 3 |   4   9   1   1 |       13       28 |         2381 |    0.024313  |
 | 2 3 3 3 |   2   9   1   1 |       20       28 |         2388 |   -0.042415  |
 | 2 3 3 3 |   3   9   1   1 |       21       28 |         2389 |   -0.018884  |
 | 2 3 3 3 |   4   9   1   1 |       22       28 |         2390 |    0.024313  |
 | 1 3 4 3 |   2   9   1   1 |       29       28 |         2397 |   -0.063225  |
 | 1 3 4 3 |   4   9   1   1 |       31       28 |         2399 |    0.029549  |
 | 4 4 1 4 |   1   4   1   1 |        1       32 |         2517 |   -0.022729  |
 +=============================================================================+


          Norm of Printed Amplitude Vector :             0.9828

          Printed all single excitations greater than 0.098498

          Printed all double excitations greater than 0.017267


 Analysis of the Coupled Cluster Excitation Vector Number :  2
 -------------------------------------------------------------

          Excitation Energy :                            13.1371 eV


          CC_PRAM:Overall Contribution of the Different Components
          --------------------------------------------------------



          Single Excitation Contribution :              96.9866 %

          Double Excitation Contribution :               3.0134 %

          ||T1||/||T2||                  :               5.6732

          Norm of Total Amplitude Vector :               0.9999


 +=============================================================================+
 | symmetry|  orbital index  |   Excitation Numbers             |   Amplitude  |
 |  Index  |   a   b   i   j |      NAI      NBJ |     NAIBJ    |              |
 +=============================================================================+
 | 2   3   |   1       1     |       19          |              |   -0.672530  |
 | 2   3   |   2       1     |       20          |              |    0.143075  |
 | 2   3   |   3       1     |       21          |              |    0.108998  |
 | 3   2   |   1       1     |       10          |              |    0.672530  |
 | 3   2   |   2       1     |       11          |              |   -0.143075  |
 | 3   2   |   3       1     |       12          |              |   -0.108998  |
 +-----------------------------------------------------------------------------+
 | 1 2 3 1 |   3   1   1   1 |       21        1 |           21 |   -0.023870  |
 | 2 2 4 1 |   2   1   1   1 |       30        1 |           30 |   -0.021521  |
 | 3 1 1 2 |   1   2   1   1 |        1       11 |          371 |    0.023870  |
 | 4 1 2 2 |   1   1   1   1 |       10       10 |          343 |   -0.020606  |
 | 1 1 3 2 |   2  10   1   1 |       20       19 |          686 |    0.020606  |
 | 2 1 4 2 |   1   2   1   1 |       29       11 |          399 |   -0.018808  |
 | 3 4 1 3 |   1   3   1   1 |        1       22 |          778 |    0.019448  |
 | 2 4 4 3 |   1   1   1   1 |       29       20 |          732 |    0.018255  |
 | 3 3 1 4 |   1   2   1   1 |        1       30 |         1074 |    0.021521  |
 | 4 3 2 4 |   2   1   1   1 |       11       29 |         1047 |   -0.018255  |
 | 1 3 3 4 |   3   1   1   1 |       21       29 |         1057 |    0.018808  |
 | 4 1 1 1 |   1  10   1   1 |        1       10 |         1703 |   -0.018310  |
 | 3 1 2 1 |   2  10   1   1 |       11       10 |         1713 |   -0.043051  |
 | 3 1 2 1 |   4  10   1   1 |       13       10 |         1715 |    0.018602  |
 | 1 1 4 1 |   2  10   1   1 |       29       10 |         1731 |   -0.025280  |
 | 4 2 1 2 |   1   9   1   1 |        1       19 |         2036 |    0.018310  |
 | 3 2 2 2 |   2   1   1   1 |       11       11 |         1750 |    0.024923  |
 | 2 2 3 2 |   2   1   1   1 |       20       11 |         1759 |   -0.025227  |
 | 2 2 3 2 |   2   2   1   1 |       20       12 |         1796 |   -0.021512  |
 | 2 2 3 2 |   2   9   1   1 |       20       19 |         2055 |    0.043051  |
 | 2 2 3 2 |   4   9   1   1 |       22       19 |         2057 |   -0.018602  |
 | 1 2 4 2 |   2   9   1   1 |       29       19 |         2064 |    0.025280  |
 | 3 3 2 3 |   2   1   1   1 |       11       20 |         2083 |    0.025227  |
 | 3 3 2 3 |   2   2   1   1 |       11       21 |         2120 |    0.021512  |
 | 2 3 3 3 |   2   1   1   1 |       20       20 |         2092 |   -0.024923  |
 | 3 4 2 4 |   2   1   1   1 |       11       29 |         2416 |   -0.021781  |
 | 2 4 3 4 |   2   1   1   1 |       20       29 |         2425 |    0.021781  |
 +=============================================================================+


          Norm of Printed Amplitude Vector :             0.9923

          Printed all single excitations greater than 0.098482

          Printed all double excitations greater than 0.017359


 Analysis of the Coupled Cluster Excitation Vector Number :  3
 -------------------------------------------------------------

          Excitation Energy :                            13.3759 eV


          CC_PRAM:Overall Contribution of the Different Components
          --------------------------------------------------------



          Single Excitation Contribution :              97.1499 %

          Double Excitation Contribution :               2.8501 %

          ||T1||/||T2||                  :               5.8383

          Norm of Total Amplitude Vector :               1.0000


 +=============================================================================+
 | symmetry|  orbital index  |   Excitation Numbers             |   Amplitude  |
 |  Index  |   a   b   i   j |      NAI      NBJ |     NAIBJ    |              |
 +=============================================================================+
 | 1   4   |   1       1     |       28          |              |   -0.105380  |
 | 2   3   |   1       1     |       19          |              |    0.686601  |
 | 3   2   |   1       1     |       10          |              |    0.686601  |
 +-----------------------------------------------------------------------------+
 | 3 2 1 1 |   1   1   1   1 |        1        1 |            1 |   -0.020251  |
 | 1 2 3 1 |   3   1   1   1 |       21        1 |           21 |   -0.019987  |
 | 2 2 4 1 |   2   1   1   1 |       30        1 |           30 |   -0.021964  |
 | 3 1 1 2 |   1   2   1   1 |        1       11 |          371 |   -0.019987  |
 | 4 1 2 2 |   1   1   1   1 |       10       10 |          343 |   -0.022295  |
 | 4 1 2 2 |   1   2   1   1 |       10       11 |          380 |    0.017304  |
 | 4 1 2 2 |   1  10   1   1 |       10       19 |          676 |   -0.018227  |
 | 1 1 3 2 |   2  10   1   1 |       20       19 |          686 |   -0.022295  |
 | 1 1 3 2 |   3  10   1   1 |       21       19 |          687 |    0.017304  |
 | 2 1 4 2 |   1   2   1   1 |       29       11 |          399 |   -0.021383  |
 | 3 4 1 3 |   1   3   1   1 |        1       22 |          778 |   -0.019594  |
 | 3 3 1 4 |   1   2   1   1 |        1       30 |         1074 |   -0.021964  |
 | 1 3 3 4 |   3   1   1   1 |       21       29 |         1057 |   -0.021383  |
 | 2 3 4 4 |   2   1   1   1 |       30       29 |         1066 |   -0.020280  |
 | 2 3 4 4 |   1   2   1   1 |       29       30 |         1102 |   -0.020280  |
 | 4 1 1 1 |   1  10   1   1 |        1       10 |         1703 |   -0.022012  |
 | 3 1 2 1 |   2  10   1   1 |       11       10 |         1713 |   -0.040685  |
 | 3 1 2 1 |   4  10   1   1 |       13       10 |         1715 |    0.018890  |
 | 2 1 3 1 |   2  10   1   1 |       20       10 |         1722 |   -0.030685  |
 | 1 1 4 1 |   2  10   1   1 |       29       10 |         1731 |   -0.025901  |
 | 4 2 1 2 |   1   9   1   1 |        1       19 |         2036 |   -0.022012  |
 | 3 2 2 2 |   2   9   1   1 |       11       19 |         2046 |   -0.030685  |
 | 2 2 3 2 |   2   2   1   1 |       20       12 |         1796 |   -0.016882  |
 | 2 2 3 2 |   2   9   1   1 |       20       19 |         2055 |   -0.040685  |
 | 2 2 3 2 |   4   9   1   1 |       22       19 |         2057 |    0.018890  |
 | 1 2 4 2 |   2   9   1   1 |       29       19 |         2064 |   -0.025901  |
 | 3 3 2 3 |   2   2   1   1 |       11       21 |         2120 |   -0.016882  |
 +=============================================================================+


          Norm of Printed Amplitude Vector :             0.9844

          Printed all single excitations greater than 0.098565

          Printed all double excitations greater than 0.016882


 Analysis of the Coupled Cluster Excitation Vector Number :  4
 -------------------------------------------------------------

          Excitation Energy :                            17.3163 eV


          CC_PRAM:Overall Contribution of the Different Components
          --------------------------------------------------------



          Single Excitation Contribution :              97.1260 %

          Double Excitation Contribution :               2.8740 %

          ||T1||/||T2||                  :               5.8133

          Norm of Total Amplitude Vector :               0.9985


 +=============================================================================+
 | symmetry|  orbital index  |   Excitation Numbers             |   Amplitude  |
 |  Index  |   a   b   i   j |      NAI      NBJ |     NAIBJ    |              |
 +=============================================================================+
 | 2   3   |   1       1     |       19          |              |    0.139337  |
 | 2   3   |   2       1     |       20          |              |    0.681166  |
 | 3   2   |   1       1     |       10          |              |   -0.139337  |
 | 3   2   |   2       1     |       11          |              |   -0.681166  |
 +-----------------------------------------------------------------------------+
 | 1 2 3 1 |   3   2   1   1 |       21        2 |           58 |    0.027646  |
 | 2 2 4 1 |   2   2   1   1 |       30        2 |           67 |    0.031531  |
 | 3 1 1 2 |   2   2   1   1 |        2       11 |          372 |   -0.027646  |
 | 4 1 2 2 |   2   2   1   1 |       11       11 |          381 |    0.018727  |
 | 1 4 3 3 |   3   1   1   1 |       21       20 |          724 |   -0.018727  |
 | 2 4 4 3 |   2   1   1   1 |       30       20 |          733 |   -0.026317  |
 | 3 3 1 4 |   2   2   1   1 |        2       30 |         1075 |   -0.031531  |
 | 4 3 2 4 |   2   2   1   1 |       11       30 |         1084 |    0.026317  |
 | 3 1 2 1 |   2  10   1   1 |       11       10 |         1713 |    0.019567  |
 | 4 2 1 2 |   1   1   1   1 |        1       11 |         1740 |    0.019057  |
 | 3 2 2 2 |   2   1   1   1 |       11       11 |         1750 |    0.019801  |
 | 3 2 2 2 |   4   1   1   1 |       13       11 |         1752 |   -0.030382  |
 | 2 2 3 2 |   2   1   1   1 |       20       11 |         1759 |    0.032533  |
 | 2 2 3 2 |   3   1   1   1 |       21       11 |         1760 |    0.029037  |
 | 2 2 3 2 |   2   9   1   1 |       20       19 |         2055 |   -0.019567  |
 | 1 2 4 2 |   2   1   1   1 |       29       11 |         1768 |    0.021287  |
 | 1 2 4 2 |   4   1   1   1 |       31       11 |         1770 |   -0.018477  |
 | 4 3 1 3 |   1   1   1   1 |        1       20 |         2073 |   -0.019057  |
 | 3 3 2 3 |   2   1   1   1 |       11       20 |         2083 |   -0.032533  |
 | 3 3 2 3 |   3   1   1   1 |       12       20 |         2084 |   -0.029037  |
 | 2 3 3 3 |   2   1   1   1 |       20       20 |         2092 |   -0.019801  |
 | 2 3 3 3 |   4   1   1   1 |       22       20 |         2094 |    0.030382  |
 | 1 3 4 3 |   2   1   1   1 |       29       20 |         2101 |   -0.021287  |
 | 1 3 4 3 |   4   1   1   1 |       31       20 |         2103 |    0.018477  |
 | 3 4 2 4 |   3   1   1   1 |       12       29 |         2417 |    0.019594  |
 | 2 4 3 4 |   3   1   1   1 |       21       29 |         2426 |   -0.019594  |
 +=============================================================================+


          Norm of Printed Amplitude Vector :             0.9913

          Printed all single excitations greater than 0.098553

          Printed all double excitations greater than 0.016953


 *******************************************************************************

 --------------------------
 Symmetry class Nr.:     4
 Multiplicity      :     3
 --------------------------

 Length of Excitation vectors in this class is:      5545
 No Excitation Energies calculated in this symmetry class

 *******************************************************************

 Ground state energy is target 

 Ecorr =                    -40.39538625452946973837

 *******************************************************************
  

 *******************************************************************************
 *******************************************************************************
 *                                                                             *
 *                                                                             *
 *                   SUMMARY OF COUPLED CLUSTER CALCULATION                    *
 *                                                                             *
 *                                                                             *
 *******************************************************************************
 *******************************************************************************

                                                                                
                                                                                
            Total SCF   energy:                   -40.1917720926                
            Total MP2-R12/B energy:               -40.3940351575                
            Total CC2-R12/B energy:               -40.3953862545                
                                                                                
                                                                                
 +=============================================================================+
 |  sym. | Exci.  |        CC2-R12/B  Excitation energies            | ||T1||  |
 |(spin, |        +------------------------------------------------------------+
 | spat) |        |     Hartree    |       eV.      |     cm-1       |    %    |
 +=============================================================================+
 | ^1A   |    1   |     0.4914836  |      13.37395  |    107868.190  |  97.33  |
 | ^1A   |    2   |     0.4914836  |      13.37395  |    107868.190  |  97.34  |
 | ^1A   |    3   |     0.5431575  |      14.78007  |    119209.300  |  97.10  |
 | ^1A   |    4   |     0.6382924  |      17.36882  |    140088.990  |  97.38  |
 +-----------------------------------------------------------------------------+
 | ^1B2  |    1   |     0.4176046  |      11.36360  |     91653.619  |  97.02  |
 | ^1B2  |    2   |     0.4827791  |      13.13709  |    105957.754  |  96.99  |
 | ^1B2  |    3   |     0.4915543  |      13.37587  |    107883.690  |  97.15  |
 | ^1B2  |    4   |     0.6363614  |      17.31627  |    139665.174  |  97.13  |
 +-----------------------------------------------------------------------------+
 | ^1B1  |    1   |     0.4176046  |      11.36360  |     91653.619  |  97.02  |
 | ^1B1  |    2   |     0.4827791  |      13.13709  |    105957.754  |  96.99  |
 | ^1B1  |    3   |     0.4915543  |      13.37587  |    107883.690  |  97.15  |
 | ^1B1  |    4   |     0.6363614  |      17.31627  |    139665.174  |  97.13  |
 +-----------------------------------------------------------------------------+
 | ^1B3  |    1   |     0.4176046  |      11.36360  |     91653.619  |  97.02  |
 | ^1B3  |    2   |     0.4827791  |      13.13709  |    105957.754  |  96.99  |
 | ^1B3  |    3   |     0.4915543  |      13.37587  |    107883.690  |  97.15  |
 | ^1B3  |    4   |     0.6363614  |      17.31627  |    139665.174  |  97.13  |
 +=============================================================================+
                                                                                
                                                                                
     Total energies in Hartree:                                                 
             1 ^1A        -39.9039026147                                        
             2 ^1A        -39.9039026147                                        
             3 ^1A        -39.8522287157                                        
             4 ^1A        -39.7570938431                                        
             1 ^1B2       -39.9777816333                                        
             2 ^1B2       -39.9126071990                                        
             3 ^1B2       -39.9038319888                                        
             4 ^1B2       -39.7590248936                                        
             1 ^1B1       -39.9777816333                                        
             2 ^1B1       -39.9126071990                                        
             3 ^1B1       -39.9038319888                                        
             4 ^1B1       -39.7590248936                                        
             1 ^1B3       -39.9777816333                                        
             2 ^1B3       -39.9126071990                                        
             3 ^1B3       -39.9038319888                                        
             4 ^1B3       -39.7590248936                                        

  1 a.u. =        27.21138 eV.  
  1 a.u. =    219474.62934 cm-1.
  

 *******************************************************************************
 *******************************************************************************
 *                                                                             *
 *                                                                             *
 *                      END OF COUPLED CLUSTER CALCULATION                     *
 *                                                                             *
 *                                                                             *
 *******************************************************************************
 *******************************************************************************


 >>>> CPU and wall time for CC :     115.383     121.536

 
     Date and time (Linux)  : Sun Sep  8 21:12:15 2013
     Host name              : lpqlx131.ups-tlse.fr                    


                      .-------------------------------------.
                      | End of Coupled Cluster Section (CC) |
                      `-------------------------------------'

 >>>> Total CPU  time used in DALTON:  1 minute  56 seconds
 >>>> Total wall time used in DALTON:  2 minutes  2 seconds

 
     Date and time (Linux)  : Sun Sep  8 21:12:15 2013
     Host name              : lpqlx131.ups-tlse.fr                    
