

     ************************************************************************
     *************** Dalton - An Electronic Structure Program ***************
     ************************************************************************

    This is output from DALTON (Release Dalton2013 patch 0)
   ----------------------------------------------------------------------------
    NOTE:
     
    Dalton is an experimental code for the evaluation of molecular
    properties using (MC)SCF, DFT, CI, and CC wave functions.
    The authors accept no responsibility for the performance of
    the code or for the correctness of the results.
     
    The code (in whole or part) is provided under a licence and
    is not to be reproduced for further distribution without
    the written permission of the authors or their representatives.
     
    See the home page "http://daltonprogram.org" for further information.
     
    If results obtained with this code are published,
    the appropriate citations would be both of:
     
       K. Aidas, C. Angeli, K. L. Bak, V. Bakken, R. Bast,
       L. Boman, O. Christiansen, R. Cimiraglia, S. Coriani,
       P. Dahle, E. K. Dalskov, U. Ekstroem, T. Enevoldsen,
       J. J. Eriksen, P. Ettenhuber, B. Fernandez, L. Ferrighi,
       H. Fliegl, L. Frediani, K. Hald, A. Halkier, C. Haettig,
       H. Heiberg, T. Helgaker, A. C. Hennum, H. Hettema,
       E. Hjertenaes, S. Hoest, I.-M. Hoeyvik, M. F. Iozzi,
       B. Jansik, H. J. Aa. Jensen, D. Jonsson, P. Joergensen,
       J. Kauczor, S. Kirpekar, T. Kjaergaard, W. Klopper,
       S. Knecht, R. Kobayashi, H. Koch, J. Kongsted, A. Krapp,
       K. Kristensen, A. Ligabue, O. B. Lutnaes, J. I. Melo,
       K. V. Mikkelsen, R. H. Myhre, C. Neiss, C. B. Nielsen,
       P. Norman, J. Olsen, J. M. H. Olsen, A. Osted,
       M. J. Packer, F. Pawlowski, T. B. Pedersen, P. F. Provasi,
       S. Reine, Z. Rinkevicius, T. A. Ruden, K. Ruud, V. Rybkin,
       P. Salek, C. C. M. Samson, A. Sanchez de Meras, T. Saue,
       S. P. A. Sauer, B. Schimmelpfennig, K. Sneskov,
       A. H. Steindal, K. O. Sylvester-Hvid, P. R. Taylor,
       A. M. Teale, E. I. Tellgren, D. P. Tew, A. J. Thorvaldsen,
       L. Thoegersen, O. Vahtras, M. A. Watson, D. J. D. Wilson,
       M. Ziolkowski and H. Agren.
       The Dalton quantum chemistry program system.
       WIREs Comput. Mol. Sci. 2013. doi: 10.1002/wcms.1172
    
    and
    
       Dalton, a Molecular Electronic Structure Program,
       Release DALTON2013.0 (2013), see http://daltonprogram.org
   ----------------------------------------------------------------------------

    Authors in alphabetical order (major contribution(s) in parenthesis):

  Kestutis Aidas,           Vilnius University,           Lithuania   (QM/MM)
  Celestino Angeli,         University of Ferrara,        Italy       (NEVPT2)
  Keld L. Bak,              UNI-C,                        Denmark     (AOSOPPA, non-adiabatic coupling, magnetic properties)
  Vebjoern Bakken,          University of Oslo,           Norway      (DALTON; geometry optimizer, symmetry detection)
  Radovan Bast,             KTH Stockholm                 Sweden      (DALTON installation and execution frameworks)
  Linus Boman,              NTNU,                         Norway      (Cholesky decomposition and subsystems)
  Ove Christiansen,         Aarhus University,            Denmark     (CC module)
  Renzo Cimiraglia,         University of Ferrara,        Italy       (NEVPT2)
  Sonia Coriani,            University of Trieste,        Italy       (CC module, MCD in RESPONS)
  Paal Dahle,               University of Oslo,           Norway      (Parallelization)
  Erik K. Dalskov,          UNI-C,                        Denmark     (SOPPA)
  Thomas Enevoldsen,        Univ. of Southern Denmark,    Denmark     (SOPPA)
  Janus J. Eriksen,         Aarhus University,            Denmark     (PE-MP2/SOPPA, TDA)
  Berta Fernandez,          U. of Santiago de Compostela, Spain       (doublet spin, ESR in RESPONS)
  Lara Ferrighi,            Aarhus University,            Denmark     (PCM Cubic response)
  Heike Fliegl,             University of Oslo,           Norway      (CCSD(R12))
  Luca Frediani,            UiT The Arctic U. of Norway,  Norway      (PCM)
  Bin Gao,                  UiT The Arctic U. of Norway,  Norway      (Gen1Int library)
  Christof Haettig,         Ruhr-University Bochum,       Germany     (CC module)
  Kasper Hald,              Aarhus University,            Denmark     (CC module)
  Asger Halkier,            Aarhus University,            Denmark     (CC module)
  Hanne Heiberg,            University of Oslo,           Norway      (geometry analysis, selected one-electron integrals)
  Trygve Helgaker,          University of Oslo,           Norway      (DALTON; ABACUS, ERI, DFT modules, London, and much more)
  Alf Christian Hennum,     University of Oslo,           Norway      (Parity violation)
  Hinne Hettema,            University of Auckland,       New Zealand (quadratic response in RESPONS; SIRIUS supersymmetry)
  Eirik Hjertenaes,         NTNU,                         Norway      (Cholesky decomposition)
  Maria Francesca Iozzi,    University of Oslo,           Norway      (RPA)
  Brano Jansik              Technical Univ. of Ostrava    Czech Rep.  (DFT cubic response)
  Hans Joergen Aa. Jensen,  Univ. of Southern Denmark,    Denmark     (DALTON; SIRIUS, RESPONS, ABACUS modules, London, and much more)
  Dan Jonsson,              UiT The Arctic U. of Norway,  Norway      (cubic response in RESPONS module)
  Poul Joergensen,          Aarhus University,            Denmark     (RESPONS, ABACUS, and CC modules)
  Joanna Kauczor,           Linkoeping University,        Sweden      (Complex polarization propagator (CPP) module)
  Sheela Kirpekar,          Univ. of Southern Denmark,    Denmark     (Mass-velocity & Darwin integrals)
  Wim Klopper,              KIT Karlsruhe,                Germany     (R12 code in CC, SIRIUS, and ABACUS modules)
  Stefan Knecht,            ETH Zurich,                   Switzerland (Parallel CI and MCSCF)
  Rika Kobayashi,           Australian National Univ.,    Australia   (DIIS in CC, London in MCSCF)
  Henrik Koch,              NTNU,                         Norway      (CC module, Cholesky decomposition)
  Jacob Kongsted,           Univ. of Southern Denmark,    Denmark     (Polarizable embedding, QM/MM)
  Andrea Ligabue,           University of Modena,         Italy       (CTOCD, AOSOPPA)
  Ola B. Lutnaes,           University of Oslo,           Norway      (DFT Hessian)
  Juan I. Melo,             University of Buenos Aires,   Argentina   (LRESC, Relativistic Effects on NMR Shieldings)
  Kurt V. Mikkelsen,        University of Copenhagen,     Denmark     (MC-SCRF and QM/MM)
  Rolf H. Myhre,            NTNU,                         Norway      (Cholesky, subsystems and ECC2)
  Christian Neiss,          Univ. Erlangen-Nuernberg,     Germany     (CCSD(R12))
  Christian B. Nielsen,     University of Copenhagen,     Denmark     (QM/MM)
  Patrick Norman,           Linkoeping University,        Sweden      (Cubic response and complex response in RESPONS)
  Jeppe Olsen,              Aarhus University,            Denmark     (SIRIUS CI/density modules)
  Jogvan Magnus H. Olsen,   Univ. of Southern Denmark,    Denmark     (Polarizable embedding, PE library, QM/MM)
  Anders Osted,             Copenhagen University,        Denmark     (QM/MM)
  Martin J. Packer,         University of Sheffield,      UK          (SOPPA)
  Filip Pawlowski,          Kazimierz Wielki University   Poland      (CC3)
  Thomas B. Pedersen,       University of Oslo,           Norway      (Cholesky decomposition)
  Patricio F. Provasi,      University of Northeastern,   Argentina   (Analysis of coupling constants in localized orbitals)
  Zilvinas Rinkevicius,     KTH Stockholm,                Sweden      (open-shell DFT, ESR)
  Elias Rudberg,            KTH Stockholm,                Sweden      (DFT grid and basis info)
  Torgeir A. Ruden,         University of Oslo,           Norway      (Numerical derivatives in ABACUS)
  Kenneth Ruud,             UiT The Arctic U. of Norway,  Norway      (DALTON; ABACUS magnetic properties and  much more)
  Pawel Salek,              KTH Stockholm,                Sweden      (DALTON; DFT code)
  Claire C. M. Samson       University of Karlsruhe       Germany     (Boys localization, r12 integrals in ERI)
  Alfredo Sanchez de Meras, University of Valencia,       Spain       (CC module, Cholesky decomposition)
  Trond Saue,               Paul Sabatier University,     France      (direct Fock matrix construction)
  Stephan P. A. Sauer,      University of Copenhagen,     Denmark     (SOPPA(CCSD), SOPPA prop., AOSOPPA, vibrational g-factors)
  Bernd Schimmelpfennig,    Forschungszentrum Karlsruhe,  Germany     (AMFI module)
  Kristian Sneskov,         Aarhus University,            Denmark     (QM/MM, PE-CC)
  Arnfinn H. Steindal,      UiT The Arctic U. of Norway,  Norway      (parallel QM/MM)
  K. O. Sylvester-Hvid,     University of Copenhagen,     Denmark     (MC-SCRF)
  Peter R. Taylor,          VLSCI/Univ. of Melbourne,     Australia   (Symmetry handling ABACUS, integral transformation)
  Andrew M. Teale,          University of Nottingham,     England     (DFT-AC, DFT-D)
  David P. Tew,             University of Bristol,        England     (CCSD(R12))
  Olav Vahtras,             KTH Stockholm,                Sweden      (triplet response, spin-orbit, ESR, TDDFT, open-shell DFT)
  David J. Wilson,          La Trobe University,          Australia   (DFT Hessian and DFT magnetizabilities)
  Hans Agren,               KTH Stockholm,                Sweden      (SIRIUS module, RESPONS, MC-SCRF solvation model)
 --------------------------------------------------------------------------------

     Date and time (Linux)  : Sun Sep  8 20:59:09 2013
     Host name              : lpqlx131.ups-tlse.fr                    

 * Work memory size             :    64000000 =  488.28 megabytes.

 * Directories for basis set searches:
   1) /home/bast/DALTON-2013.0-Source/build/test_r12_prop_h2o
   2) /home/bast/DALTON-2013.0-Source/build/basis


Compilation information
-----------------------

 Who compiled             | bast
 Host                     | lpqlx131.ups-tlse.fr
 System                   | Linux-3.8.5-201.fc18.x86_64
 CMake generator          | Unix Makefiles
 Processor                | x86_64
 64-bit integers          | OFF
 MPI                      | OFF
 Fortran compiler         | /usr/bin/gfortran
 Fortran compiler version | GNU Fortran (GCC) 4.7.2 20121109 (Red Hat 4.7.2-8)
 C compiler               | /usr/bin/gcc
 C compiler version       | gcc (GCC) 4.7.2 20121109 (Red Hat 4.7.2-8)
 C++ compiler             | /usr/bin/g++
 C++ compiler version     | g++ (GCC) 4.7.2 20121109 (Red Hat 4.7.2-8)
 Static linking           | OFF
 Last Git revision        | f34203295a86316e27f9e7b44f9b6769c4a046c0
 Configuration time       | 2013-09-08 20:31:27.952056


   Content of the .dal input file
 ----------------------------------

**DALTON                                          
.DIRECT                                           
.RUN WAVE FUNCTION                                
**INTEGRAL                                        
.DIPLEN                                           
.R12                                              
**WAVE FUNCTION                                   
.CC                                               
*SCF INPUT                                        
.THRESH                                           
 1.0D-10                                          
*ORBITAL INPUT                                    
.MOSTART                                          
 H1DIAG                                           
*CC INP                                           
.MP2                                              
.PRINT                                            
 20                                               
.THRENR                                           
1.0D-10                                           
.THRLEQ                                           
1.0D-07                                           
*R12                                              
.NO 2                                             
.R12XXL                                           
.R12PRP                                           
.NO RXR                                           
*CCFOP                                            
.DIPMOM                                           
**END OF DALTON INPUT                             


   Content of the .mol file
 ----------------------------

BASIS                                                                          
Ahlrichs-VDZ Ahlrichs-VTZ                                                      
H2O                                                                            
                                                                               
    4    2  X  Y                                                               
 1      8.    1                                                                
O       .000000000000000    .000000000000000  0.000000000000000       *        
 1      1.    1                                                                
H      1.427450200000000    .000000000000000   1.110746000000000       *       
 2      8.    1                                                                
O       .000000000000000    .000000000000000  0.000000000000000       *        
 2      1.    1                                                                
H      1.427450200000000    .000000000000000   1.110746000000000       *       


       *******************************************************************
       *********** Output from DALTON general input processing ***********
       *******************************************************************

 --------------------------------------------------------------------------------
   Overall default print level:    0
   Print level for DALTON.STAT:    1

    AO-direct calculation (in sections where implemented)
    HERMIT 1- and 2-electron integral sections will be executed
    "Old" integral transformation used (limited to max 255 basis functions)
    Wave function sections will be executed (SIRIUS module)
 --------------------------------------------------------------------------------


   ****************************************************************************
   *************** Output of molecule and basis set information ***************
   ****************************************************************************


 INFO: basis set line contains more than one basis set:
     Ahlrichs-VDZ Ahlrichs-VTZ
 INFO: ".R12AUX" activated automatically.

    The two title cards from your ".mol" input:
    ------------------------------------------------------------------------
 1: H2O                                                                     
 2:                                                                         
    ------------------------------------------------------------------------

  Atomic type no.    1
  --------------------
  Nuclear charge:   8.00000
  Number of symmetry independent centers:    1
  Number of basis sets to read;    1
  Basis set file used for this atomic type with Z =   8 :
     "/home/bast/DALTON-2013.0-Source/build/basis/Ahlrichs-VDZ"

  Atomic type no.    2
  --------------------
  Nuclear charge:   1.00000
  Number of symmetry independent centers:    1
  Number of basis sets to read;    1
  Basis set file used for this atomic type with Z =   1 :
     "/home/bast/DALTON-2013.0-Source/build/basis/Ahlrichs-VDZ"

  Atomic type no.    3
  --------------------
  Nuclear charge:   8.00000
  Number of symmetry independent centers:    1
  This is an auxiliary basis for R12, MBSI:    2
  Basis set file used for this atomic type with Z =   8 :
     "/home/bast/DALTON-2013.0-Source/build/basis/Ahlrichs-VTZ"

  Atomic type no.    4
  --------------------
  Nuclear charge:   1.00000
  Number of symmetry independent centers:    1
  This is an auxiliary basis for R12, MBSI:    2
  Basis set file used for this atomic type with Z =   1 :
     "/home/bast/DALTON-2013.0-Source/build/basis/Ahlrichs-VTZ"


                         SYMGRP: Point group information
                         -------------------------------

Point group: C2v

   * The point group was generated by:

      Reflection in the yz-plane
      Reflection in the xz-plane

   * Group multiplication table

        |  E   C2z  Oxz  Oyz
   -----+--------------------
     E  |  E   C2z  Oxz  Oyz
    C2z | C2z   E   Oyz  Oxz
    Oxz | Oxz  Oyz   E   C2z
    Oyz | Oyz  Oxz  C2z   E 

   * Character table

        |  E   C2z  Oxz  Oyz
   -----+--------------------
    A1  |   1    1    1    1
    B1  |   1   -1    1   -1
    B2  |   1   -1   -1    1
    A2  |   1    1   -1   -1

   * Direct product table

        | A1   B1   B2   A2 
   -----+--------------------
    A1  | A1   B1   B2   A2 
    B1  | B1   A1   A2   B2 
    B2  | B2   A2   A1   B1 
    A2  | A2   B2   B1   A1 


                                 Isotopic Masses
                                 ---------------

                           O          15.994915
                           H   _1      1.007825
                           H   _2      1.007825
                           O           0.000000
                           H   _1      0.000000
                           H   _2      0.000000

                       Total mass:    18.010565 amu
                       Natural abundance:   0.000 %

 Center-of-mass coordinates (a.u.):    0.000000    0.000000    0.124309


  Atoms and basis sets
  --------------------

  Number of atom types :    4
  Total number of atoms:    6

  Basis set 1 refers to the basis "Ahlrichs-VDZ" from the basis set library.

  Basis set 2 refers to the basis "Ahlrichs-VTZ" from the basis set library.

  label  basis   atoms  charge   prim  cont     basis
  ------------------------------------------------------------------------------
  O        1       1    8.0000    19     9      [7s4p|3s2p]                                        
  H        1       2    1.0000     4     2      [4s|2s]                                            
  O        2       1    0.0000    28    15      [10s6p|6s3p]                                       
  H        2       2    0.0000     5     3      [5s|3s]                                            
  ------------------------------------------------------------------------------
  total:           6   10.0000    65    34
  ------------------------------------------------------------------------------

  Threshold for neglecting AO integrals:  1.00D-12


  Cartesian Coordinates (a.u.)
  ----------------------------

  Total number of coordinates:   18
  O       :     1  x   0.0000000000    2  y   0.0000000000    3  z   0.0000000000
  H   / 1 :     4  x   1.4274502000    5  y   0.0000000000    6  z   1.1107460000
  H   / 2 :     7  x  -1.4274502000    8  y   0.0000000000    9  z   1.1107460000
  O       :    10  x   0.0000000000   11  y   0.0000000000   12  z   0.0000000000
  H   / 1 :    13  x   1.4274502000   14  y   0.0000000000   15  z   1.1107460000
  H   / 2 :    16  x  -1.4274502000   17  y   0.0000000000   18  z   1.1107460000


  Symmetry Coordinates
  --------------------

  Number of coordinates in each symmetry:     6    6    4    2

  Symmetry  A1  ( 1)

    1   O     z    3
    2   H     x    [  4  -    7 ]/2
    3   H     z    [  6  +    9 ]/2
    4   O     z   12
    5   H     x    [ 13  -   16 ]/2
    6   H     z    [ 15  +   18 ]/2

  Symmetry  B1  ( 2)

    7   O     x    1
    8   H     x    [  4  +    7 ]/2
    9   H     z    [  6  -    9 ]/2
   10   O     x   10
   11   H     x    [ 13  +   16 ]/2
   12   H     z    [ 15  -   18 ]/2

  Symmetry  B2  ( 3)

   13   O     y    2
   14   H     y    [  5  +    8 ]/2
   15   O     y   11
   16   H     y    [ 14  +   17 ]/2

  Symmetry  A2  ( 4)

   17   H     y    [  5  -    8 ]/2
   18   H     y    [ 14  -   17 ]/2


   Interatomic separations (in Angstrom):
   --------------------------------------

            O           H   _1      H   _2      O           H   _1      H   _2
            ------      ------      ------      ------      ------      ------
 O     :    0.000000
 H   _1:    0.957119    0.000000
 H   _2:    0.957119    1.510748    0.000000
 O     :    0.000000    0.957119    0.957119    0.000000
 H   _1:    0.957119    0.000000    1.510748    0.957119    0.000000
 H   _2:    0.957119    1.510748    0.000000    0.957119    1.510748    0.000000


  Max    interatomic separation is    1.5107 Angstrom (    2.8549 Bohr)
  between atoms    3 and    2, "H   _2" and "H   _1".

  Min HX interatomic separation is    0.0000 Angstrom (    0.0000 Bohr)

  Min YX interatomic separation is    0.0000 Angstrom (    0.0000 Bohr)

WARNING: Number of short HX and YX bond lengths:    2    5
WARNING: If not intentional, maybe your coordinates were in Angstrom,
WARNING: but "Angstrom" was not specified in .mol file


  Bond distances (Angstrom):
  --------------------------

                  atom 1     atom 2       distance
                  ------     ------       --------
  bond distance:  H   _1     O            0.957119
  bond distance:  H   _2     O            0.957119


  Bond angles (degrees):
  ----------------------

                  atom 1     atom 2     atom 3         angle
                  ------     ------     ------         -----
  bond angle:     H   _1     O          H   _2       104.225




 Principal moments of inertia (u*A**2) and principal axes
 --------------------------------------------------------

   IA       0.618446          1.000000    0.000000    0.000000
   IB       1.150110          0.000000    0.000000    1.000000
   IC       1.768555          0.000000    1.000000    0.000000


 Rotational constants
 --------------------

 The molecule is planar.

               A                   B                   C

         817176.1690         439418.0341         285758.0791 MHz
           27.258063           14.657408            9.531864 cm-1


@  Nuclear repulsion energy :    9.196441218324 Hartree


  Symmetry Orbitals
  -----------------

  Number of orbitals in each symmetry:          19   10    5    0

  Number of main orbitals in each symmetry:           7    4    2    0
  Number of auxiliary functions in each symmetry:    12    6    3    0


  Symmetry  A1 ( 1)

    1     O    M   1s         1
    2     O    M   1s         2
    3     O    M   1s         3
    4     O    M   2pz        6
    5     O    M   2pz        9
    6     H    M   1s        10 +   11
    7     H    M   1s        12 +   13
    8     O    A   1s        14
    9     O    A   1s        15
   10     O    A   1s        16
   11     O    A   1s        17
   12     O    A   1s        18
   13     O    A   1s        19
   14     O    A   2pz       22
   15     O    A   2pz       25
   16     O    A   2pz       28
   17     H    A   1s        29 +   30
   18     H    A   1s        31 +   32
   19     H    A   1s        33 +   34


  Symmetry  B1 ( 2)

   20     O    M   2px        4
   21     O    M   2px        7
   22     H    M   1s        10 -   11
   23     H    M   1s        12 -   13
   24     O    A   2px       20
   25     O    A   2px       23
   26     O    A   2px       26
   27     H    A   1s        29 -   30
   28     H    A   1s        31 -   32
   29     H    A   1s        33 -   34


  Symmetry  B2 ( 3)

   30     O    M   2py        5
   31     O    M   2py        8
   32     O    A   2py       21
   33     O    A   2py       24
   34     O    A   2py       27


  No orbitals in symmetry  A2 ( 4)

  Number of floating/multiple basis set orbitals :    3

  Symmetries of electric field:  B1 (2)  B2 (3)  A1 (1)

  Symmetries of magnetic field:  B2 (3)  B1 (2)  A2 (4)


                     .---------------------------------------.
                     | Starting in Integral Section (HERMIT) |
                     `---------------------------------------'



    *************************************************************************
    ****************** Output from HERMIT input processing ******************
    *************************************************************************


 Default print level:        1

 * Nuclear model: Point charge

 Calculation of one-electron Hamiltonian integrals.

 The following one-electron property integrals are calculated as requested:
          - overlap integrals
          - dipole length integrals
          - Cartesian multipole moment integrals of orders 2 and lower

 Center of mass  (bohr):      0.000000000000      0.000000000000      0.124308991689
 Operator center (bohr):      0.000000000000      0.000000000000      0.000000000000
 Gauge origin    (bohr):      0.000000000000      0.000000000000      0.000000000000
 Dipole origin   (bohr):      0.000000000000      0.000000000000      0.000000000000


     ************************************************************************
     ************************** Output from HERINT **************************
     ************************************************************************

 >>>> Total CPU  time used in HERMIT:   0.02 seconds
 >>>> Total wall time used in HERMIT:   0.03 seconds


                        .----------------------------------.
                        | End of Integral Section (HERMIT) |
                        `----------------------------------'



                   .--------------------------------------------.
                   | Starting in Wave Function Section (SIRIUS) |
                   `--------------------------------------------'


 >>>> Detected R12 input:
 Direct Fock matrix formation switched on!
 Scale factors for CC excitations manifolds:
 for bra states (projection manifold):   1.0000000000000000     
 for ket states (operator manifold)  :   1.0000000000000000     

 **********************************************************************
 *SIRIUS* a direct, restricted step, second order MCSCF program       *
 **********************************************************************

 
     Date and time (Linux)  : Sun Sep  8 20:59:09 2013
     Host name              : lpqlx131.ups-tlse.fr                    

 Title lines from ".mol" input file:
     H2O                                                                     
                                                                             

 Print level on unit LUPRI =   2 is   0
 Print level on unit LUW4  =   2 is   5

@    (Integral direct) CC calculation.

@    This is a combination run starting with
@              a restricted, closed shell Hartree-Fock calculation

 Fock matrices are calculated directly without use of integrals on disk.

 Initial molecular orbitals are obtained according to
 ".MOSTART H1DIAG" input option

     Wave function specification
     ============================

     For the specification of the Coupled Cluster: see later.

@    For the wave function of type :      >>> CC <<<
@    Number of closed shell electrons          10
@    Number of electrons in active shells       0
@    Total charge of the molecule               0

@    Spin multiplicity and 2 M_S                1         0
     Total number of symmetries                 4
@    Reference state symmetry                   1

     Orbital specifications
     ======================
     Abelian symmetry species          All |    1    2    3    4
                                       --- |  ---  ---  ---  ---
     Total number of orbitals           13 |    7    4    2    0
     Number of basis functions          34 |   19   10    5    0

      ** Automatic occupation of RHF orbitals **

      -- Initial occupation of symmetries is determined from diagonal of H1 matrix.           
      -- Initial occupation of symmetries is :
@    Occupied SCF orbitals               5 |    3    1    1    0

     Maximum number of Fock   iterations      0
     Maximum number of DIIS   iterations     60
     Maximum number of QC-SCF iterations     60
     Threshold for SCF convergence     1.00D-10


 Changes of defaults for CC:
 ---------------------------


 -This is a direct atomic orbital integral based
  calculation for coupled cluster wave function
 -Dipole moment calculated
  


 >>>>> DIIS optimization of Hartree-Fock <<<<<

 C1-DIIS algorithm; max error vectors =   10

 Automatic occupation of symmetries with  10 electrons.

 Iter     Total energy    Error norm  Delta(E)    SCF occupation
 -----------------------------------------------------------------------------
   1  Screening settings (-IFTHRS, DIFDEN)   -6    T
@  1  -69.5401085647       7.10D+00  -6.95D+01     3   1   1   0
      Virial theorem: -V/T =      1.705529
@      MULPOP O      -1.84; H   _1  0.92; H   _2  0.92; 
 -----------------------------------------------------------------------------
   2  Screening settings (-IFTHRS, DIFDEN)   -6    T
@  2  -70.1332153370       6.84D+00  -5.93D-01     3   2   0   0
      Virial theorem: -V/T =      2.078946
@      MULPOP O       4.07; H   _1 -2.03; H   _2 -2.03; 
 -----------------------------------------------------------------------------
   3  Screening settings (-IFTHRS, DIFDEN)   -6    T
@  3  -75.7776837139       1.64D+00  -5.64D+00     3   1   1   0
      Virial theorem: -V/T =      1.967578
@      MULPOP O      -1.13; H   _1  0.56; H   _2  0.56; 
 -----------------------------------------------------------------------------
   4  Screening settings (-IFTHRS, DIFDEN)   -6    T
@  4  -75.9049133386       4.18D-01  -1.27D-01     3   1   1   0
      Virial theorem: -V/T =      1.992727
@      MULPOP O      -0.81; H   _1  0.40; H   _2  0.40; 
 -----------------------------------------------------------------------------
   5  Screening settings (-IFTHRS, DIFDEN)   -8    F
@  5  -75.9152818292       3.43D-02  -1.04D-02     3   1   1   0
      Virial theorem: -V/T =      2.000643
@      MULPOP O      -0.65; H   _1  0.33; H   _2  0.33; 
 -----------------------------------------------------------------------------
   6  Screening settings (-IFTHRS, DIFDEN)   -8    T
@  6  -75.9154487547       1.68D-02  -1.67D-04     3   1   1   0
      Virial theorem: -V/T =      2.000680
@      MULPOP O      -0.63; H   _1  0.31; H   _2  0.31; 
 -----------------------------------------------------------------------------
   7  Screening settings (-IFTHRS, DIFDEN)   -8    T
@  7  -75.9154654370       3.44D-03  -1.67D-05     3   1   1   0
      Virial theorem: -V/T =      2.000254
@      MULPOP O      -0.63; H   _1  0.31; H   _2  0.31; 
 -----------------------------------------------------------------------------
   8  Screening settings (-IFTHRS, DIFDEN)  -10    F
@  8  -75.9154660852       1.61D-04  -6.48D-07     3   1   1   0
      Virial theorem: -V/T =      2.000313
@      MULPOP O      -0.63; H   _1  0.31; H   _2  0.31; 
 -----------------------------------------------------------------------------
   9  Screening settings (-IFTHRS, DIFDEN)  -10    T
@  9  -75.9154660868       3.44D-05  -1.55D-09     3   1   1   0
      Virial theorem: -V/T =      2.000315
@      MULPOP O      -0.63; H   _1  0.31; H   _2  0.31; 
 -----------------------------------------------------------------------------
  10  Screening settings (-IFTHRS, DIFDEN)  -12    F
@ 10  -75.9154660869       9.62D-06  -5.72D-11     3   1   1   0
      Virial theorem: -V/T =      2.000316
@      MULPOP O      -0.63; H   _1  0.31; H   _2  0.31; 
 -----------------------------------------------------------------------------
  11  Screening settings (-IFTHRS, DIFDEN)  -12    T
@ 11  -75.9154660869       6.85D-07  -4.66D-12     3   1   1   0
      Virial theorem: -V/T =      2.000316
@      MULPOP O      -0.63; H   _1  0.31; H   _2  0.31; 
 -----------------------------------------------------------------------------
  12  Screening settings (-IFTHRS, DIFDEN)  -15    F
@ 12  -75.9154660869       9.25D-08  -5.68D-14     3   1   1   0
      Virial theorem: -V/T =      2.000316
@      MULPOP O      -0.63; H   _1  0.31; H   _2  0.31; 
 -----------------------------------------------------------------------------
  13  Screening settings (-IFTHRS, DIFDEN)  -15    T
@ 13  -75.9154660869       1.24D-08   0.00D+00     3   1   1   0
      Virial theorem: -V/T =      2.000316
@      MULPOP O      -0.63; H   _1  0.31; H   _2  0.31; 
 -----------------------------------------------------------------------------
  14  Screening settings (-IFTHRS, DIFDEN)  -15    T
@ 14  -75.9154660869       9.14D-10  -2.84D-14     3   1   1   0
      Virial theorem: -V/T =      2.000316
@      MULPOP O      -0.63; H   _1  0.31; H   _2  0.31; 
 -----------------------------------------------------------------------------
  15  Screening settings (-IFTHRS, DIFDEN)  -15    T
@ 15  -75.9154660869       1.44D-11   1.42D-14     3   1   1   0

@ *** DIIS converged in  15 iterations !
@     Converged SCF energy, gradient:    -75.915466086862    1.44D-11
    - total time used in SIRFCK :              0.00 seconds


 *** SCF orbital energy analysis ***

 Only the five lowest virtual orbital energies printed in each symmetry.

 Number of electrons :   10
 Orbital occupations :    3    1    1    0

 Sym       Hartree-Fock orbital energies

  1    -20.54881138    -1.33843367    -0.56246460     0.16583545     0.92724574
         1.22065280     1.43454927

  2     -0.71112109     0.25131205     0.81029375     1.38401557

  3     -0.50603092     1.19507352

    E(LUMO) :     0.16583545 au (symmetry 1)
  - E(HOMO) :    -0.50603092 au (symmetry 3)
  ------------------------------------------
    gap     :     0.67186636 au

 >>> Writing SIRIFC interface file <<<

  Canonical primary and secondary basis sets
  ISYM       NORB1 MBAS1       NORB2 MBAS2
     1           7     7          12    12
     2           4     4           6     6
     3           2     2           3     3
     4           0     0           0     0

 Computation of exchange matrix done [5]

 AUXILIARY BASIS LOW EIGENVALUES
 ISYM         EIGENVALUE
   1      0.000000000000
   2      0.000000000000
   3      0.000000000000

 >>>> CPU and wall time for SCF :       0.059       0.060


                       .-----------------------------------.
                       | >>> Final results from SIRIUS <<< |
                       `-----------------------------------'


@    Spin multiplicity:           1
@    Spatial symmetry:            1
@    Total charge of molecule:    0

@    Final HF energy:             -75.915466086862                 
@    Nuclear repulsion:             9.196441218324
@    Electronic energy:           -85.111907305185

@    Final gradient norm:           0.000000000014

 
     Date and time (Linux)  : Sun Sep  8 20:59:09 2013
     Host name              : lpqlx131.ups-tlse.fr                    

 (Only coefficients >0.0100 are printed.)

 Molecular orbitals for symmetry species  1
 ------------------------------------------

    Orbital         1        2        3        4        5
   1 O   :1s     0.9905   0.2794  -0.1027   0.0871   0.1369
   2 O   :1s    -0.0327   0.5560  -0.2136   0.0955   0.4502
   3 O   :1s     0.0151   0.3515  -0.3002   1.0487   0.1559
   4 O   :2pz   -0.0022   0.1164   0.5469   0.1971   0.3619
   5 O   :2pz    0.0023   0.0357   0.3925   0.3440   0.4742
   6 H   :1s    -0.0003   0.1743   0.1879  -0.0670  -1.1467
   7 H   :1s    -0.0028  -0.0145   0.0400  -0.8770   0.4919

 Molecular orbitals for symmetry species  2
 ------------------------------------------

    Orbital         1        2        3
   1 O   :2px    0.4999  -0.2872   0.2924
   2 O   :2px    0.2471  -0.6371   0.7727
   3 H   :1s     0.3358   0.0236  -1.1042
   4 H   :1s     0.0537   1.4088   0.5937

 Molecular orbitals for symmetry species  3
 ------------------------------------------

    Orbital         1        2
   1 O   :2py    0.6361   0.9657
   2 O   :2py    0.5157  -1.0350



 >>>> Total CPU  time used in SIRIUS :      0.06 seconds
 >>>> Total wall time used in SIRIUS :      0.06 seconds

 
     Date and time (Linux)  : Sun Sep  8 20:59:09 2013
     Host name              : lpqlx131.ups-tlse.fr                    


                     .---------------------------------------.
                     | End of Wave Function Section (SIRIUS) |
                     `---------------------------------------'



                    .------------------------------------------.
                    | Starting in Coupled Cluster Section (CC) |
                    `------------------------------------------'

  

 *******************************************************************************
 *******************************************************************************
 *                                                                             *
 *                                                                             *
 *                    START OF COUPLED CLUSTER CALCULATION                     *
 *                                                                             *
 *                                                                             *
 *******************************************************************************
 *******************************************************************************


 LWORK =        64000000



                           +----------------------------+
                           ! Information from CC_INIFRO !
                           +----------------------------+

   NT1FRO :       0       0       0       0
   NT2FRO :       0       0       0       0
   NDSFRO :       0       0       0       0
   NCOFRO :       0       0       0       0
   NALLAI :      16      13       7       4
   NOFROO :       0       0       0       0
   NF2IJG :     113      90      72      50
   NFROIJ :      11       6       6       2
   NFRIJK :      45      31      31      18
   NFROFR :       0       0       0       0
   NCOFRF :       0       0       0       0
   IRHFS  :       0       3       4       5
   IVIRS  :       5       9      12      13

   IT1FRO :       0       0       0       0
   IT1FRO :       0       0       0       0
   IT1FRO :       0       0       0       0
   IT1FRO :       0       0       0       0
   IT2FRO :       0       0       0       0
   IT2FRO :       0       0       0       0
   IT2FRO :       0       0       0       0
   IT2FRO :       0       0       0       0
   IDSFRO :       0       0       0       0
   IDSFRO :       0       0       0       0
   IDSFRO :       0       0       0       0
   IDSFRO :       0       0       0       0
   ICOFRO :       0       0       0       0
   ICOFRO :       0       0       0       0
   ICOFRO :       0       0       0       0
   ICOFRO :       0       0       0       0
   IALLAI :       0       9       3       4
   IALLAI :       0      12       1       7
   IALLAI :       0       0      15      13
   IALLAI :       0       3      13      16
   IOFROO :       0       0       0       0
   IOFROO :       0       0       0       0
   IOFROO :       0       0       0       0
   IOFROO :       0       0       0       0
   IF2IJG :       0      42      50      50
   IF2IJG :       0      77      38      72
   IF2IJG :       0      14     101      90
   IF2IJG :       0      42      86     113
   IFROIJ :       0       3       3       2
   IFROIJ :       0       9       1       6
   IFROIJ :       0       0      10       6
   IFROIJ :       0       3       6      11
   IFRIJK :       0      18      20      18
   IFRIJK :       0      33      12      31
   IFRIJK :       0       6      39      31
   IFRIJK :       0      18      29      45
   IFROFR :       0       0       0       0
   IFROFR :       0       0       0       0
   IFROFR :       0       0       0       0
   IFROFR :       0       0       0       0
   ICOFRF :       0       0       0       0
   ICOFRF :       0       0       0       0
   ICOFRF :       0       0       0       0
   ICOFRF :       0       0       0       0
   IOFOAO :       0       0       0       0
   IOFOAO :       0       0       0       0
   IOFOAO :       0       0       0       0
   IOFOAO :       0       0       0       0
   IOFFAO :       0       0       0       0
   IOFFAO :       0       0       0       0
   IOFFAO :       0       0       0       0
   IOFFAO :       0       0       0       0



                            +--------------------------+
                            ! Information from CCSDSYM !
                            +--------------------------+

   NRHF   :       3       1       1       0
   NRHFS  :       3       1       1       0
   NRHFA  :       3       1       1       0
   NRHFSA :       3       1       1       0
   NRHFB  :       3       1       1       0
   NORBS  :       7       4       2       0
   NNBST  :      41      28      14       8
   NT1AM  :      16      13       7       4
   NT2AM  :     265     236     164     155
   NG1AM  :      45      30      21       9
   NH1AM  :      27      19      13       6
   NH2AM  :    2792     403     265     241
   NDISAO :     427     376     212     168
   NDSRHF :     165     133      91      66
   ILMRHF :       0      21      25      27
   ILMVIR :      27      55      67      69
   NT1AO  :      27      19      13       6
   NT2AO  :     680     591     465     409
   N2BST  :      69      56      28      16
   NT2BCD :      68      59      41      32
   NT2BGD :     113      90      72      50
   NMATIJ :      11       6       6       2
   NMATKI :      11       6       6       2
   NMATKL :      11       6       6       2
   NGAMMA :     111      78      78      58
   NTR12AM:     111      78      78      58
   NGAMSQ :     197     156     156     116
   NTR12SQ:     197     156     156     116
   NEMAT1 :      42      37      15      10
   NMATAB :      26      24       8       6
   NT2AOS :    1295    1182     930     818
   NT2SQ  :     490     472     328     310
   NMIJP  :       8       3       3       1
   NT2ORT :     462     385     287     231
   NGLMDT :      69      56      28      16
   NGLMRH :      27      19      13       6
   NLRHFR :      27      19      13       6

   IDSAOG :       0       0       0       0
   IDSAOG :     287     196      98      56
   IDSAOG :     399     360     130     112
   IDSAOG :     427     376     212     168

   IT1AM  :       0       9       3       4
   IT1AM  :       0      12       1       7
   IT1AM  :       0       0      15      13
   IT1AM  :       0       3      13      16

   IH1AM  :       0      12       6       6
   IH1AM  :       0      21       2      13
   IH1AM  :       0       0      25      19
   IH1AM  :       0       6      19      27

   IT2AM  :       0       0       0      91
   IT2AM  :       0     136       0     112
   IT2AM  :       0       0     227     208
   IT2AM  :      91     112     208     255

   IT1AO  :       0      12       6       6
   IT1AO  :       0      21       2      13
   IT1AO  :       0       0      25      19
   IT1AO  :       0       6      19      27

   IT2AO  :       0       0       0     247
   IT2AO  :       0     378       0     351
   IT2AO  :       0       0     568     513
   IT2AO  :     247     351     513     659

   IT2SQ  :       0     208     164     246
   IT2SQ  :       0     256     155     276
   IT2SQ  :       0      64     425     444
   IT2SQ  :       0     112     416     474

   IAODIS :       0      28      14      16
   IAODIS :       0      49       8      28
   IAODIS :       0       0      65      56
   IAODIS :       0      14      56      69

   IT2BCD :       0      39      25      32
   IT2BCD :       0      48      19      41
   IT2BCD :       0      12      61      59
   IT2BCD :       0      21      55      68

   IT2BGD :       0      57      45      50
   IT2BGD :       0      81      31      72
   IT2BGD :       0      18     100      90
   IT2BGD :       0      39      84     113

   IMATIJ :       0       3       3       2
   IMATIJ :       0       9       1       6
   IMATIJ :       0       0      10       6
   IMATIJ :       0       3       6      11

   IMATKI :       0       3       3       2
   IMATKI :       0       9       1       6
   IMATKI :       0       0      10       6
   IMATKI :       0       3       6      11

   IMATKL :       0       3       3       2
   IMATKL :       0       9       1       6
   IMATKL :       0       0      10       6
   IMATKL :       0       3       6      11

   IGAMMA :       0       0       0      36
   IGAMMA :       0      66       0      66
   IGAMMA :       0       0      87      66
   IGAMMA :      36      66      66     108

   ITR12AM:       0       0       0      36
   ITR12AM:       0      66       0      66
   ITR12AM:       0       0      87      66
   ITR12AM:      36      66      66     108

   IGAMSQ :       0       0       0       0
   IGAMSQ :      66     121      22      66
   IGAMSQ :      78      58     157     132
   IGAMSQ :      94     144     144     193

   ITR12SQ:       0       0       0       0
   ITR12SQ:      66     121      22      66
   ITR12SQ:      78      58     157     132
   ITR12SQ:      94     144     144     193

   ITR12SQT       0       0       0       0
   ITR12SQT      66     121      22      66
   ITR12SQT      78      58     157     132
   ITR12SQT      94     144     144     193

   IR12R12S       0       0       0       0
   IR12R12S      66     121      22      66
   IR12R12S      78      58     157     132
   IR12R12S      94     144     144     193

   IDSRHF :       0      84      50      66
   IDSRHF :       0     123      38      91
   IDSRHF :       0      24     151     133
   IDSRHF :       0      42     125     165

   IT1AMT :       0       4       4       4
   IT1AMT :       0      12       3       7
   IT1AMT :       0       0      15      13
   IT1AMT :       0       4      13      16

   IT1AOT :       0       7       7       6
   IT1AOT :       0      21       4      13
   IT1AOT :       0       0      25      19
   IT1AOT :       0       7      19      27

   IT2BCT :       0      16      16      20
   IT2BCT :       0      48      13      37
   IT2BCT :       0       0      61      55
   IT2BCT :       0      16      55      68

   IT2BGT :       0      27      27      32
   IT2BGT :       0      81      19      66
   IT2BGT :       0       0     100      84
   IT2BGT :       0      27      84     113

   IFCRHF :       0      12       6       6
   IFCRHF :       0      21       2      13
   IFCRHF :       0       0      25      19
   IFCRHF :       0       6      19      27

   IFCVIR :      27      35      21      16
   IFCVIR :      19      55      12      28
   IFCVIR :      13       6      67      56
   IFCVIR :       6      21      56      69

   IEMAT1 :       0      21       7      10
   IEMAT1 :       0      28       4      15
   IEMAT1 :       0       0      40      37
   IEMAT1 :       0       7      37      42

   IMATAB :       0      12       4       6
   IMATAB :       0      16       3       8
   IMATAB :       0       0      25      24
   IMATAB :       0       4      24      26

   IT2AOS :       0     513     465     656
   IT2AOS :       0     729     409     816
   IT2AOS :       0     162    1090    1104
   IT2AOS :       0     351    1026    1259

   IMIJP  :       0       0       0       1
   IMIJP  :       0       6       0       3
   IMIJP  :       0       0       7       3
   IMIJP  :       1       3       3       8

   IT2ORT :       0     224     136     190
   IT2ORT :       0     328     106     259
   IT2ORT :       0      64     412     371
   IT2ORT :       0     112     347     454

   IGLMRH :       0      12       6       6
   IGLMRH :       0      21       2      13
   IGLMRH :       0       0      25      19
   IGLMRH :       0       6      19      27

   IGLMVI :      27      35      21      16
   IGLMVI :      19      55      12      28
   IGLMVI :      13       6      67      56
   IGLMVI :       6      21      56      69

   NT2MMO :      68      59      41      32
   NT2MMO :      59      68      32      41
   NT2MMO :      41      32      68      59
   NT2MMO :      32      41      59      68

   NT2MAO :     113      90      72      50
   NT2MAO :      90     113      50      72
   NT2MAO :      72      50     113      90
   NT2MAO :      50      72      90     113
   NDSGRH :     165     133      91      66
   NDSGRH :     133     165      66      91
   NDSGRH :      91      66     165     133
   NDSGRH :      66      91     133     165

   NLAMDS :      69
   NLRHSI :      27
   NLAMDT :      69
   NLMRHF :      27


                           +---------------------------+
                           ! Information from DCCSDSYM !
                           +---------------------------+

   XT1AM  :.160D+02.130D+02.700D+01.400D+01
   XT2AM  :.265D+03.236D+03.164D+03.155D+03
   XT2SQ  :.490D+03.472D+03.328D+03.310D+03
   XCKI   :.680D+02.590D+02.410D+02.320D+02
   XMATIJ :.110D+02.600D+01.600D+01.200D+01
   XT1AO  :.270D+02.190D+02.130D+02.600D+01


 CCR12 ANSATZ =   1

 CCR12 APPROX =   5

   NRHF   :       3       1       1       0
   NRHFS  :       3       1       1       0
   NORB1  :       7       4       2       0
   NORB2  :      12       6       3       0

 Number of primary orbitals             :           13
 Number of secondary orbitals           :           21
 Total number of orbitals               :           34
 Total number of basis functions        :           34
 Number of (i|p') integrals             :           72
 Number of (i|u') integrals             :           72
 Number of (Ip'|1/r12|jL) integrals     :            0
 Number of (ip'|1/r12|jq') integrals    :         4568
 Number of (ip'|r12|jq') integrals      :         4568
 Number of (ip'|[T1,r12]|jq') integrals :         8966
 Threshold for R12 contributions            =  0.00000    
 Threshold for singular value decomposition = 0.100000E-11

 The B matrix is transformed into an orthogonal basis
 and inverted by diagonalization

 ******************************************************************************
 The MP2-R12/A and MP2-R12/B energies are computed as described in:
 W. Klopper, J. Chem. Phys. 120, 10890-10895 (2004).
 To avoid the hybride scheme, the keyword '.NO HYB'
 must be specified in the Dalton input file.
 ------------------------------------------------------------------------------
 Ansatz 1 is used and results are printed for approximations A and B.
 ******************************************************************************

 Core memory required by CCSD_R12 :          30611  (double words)

 Computation of (ip'|r12|jq') integrals done
 >>>  Time used in R  [5]     is   0.17 seconds
 Backtransformation of (ip'|r12|jq') integrals done
 Computation of V^aj_kl intermediate done

 >>> Time used for V^aj_kl is    0.00 seconds

 Computation of V^aj_kl intermediate done

 >>> Time used for V^aj_kl is    0.00 seconds

 Computation of (ip'|1/r12|jq') integrals done
 >>>  Time used in 1/R[5]     is   0.36 seconds
 Computation of V^aj_kl intermediate done

 >>> Time used for V^aj_kl is    0.00 seconds

 Computation of V^aj_kl intermediate done

 >>> Time used for V^aj_kl is    0.00 seconds

 Computation of V^aj_kl intermediate done

 >>> Time used for V^aj_kl is    0.00 seconds

 Computation of V^aj_kl intermediate done

 >>> Time used for V^aj_kl is    0.00 seconds

 Computation of V^aj_kl intermediate done

 >>> Time used for V^aj_kl is    0.00 seconds

 Computation of (i* p'|r12|jq') integrals done
 >>>  Time used in R  [5]     is   0.89 seconds
 Computation of (i'p|r12|jq') integrals done
 >>>  Time used in R  [5]     is   0.17 seconds
 Computation of V^aj_kl intermediate done

 >>> Time used for V^aj_kl is    0.00 seconds

 Computation of V^aj_kl intermediate done

 >>> Time used for V^aj_kl is    0.00 seconds

 Computation of (ip'|[T,r12]|jq') integrals done
 >>>  Time used in T,R[5]     is   0.29 seconds


                 +-----------------------------------------------+
                 ! MP2-R12 ansatz := (1 - P1 - P2 + P1*P2) * R12 !
                 +-----------------------------------------------+


 SECOND-ORDER PAIR ENERGIES:

                    1   -0.000405012    0.000000000
                    2   -0.000221078   -0.000014978
                    3   -0.005852273    0.000000000
                    4   -0.000045807   -0.000151181
                    5   -0.006147856   -0.004484862
                    6   -0.010512635    0.000000000
                    7   -0.000007766   -0.000146221
                    8   -0.008489889   -0.004899272
                    9   -0.010002941   -0.010161943
                   10   -0.014582412    0.000000000
                   11   -0.000006386   -0.000175075
                   12   -0.006187286   -0.004764322
                   13   -0.005913693   -0.010191776
                   14   -0.005698799   -0.010396139
                   15   -0.008961151    0.000000000

 MP2 =   -0.128420752   -0.083034984   -0.045385768


                            +-------------------------+
                            ! Original MP2-R12 method !
                            +-------------------------+


 SECOND-ORDER NONINVARIANT R12/0 PAIR ENERGIES WITH FIXED R12-COEFFICIENTS:

   1   -0.000405012   -0.078320013    0.000000000    0.000000000
   2   -0.000221078    0.038591236   -0.000014978    0.037435496
   3   -0.005852273    0.018079405    0.000000000    0.000000000
   4   -0.000045807    0.083642799   -0.000151181    0.057481518
   5   -0.006147856    0.007894805   -0.004484862    0.004768262
   6   -0.010512635    0.001654827    0.000000000    0.000000000
   7   -0.000007766    0.089041609   -0.000146221    0.056661338
   8   -0.008489889   -0.003234663   -0.004899272    0.007150268
   9   -0.010002941    0.008499250   -0.010161943    0.004628932
  10   -0.014582412    0.012725424    0.000000000    0.000000000
  11   -0.000006386    0.085632886   -0.000175075    0.055555940
  12   -0.006187286    0.001336232   -0.004764322    0.000828881
  13   -0.005913693   -0.013556264   -0.010191776    0.003422777
  14   -0.005698799    0.000940652   -0.010396139    0.003011084
  15   -0.008961151    0.001755179    0.000000000    0.000000000

       -0.083034984    0.254683364   -0.045385768    0.230944496

 Noninvariant MP2-R12/0   correlation energy =    0.485627860

  IJ    V(IJ)       U(IJ)       C(IJ)       V(IJ)       U(IJ)       C(IJ)   

   1 -0.1422E+00 -0.2066E+00  0.1000E+01  0.0000E+00  0.0000E+00  0.0000E+00  0.6054E+02  0.0000E+00
   2 -0.3633E-01 -0.1115E+00  0.1000E+01 -0.5446E-01 -0.3677E+00  0.5000E+00  0.1885E+02  0.1961E+02
   3 -0.2624E-01 -0.7642E-01  0.1000E+01  0.0000E+00  0.0000E+00  0.0000E+00  0.4723E+01  0.0000E+00
   4 -0.1827E-01 -0.1202E+00  0.1000E+01 -0.3163E-01 -0.3571E+00  0.5000E+00  0.1268E+02  0.1260E+02
   5 -0.5700E-01 -0.1281E+00  0.1000E+01 -0.5709E-01 -0.2654E+00  0.5000E+00  0.2530E+01  0.2657E+01
   6 -0.6949E-01 -0.1511E+00  0.1000E+01  0.0000E+00  0.0000E+00  0.0000E+00  0.1944E+01  0.0000E+00
   7 -0.1500E-01 -0.1190E+00  0.1000E+01 -0.3052E-01 -0.3493E+00  0.5000E+00  0.1224E+02  0.1215E+02
   8 -0.6298E-01 -0.1312E+00  0.1000E+01 -0.4974E-01 -0.2472E+00  0.5000E+00  0.2948E+01  0.2768E+01
   9 -0.3867E-01 -0.9585E-01  0.1000E+01 -0.7787E-01 -0.3706E+00  0.5000E+00  0.2363E+01  0.2266E+01
  10 -0.5088E-01 -0.1291E+00  0.1000E+01  0.0000E+00  0.0000E+00  0.0000E+00  0.2208E+01  0.0000E+00
  11 -0.1967E-01 -0.1250E+00  0.1000E+01 -0.3524E-01 -0.3639E+00  0.5000E+00  0.1404E+02  0.1393E+02
  12 -0.7035E-01 -0.1482E+00  0.1000E+01 -0.7409E-01 -0.3187E+00  0.5000E+00  0.2430E+01  0.2513E+01
  13 -0.7449E-01 -0.1413E+00  0.1000E+01 -0.8332E-01 -0.3878E+00  0.5000E+00  0.1577E+01  0.2460E+01
  14 -0.6663E-01 -0.1399E+00  0.1000E+01 -0.8940E-01 -0.4112E+00  0.5000E+00  0.1536E+01  0.2315E+01
  15 -0.7103E-01 -0.1528E+00  0.1000E+01  0.0000E+00  0.0000E+00  0.0000E+00  0.2139E+01  0.0000E+00

 SECOND-ORDER NONINVARIANT R12/A PAIR ENERGIES:

   1   -0.000405012   -0.098351830    0.000000000    0.000000000
   2   -0.000221078   -0.012060891   -0.000014978   -0.008083171
   3   -0.005852273   -0.014864637    0.000000000    0.000000000
   4   -0.000045807   -0.002821697   -0.000151181   -0.002953287
   5   -0.006147856   -0.031524226   -0.004484862   -0.016767080
   6   -0.010512635   -0.042459370    0.000000000    0.000000000
   7   -0.000007766   -0.001897220   -0.000146221   -0.002812421
   8   -0.008489889   -0.038719284   -0.004899272   -0.014909990
   9   -0.010002941   -0.025607040   -0.010161943   -0.026521452
  10   -0.014582412   -0.034641500    0.000000000    0.000000000
  11   -0.000006386   -0.003102900   -0.000175075   -0.003587426
  12   -0.006187286   -0.039579348   -0.004764322   -0.021986592
  13   -0.005913693   -0.045170663   -0.010191776   -0.028097139
  14   -0.005698799   -0.037433198   -0.010396139   -0.029832642
  15   -0.008961151   -0.041987371    0.000000000    0.000000000

       -0.083034984   -0.470221176   -0.045385768   -0.155551199

 Noninvariant MP2-R12/A   correlation energy =   -0.625772374

  IJ    V(IJ)       U(IJ)       C(IJ)       V(IJ)       U(IJ)       C(IJ)   

   1 -0.1422E+00 -0.2066E+00  0.6886E+00  0.0000E+00  0.0000E+00  0.0000E+00  0.6054E+02  0.0000E+00
   2 -0.3633E-01 -0.1115E+00  0.3259E+00 -0.5446E-01 -0.3677E+00  0.1481E+00  0.1885E+02  0.1961E+02
   3 -0.2624E-01 -0.7642E-01  0.3434E+00  0.0000E+00  0.0000E+00  0.0000E+00  0.4723E+01  0.0000E+00
   4 -0.1827E-01 -0.1202E+00  0.1520E+00 -0.3163E-01 -0.3571E+00  0.8859E-01  0.1268E+02  0.1260E+02
   5 -0.5700E-01 -0.1281E+00  0.4452E+00 -0.5709E-01 -0.2654E+00  0.2151E+00  0.2530E+01  0.2657E+01
   6 -0.6949E-01 -0.1511E+00  0.4597E+00  0.0000E+00  0.0000E+00  0.0000E+00  0.1944E+01  0.0000E+00
   7 -0.1500E-01 -0.1190E+00  0.1260E+00 -0.3052E-01 -0.3493E+00  0.8737E-01  0.1224E+02  0.1215E+02
   8 -0.6298E-01 -0.1312E+00  0.4800E+00 -0.4974E-01 -0.2472E+00  0.2012E+00  0.2948E+01  0.2768E+01
   9 -0.3867E-01 -0.9585E-01  0.4035E+00 -0.7787E-01 -0.3706E+00  0.2101E+00  0.2363E+01  0.2266E+01
  10 -0.5088E-01 -0.1291E+00  0.3942E+00  0.0000E+00  0.0000E+00  0.0000E+00  0.2208E+01  0.0000E+00
  11 -0.1967E-01 -0.1250E+00  0.1574E+00 -0.3524E-01 -0.3639E+00  0.9684E-01  0.1404E+02  0.1393E+02
  12 -0.7035E-01 -0.1482E+00  0.4746E+00 -0.7409E-01 -0.3187E+00  0.2325E+00  0.2430E+01  0.2513E+01
  13 -0.7449E-01 -0.1413E+00  0.5270E+00 -0.8332E-01 -0.3878E+00  0.2149E+00  0.1577E+01  0.2460E+01
  14 -0.6663E-01 -0.1399E+00  0.4763E+00 -0.8940E-01 -0.4112E+00  0.2174E+00  0.1536E+01  0.2315E+01
  15 -0.7103E-01 -0.1528E+00  0.4649E+00  0.0000E+00  0.0000E+00  0.0000E+00  0.2139E+01  0.0000E+00

 SECOND-ORDER R12/A PAIR ENERGIES:

   1   -0.000405012   -0.158612401    0.000000000   -0.000000000    0.753947         2.19159    
   2   -0.000221078   -0.022109953   -0.000014978   -0.008314844    0.753947         2.19159    
   3   -0.005852273   -0.023709799    0.000000000   -0.000000000    0.753947         2.19159    
   4   -0.000045807   -0.006194033   -0.000151181   -0.003527355    0.753947         2.19159    
   5   -0.006147856   -0.034664711   -0.004484862   -0.017254803    0.753947         2.19159    
   6   -0.010512635   -0.045890150    0.000000000   -0.000000000    0.753947         2.19159    
   7   -0.000007766   -0.002080247   -0.000146221   -0.002916432    0.753947         2.19159    
   8   -0.008489889   -0.040635772   -0.004899272   -0.015548634    0.753947         2.19159    
   9   -0.010002941   -0.025740362   -0.010161943   -0.026627670    0.753947         2.19159    
  10   -0.014582412   -0.039710988    0.000000000   -0.000000000    0.753947         2.19159    
  11   -0.000006386   -0.003252558   -0.000175075   -0.003639013    0.753947         2.19159    
  12   -0.006187286   -0.040803268   -0.004764322   -0.022180881    0.753947         2.19159    
  13   -0.005913693   -0.045310169   -0.010191776   -0.028150363    0.753947         2.19159    
  14   -0.005698799   -0.037433198   -0.010396139   -0.029832642    0.753947         2.19159    
  15   -0.008961151   -0.042668389    0.000000000   -0.000000000    0.753947         2.19159    

       -0.083034984   -0.568816000   -0.045385768   -0.157992637

              MP2-R12/A   correlation energy =   -0.726808637

 SECOND-ORDER R12/A' PAIR ENERGIES:

   1   -0.000405012   -0.102187026    0.000000000   -0.000000000     31.1757         31.4183    
   2   -0.000221078   -0.019085569   -0.000014978   -0.008293319     11.9653         12.2080    

 @ WARNING: NEGATIVE EIGENVALUE OF SINGLET B MATRIX-0.31960750E+01   3


 @ WARNING: NEGATIVE EIGENVALUE OF SINGLET B MATRIX-0.72451010E+01   3


 @ WARNING: NEGATIVE EIGENVALUE OF SINGLET B MATRIX-0.65229191E+01   3


 @ WARNING: NEGATIVE EIGENVALUE OF SINGLET B MATRIX-0.44488265E+01   3


 @ WARNING: NEGATIVE EIGENVALUE OF TRIPLET B MATRIX-0.70024115E+01   3


 @ WARNING: NEGATIVE EIGENVALUE OF TRIPLET B MATRIX-0.68004018E+01   3


 @ WARNING: NEGATIVE EIGENVALUE OF TRIPLET B MATRIX-0.46177172E+01   3

   3   -0.005852273   -0.016867619    0.000000000   -0.000000000     2.78412         2.66079    
   4   -0.000045807   -0.004827958   -0.000151181   -0.003506726     11.1893         11.4320    

 @ WARNING: NEGATIVE EIGENVALUE OF SINGLET B MATRIX-0.39720440E+01   5


 @ WARNING: NEGATIVE EIGENVALUE OF SINGLET B MATRIX-0.80210701E+01   5


 @ WARNING: NEGATIVE EIGENVALUE OF SINGLET B MATRIX-0.72988881E+01   5


 @ WARNING: NEGATIVE EIGENVALUE OF SINGLET B MATRIX-0.52247955E+01   5


 @ WARNING: NEGATIVE EIGENVALUE OF TRIPLET B MATRIX-0.77783805E+01   5


 @ WARNING: NEGATIVE EIGENVALUE OF TRIPLET B MATRIX-0.75763709E+01   5


 @ WARNING: NEGATIVE EIGENVALUE OF TRIPLET B MATRIX-0.53936863E+01   5

   5   -0.006147856   -0.031152761   -0.004484862   -0.016107646     2.00815         1.88482    

 @ WARNING: NEGATIVE EIGENVALUE OF SINGLET B MATRIX-0.47480131E+01   6


 @ WARNING: NEGATIVE EIGENVALUE OF SINGLET B MATRIX-0.87970391E+01   6


 @ WARNING: NEGATIVE EIGENVALUE OF SINGLET B MATRIX-0.80748572E+01   6


 @ WARNING: NEGATIVE EIGENVALUE OF SINGLET B MATRIX-0.60007646E+01   6


 @ WARNING: NEGATIVE EIGENVALUE OF TRIPLET B MATRIX-0.85543496E+01   6


 @ WARNING: NEGATIVE EIGENVALUE OF TRIPLET B MATRIX-0.83523400E+01   6


 @ WARNING: NEGATIVE EIGENVALUE OF TRIPLET B MATRIX-0.61696554E+01   6

   6   -0.010512635   -0.042683571    0.000000000   -0.000000000     1.23218         1.10885    
   7   -0.000007766   -0.001926865   -0.000146221   -0.002835563     11.3380         11.5807    

 @ WARNING: NEGATIVE EIGENVALUE OF SINGLET B MATRIX-0.38233876E+01   8


 @ WARNING: NEGATIVE EIGENVALUE OF SINGLET B MATRIX-0.78724136E+01   8


 @ WARNING: NEGATIVE EIGENVALUE OF SINGLET B MATRIX-0.71502316E+01   8


 @ WARNING: NEGATIVE EIGENVALUE OF SINGLET B MATRIX-0.50761390E+01   8


 @ WARNING: NEGATIVE EIGENVALUE OF TRIPLET B MATRIX-0.76297240E+01   8


 @ WARNING: NEGATIVE EIGENVALUE OF TRIPLET B MATRIX-0.74277144E+01   8


 @ WARNING: NEGATIVE EIGENVALUE OF TRIPLET B MATRIX-0.52450298E+01   8

   8   -0.008489889   -0.036826680   -0.004899272   -0.014395561     2.15681         2.03348    

 @ WARNING: NEGATIVE EIGENVALUE OF SINGLET B MATRIX-0.45993566E+01   9


 @ WARNING: NEGATIVE EIGENVALUE OF SINGLET B MATRIX-0.86483827E+01   9


 @ WARNING: NEGATIVE EIGENVALUE OF SINGLET B MATRIX-0.79262007E+01   9


 @ WARNING: NEGATIVE EIGENVALUE OF SINGLET B MATRIX-0.58521081E+01   9


 @ WARNING: NEGATIVE EIGENVALUE OF TRIPLET B MATRIX-0.84056931E+01   9


 @ WARNING: NEGATIVE EIGENVALUE OF TRIPLET B MATRIX-0.82036835E+01   9


 @ WARNING: NEGATIVE EIGENVALUE OF TRIPLET B MATRIX-0.60209989E+01   9

   9   -0.010002941   -0.025753700   -0.010161943   -0.026537378     1.38084         1.25751    

 @ WARNING: NEGATIVE EIGENVALUE OF SINGLET B MATRIX-0.44507001E+01  10


 @ WARNING: NEGATIVE EIGENVALUE OF SINGLET B MATRIX-0.84997262E+01  10


 @ WARNING: NEGATIVE EIGENVALUE OF SINGLET B MATRIX-0.77775442E+01  10


 @ WARNING: NEGATIVE EIGENVALUE OF SINGLET B MATRIX-0.57034516E+01  10


 @ WARNING: NEGATIVE EIGENVALUE OF TRIPLET B MATRIX-0.82570366E+01  10


 @ WARNING: NEGATIVE EIGENVALUE OF TRIPLET B MATRIX-0.80550270E+01  10


 @ WARNING: NEGATIVE EIGENVALUE OF TRIPLET B MATRIX-0.58723424E+01  10

  10   -0.014582412   -0.035324178    0.000000000   -0.000000000     1.52949         1.40617    
  11   -0.000006386   -0.003114526   -0.000175075   -0.003589428     11.1329         11.3756    

 @ WARNING: NEGATIVE EIGENVALUE OF SINGLET B MATRIX-0.40284777E+01  12


 @ WARNING: NEGATIVE EIGENVALUE OF SINGLET B MATRIX-0.80775037E+01  12


 @ WARNING: NEGATIVE EIGENVALUE OF SINGLET B MATRIX-0.73553218E+01  12


 @ WARNING: NEGATIVE EIGENVALUE OF SINGLET B MATRIX-0.52812292E+01  12


 @ WARNING: NEGATIVE EIGENVALUE OF TRIPLET B MATRIX-0.78348142E+01  12


 @ WARNING: NEGATIVE EIGENVALUE OF TRIPLET B MATRIX-0.76328046E+01  12


 @ WARNING: NEGATIVE EIGENVALUE OF TRIPLET B MATRIX-0.54501200E+01  12

  12   -0.006187286   -0.036413138   -0.004764322   -0.020959954     1.95171         1.82839    

 @ WARNING: NEGATIVE EIGENVALUE OF SINGLET B MATRIX-0.48044468E+01  13


 @ WARNING: NEGATIVE EIGENVALUE OF SINGLET B MATRIX-0.88534728E+01  13


 @ WARNING: NEGATIVE EIGENVALUE OF SINGLET B MATRIX-0.81312909E+01  13


 @ WARNING: NEGATIVE EIGENVALUE OF SINGLET B MATRIX-0.60571983E+01  13


 @ WARNING: NEGATIVE EIGENVALUE OF TRIPLET B MATRIX-0.86107833E+01  13


 @ WARNING: NEGATIVE EIGENVALUE OF TRIPLET B MATRIX-0.84087737E+01  13


 @ WARNING: NEGATIVE EIGENVALUE OF TRIPLET B MATRIX-0.62260890E+01  13

  13   -0.005913693   -0.044777832   -0.010191776   -0.028028742     1.17575         1.05242    

 @ WARNING: NEGATIVE EIGENVALUE OF SINGLET B MATRIX-0.46557903E+01  14


 @ WARNING: NEGATIVE EIGENVALUE OF SINGLET B MATRIX-0.87048163E+01  14


 @ WARNING: NEGATIVE EIGENVALUE OF SINGLET B MATRIX-0.79826344E+01  14


 @ WARNING: NEGATIVE EIGENVALUE OF SINGLET B MATRIX-0.59085418E+01  14


 @ WARNING: NEGATIVE EIGENVALUE OF TRIPLET B MATRIX-0.84621268E+01  14


 @ WARNING: NEGATIVE EIGENVALUE OF TRIPLET B MATRIX-0.82601172E+01  14


 @ WARNING: NEGATIVE EIGENVALUE OF TRIPLET B MATRIX-0.60774325E+01  14

  14   -0.005698799   -0.037433198   -0.010396139   -0.029832642     1.32440         1.20108    

 @ WARNING: NEGATIVE EIGENVALUE OF SINGLET B MATRIX-0.48608805E+01  15


 @ WARNING: NEGATIVE EIGENVALUE OF SINGLET B MATRIX-0.89099065E+01  15


 @ WARNING: NEGATIVE EIGENVALUE OF SINGLET B MATRIX-0.81877246E+01  15


 @ WARNING: NEGATIVE EIGENVALUE OF SINGLET B MATRIX-0.61136320E+01  15


 @ WARNING: NEGATIVE EIGENVALUE OF TRIPLET B MATRIX-0.86672170E+01  15


 @ WARNING: NEGATIVE EIGENVALUE OF TRIPLET B MATRIX-0.84652074E+01  15


 @ WARNING: NEGATIVE EIGENVALUE OF TRIPLET B MATRIX-0.62825227E+01  15

  15   -0.008961151   -0.042665072    0.000000000   -0.000000000     1.11931        0.995986    

       -0.083034984   -0.481039694   -0.045385768   -0.154086958

              MP2-R12/A'  correlation energy =   -0.635126652

 SECOND-ORDER NONINVARIANT R12/B PAIR ENERGIES:

   1   -0.000405012   -0.082772761    0.000000000    0.000000000
   2   -0.000221078   -0.008870823   -0.000014978   -0.006082742
   3   -0.005852273   -0.011870409    0.000000000    0.000000000
   4   -0.000045807   -0.001975038   -0.000151181   -0.002104027
   5   -0.006147856   -0.020833402   -0.004484862   -0.011616426
   6   -0.010512635   -0.028098945    0.000000000    0.000000000
   7   -0.000007766   -0.001284750   -0.000146221   -0.001945130
   8   -0.008489889   -0.026579693   -0.004899272   -0.010765562
   9   -0.010002941   -0.019075050   -0.010161943   -0.019854884
  10   -0.014582412   -0.026074614    0.000000000    0.000000000
  11   -0.000006386   -0.002242429   -0.000175075   -0.002643544
  12   -0.006187286   -0.025168323   -0.004764322   -0.014623768
  13   -0.005913693   -0.025493738   -0.010191776   -0.021201425
  14   -0.005698799   -0.021365884   -0.010396139   -0.021999095
  15   -0.008961151   -0.027799913    0.000000000    0.000000000

       -0.083034984   -0.329505774   -0.045385768   -0.112836601

 Noninvariant MP2-R12/B   correlation energy =   -0.442342375

  IJ    V(IJ)       U(IJ)       C(IJ)       V(IJ)       U(IJ)       C(IJ)   

   1 -0.1422E+00 -0.2456E+00  0.5791E+00  0.0000E+00  0.0000E+00  0.0000E+00
   2 -0.3633E-01 -0.1526E+00  0.2381E+00 -0.5446E-01 -0.4889E+00  0.1114E+00
   3 -0.2624E-01 -0.1144E+00  0.2293E+00  0.0000E+00  0.0000E+00  0.0000E+00
   4 -0.1827E-01 -0.1730E+00  0.1056E+00 -0.3163E-01 -0.5123E+00  0.6174E-01
   5 -0.5700E-01 -0.2213E+00  0.2576E+00 -0.5709E-01 -0.4570E+00  0.1249E+00
   6 -0.6949E-01 -0.2746E+00  0.2531E+00  0.0000E+00  0.0000E+00  0.0000E+00
   7 -0.1500E-01 -0.1761E+00  0.8515E-01 -0.3052E-01 -0.5177E+00  0.5895E-01
   8 -0.6298E-01 -0.2193E+00  0.2872E+00 -0.4974E-01 -0.4218E+00  0.1179E+00
   9 -0.3867E-01 -0.1649E+00  0.2346E+00 -0.7787E-01 -0.6255E+00  0.1245E+00
  10 -0.5088E-01 -0.2253E+00  0.2259E+00  0.0000E+00  0.0000E+00  0.0000E+00
  11 -0.1967E-01 -0.1731E+00  0.1137E+00 -0.3524E-01 -0.5030E+00  0.7005E-01
  12 -0.7035E-01 -0.2608E+00  0.2698E+00 -0.7409E-01 -0.5568E+00  0.1331E+00
  13 -0.7449E-01 -0.2834E+00  0.2629E+00 -0.8332E-01 -0.6306E+00  0.1321E+00
  14 -0.6663E-01 -0.2834E+00  0.2351E+00 -0.8940E-01 -0.6889E+00  0.1298E+00
  15 -0.7103E-01 -0.2678E+00  0.2652E+00  0.0000E+00  0.0000E+00  0.0000E+00

 SECOND-ORDER R12/B PAIR ENERGIES:

   1   -0.000405012   -0.085496839    0.000000000   -0.000000000     36.5057         36.6997    
   2   -0.000221078   -0.013902910   -0.000014978   -0.006328706     17.2953         17.4893    

 @ WARNING: NEGATIVE EIGENVALUE OF SINGLET B MATRIX-0.19150318E+01   3


 @ WARNING: NEGATIVE EIGENVALUE OF SINGLET B MATRIX-0.88342213E+00   3


 @ WARNING: NEGATIVE EIGENVALUE OF TRIPLET B MATRIX-0.17210333E+01   3


 @ WARNING: NEGATIVE EIGENVALUE OF TRIPLET B MATRIX-0.12927220E+01   3

   3   -0.005852273   -0.013097482    0.000000000   -0.000000000    0.728844        0.401350    
   4   -0.000045807   -0.003487458   -0.000151181   -0.002614459     16.5194         16.7134    

 @ WARNING: NEGATIVE EIGENVALUE OF SINGLET B MATRIX-0.26910008E+01   5


 @ WARNING: NEGATIVE EIGENVALUE OF SINGLET B MATRIX-0.16593912E+01   5


 @ WARNING: NEGATIVE EIGENVALUE OF SINGLET B MATRIX-0.47124647E-01   5


 @ WARNING: NEGATIVE EIGENVALUE OF TRIPLET B MATRIX-0.24970024E+01   5


 @ WARNING: NEGATIVE EIGENVALUE OF TRIPLET B MATRIX-0.20686911E+01   5


 @ WARNING: NEGATIVE EIGENVALUE OF TRIPLET B MATRIX-0.37461882E+00   5

   5   -0.006147856   -0.022261922   -0.004484862   -0.010989706    0.691203         4.23618    

 @ WARNING: NEGATIVE EIGENVALUE OF SINGLET B MATRIX-0.84765903E-01   6


 @ WARNING: NEGATIVE EIGENVALUE OF SINGLET B MATRIX-0.34669699E+01   6


 @ WARNING: NEGATIVE EIGENVALUE OF SINGLET B MATRIX-0.24353603E+01   6


 @ WARNING: NEGATIVE EIGENVALUE OF SINGLET B MATRIX-0.82309372E+00   6


 @ WARNING: NEGATIVE EIGENVALUE OF TRIPLET B MATRIX-0.32729715E+01   6


 @ WARNING: NEGATIVE EIGENVALUE OF TRIPLET B MATRIX-0.28446602E+01   6


 @ WARNING: NEGATIVE EIGENVALUE OF TRIPLET B MATRIX-0.11505879E+01   6

   6   -0.010512635   -0.027736930    0.000000000   -0.000000000     2.83837         3.46021    
   7   -0.000007766   -0.001305654   -0.000146221   -0.001955606     16.6680         16.8620    

 @ WARNING: NEGATIVE EIGENVALUE OF SINGLET B MATRIX-0.25423443E+01   8


 @ WARNING: NEGATIVE EIGENVALUE OF SINGLET B MATRIX-0.15107347E+01   8


 @ WARNING: NEGATIVE EIGENVALUE OF TRIPLET B MATRIX-0.23483459E+01   8


 @ WARNING: NEGATIVE EIGENVALUE OF TRIPLET B MATRIX-0.19200346E+01   8


 @ WARNING: NEGATIVE EIGENVALUE OF TRIPLET B MATRIX-0.22596234E+00   8

   8   -0.008489889   -0.024275534   -0.004899272   -0.010211382    0.101532         4.38483    

 @ WARNING: NEGATIVE EIGENVALUE OF SINGLET B MATRIX-0.33183134E+01   9


 @ WARNING: NEGATIVE EIGENVALUE OF SINGLET B MATRIX-0.22867038E+01   9


 @ WARNING: NEGATIVE EIGENVALUE OF SINGLET B MATRIX-0.67443724E+00   9


 @ WARNING: NEGATIVE EIGENVALUE OF TRIPLET B MATRIX-0.31243150E+01   9


 @ WARNING: NEGATIVE EIGENVALUE OF TRIPLET B MATRIX-0.26960037E+01   9


 @ WARNING: NEGATIVE EIGENVALUE OF TRIPLET B MATRIX-0.10019314E+01   9

   9   -0.010002941   -0.019134759   -0.010161943   -0.019796422    0.638906E-01     3.60886    

 @ WARNING: NEGATIVE EIGENVALUE OF SINGLET B MATRIX-0.31696569E+01  10


 @ WARNING: NEGATIVE EIGENVALUE OF SINGLET B MATRIX-0.21380473E+01  10


 @ WARNING: NEGATIVE EIGENVALUE OF SINGLET B MATRIX-0.52578075E+00  10


 @ WARNING: NEGATIVE EIGENVALUE OF TRIPLET B MATRIX-0.29756585E+01  10


 @ WARNING: NEGATIVE EIGENVALUE OF TRIPLET B MATRIX-0.25473472E+01  10


 @ WARNING: NEGATIVE EIGENVALUE OF TRIPLET B MATRIX-0.85327493E+00  10

  10   -0.014582412   -0.041078179    0.000000000   -0.000000000    0.212547         3.75752    
  11   -0.000006386   -0.002252529   -0.000175075   -0.002644955     16.4629         16.6569    

 @ WARNING: NEGATIVE EIGENVALUE OF SINGLET B MATRIX-0.27474345E+01  12


 @ WARNING: NEGATIVE EIGENVALUE OF SINGLET B MATRIX-0.17158249E+01  12


 @ WARNING: NEGATIVE EIGENVALUE OF SINGLET B MATRIX-0.10355833E+00  12


 @ WARNING: NEGATIVE EIGENVALUE OF TRIPLET B MATRIX-0.25534361E+01  12


 @ WARNING: NEGATIVE EIGENVALUE OF TRIPLET B MATRIX-0.21251248E+01  12


 @ WARNING: NEGATIVE EIGENVALUE OF TRIPLET B MATRIX-0.43105251E+00  12

  12   -0.006187286   -0.021596480   -0.004764322   -0.013583533    0.634769         4.17974    

 @ WARNING: NEGATIVE EIGENVALUE OF SINGLET B MATRIX-0.14119959E+00  13


 @ WARNING: NEGATIVE EIGENVALUE OF SINGLET B MATRIX-0.35234036E+01  13


 @ WARNING: NEGATIVE EIGENVALUE OF SINGLET B MATRIX-0.24917940E+01  13


 @ WARNING: NEGATIVE EIGENVALUE OF SINGLET B MATRIX-0.87952740E+00  13


 @ WARNING: NEGATIVE EIGENVALUE OF TRIPLET B MATRIX-0.33294052E+01  13


 @ WARNING: NEGATIVE EIGENVALUE OF TRIPLET B MATRIX-0.29010939E+01  13


 @ WARNING: NEGATIVE EIGENVALUE OF TRIPLET B MATRIX-0.12070216E+01  13

  13   -0.005913693   -0.025090867   -0.010191776   -0.021105033     2.78194         3.40377    

 @ WARNING: NEGATIVE EIGENVALUE OF SINGLET B MATRIX-0.33747471E+01  14


 @ WARNING: NEGATIVE EIGENVALUE OF SINGLET B MATRIX-0.23431375E+01  14


 @ WARNING: NEGATIVE EIGENVALUE OF SINGLET B MATRIX-0.73087092E+00  14


 @ WARNING: NEGATIVE EIGENVALUE OF TRIPLET B MATRIX-0.31807487E+01  14


 @ WARNING: NEGATIVE EIGENVALUE OF TRIPLET B MATRIX-0.27524374E+01  14


 @ WARNING: NEGATIVE EIGENVALUE OF TRIPLET B MATRIX-0.10583651E+01  14

  14   -0.005698799   -0.021365884   -0.010396139   -0.021999095    0.745690E-02     3.55243    

 @ WARNING: NEGATIVE EIGENVALUE OF SINGLET B MATRIX-0.19763327E+00  15


 @ WARNING: NEGATIVE EIGENVALUE OF SINGLET B MATRIX-0.35798373E+01  15


 @ WARNING: NEGATIVE EIGENVALUE OF SINGLET B MATRIX-0.25482276E+01  15


 @ WARNING: NEGATIVE EIGENVALUE OF SINGLET B MATRIX-0.93596109E+00  15


 @ WARNING: NEGATIVE EIGENVALUE OF TRIPLET B MATRIX-0.33858389E+01  15


 @ WARNING: NEGATIVE EIGENVALUE OF TRIPLET B MATRIX-0.29575275E+01  15


 @ WARNING: NEGATIVE EIGENVALUE OF TRIPLET B MATRIX-0.12634553E+01  15

  15   -0.008961151   -0.027995863    0.000000000   -0.000000000     2.72550         3.34734    

       -0.083034984   -0.350079291   -0.045385768   -0.111228897

              MP2-R12/B   correlation energy =   -0.461308188


                         +--------------------------------+
                         ! Auxiliary-basis MP2-R12 method !
                         +--------------------------------+


 SECOND-ORDER NONINVARIANT R12/0 PAIR ENERGIES WITH FIXED R12-COEFFICIENTS:

   1   -0.000405012   -0.005927826    0.000000000    0.000000000
   2   -0.000221078    0.059308082   -0.000014978    0.044530013
   3   -0.005852273    0.004634244    0.000000000    0.000000000
   4   -0.000045807    0.077655291   -0.000151181    0.050863142
   5   -0.006147856    0.004393553   -0.004484862    0.003914544
   6   -0.010512635   -0.000411875    0.000000000    0.000000000
   7   -0.000007766    0.075700934   -0.000146221    0.047204238
   8   -0.008489889   -0.006764964   -0.004899272    0.004434310
   9   -0.010002941    0.005627070   -0.010161943    0.005260014
  10   -0.014582412    0.010501795    0.000000000    0.000000000
  11   -0.000006386    0.083023246   -0.000175075    0.055153075
  12   -0.006187286   -0.000458942   -0.004764322    0.002430747
  13   -0.005913693   -0.012490679   -0.010191776    0.006013108
  14   -0.005698799    0.001288252   -0.010396139    0.005472055
  15   -0.008961151    0.004409988    0.000000000    0.000000000

       -0.083034984    0.300488170   -0.045385768    0.225275247

 Noninvariant MP2-R12/0   correlation energy =    0.525763417

  IJ    V(IJ)       U(IJ)       C(IJ)       V(IJ)       U(IJ)       C(IJ)   

   1 -0.6721E-01 -0.1289E+00  0.1000E+01  0.0000E+00  0.0000E+00  0.0000E+00  0.8811E+02  0.0000E+00
   2 -0.7687E-02 -0.7490E-01  0.1000E+01 -0.1920E-01 -0.2550E+00  0.5000E+00  0.2858E+02  0.2836E+02
   3 -0.2005E-01 -0.5058E-01  0.1000E+01  0.0000E+00  0.0000E+00  0.0000E+00  0.5381E+01  0.0000E+00
   4 -0.1409E-01 -0.1059E+00  0.1000E+01 -0.2676E-01 -0.3111E+00  0.5000E+00  0.2141E+02  0.2164E+02
   5 -0.5309E-01 -0.1167E+00  0.1000E+01 -0.5153E-01 -0.2397E+00  0.5000E+00  0.2723E+01  0.2714E+01
   6 -0.6721E-01 -0.1445E+00  0.1000E+01  0.0000E+00  0.0000E+00  0.0000E+00  0.2126E+01  0.0000E+00
   7 -0.1404E-01 -0.1038E+00  0.1000E+01 -0.2822E-01 -0.3023E+00  0.5000E+00  0.1655E+02  0.1666E+02
   8 -0.5867E-01 -0.1191E+00  0.1000E+01 -0.4387E-01 -0.2128E+00  0.5000E+00  0.3045E+01  0.2836E+01
   9 -0.3680E-01 -0.8923E-01  0.1000E+01 -0.7367E-01 -0.3564E+00  0.5000E+00  0.2609E+01  0.2474E+01
  10 -0.4935E-01 -0.1238E+00  0.1000E+01  0.0000E+00  0.0000E+00  0.0000E+00  0.2325E+01  0.0000E+00
  11 -0.1479E-01 -0.1126E+00  0.1000E+01 -0.2628E-01 -0.3264E+00  0.5000E+00  0.1853E+02  0.1843E+02
  12 -0.6669E-01 -0.1391E+00  0.1000E+01 -0.6738E-01 -0.2983E+00  0.5000E+00  0.2641E+01  0.2423E+01
  13 -0.7269E-01 -0.1388E+00  0.1000E+01 -0.7831E-01 -0.3781E+00  0.5000E+00  0.1662E+01  0.2703E+01
  14 -0.6486E-01 -0.1367E+00  0.1000E+01 -0.8455E-01 -0.4017E+00  0.5000E+00  0.1574E+01  0.2425E+01
  15 -0.6861E-01 -0.1506E+00  0.1000E+01  0.0000E+00  0.0000E+00  0.0000E+00  0.2309E+01  0.0000E+00

 SECOND-ORDER NONINVARIANT R12/A PAIR ENERGIES:

   1   -0.000405012   -0.035451496    0.000000000    0.000000000
   2   -0.000221078   -0.001009884   -0.000014978   -0.001460135
   3   -0.005852273   -0.013797604    0.000000000    0.000000000
   4   -0.000045807   -0.001919843   -0.000151181   -0.002452940
   5   -0.006147856   -0.030296449   -0.004484862   -0.015561607
   6   -0.010512635   -0.041770375    0.000000000    0.000000000
   7   -0.000007766   -0.001906325   -0.000146221   -0.002781166
   8   -0.008489889   -0.037401253   -0.004899272   -0.013942532
   9   -0.010002941   -0.025179182   -0.010161943   -0.025392422
  10   -0.014582412   -0.034258908    0.000000000    0.000000000
  11   -0.000006386   -0.001948928   -0.000175075   -0.002290810
  12   -0.006187286   -0.038159685   -0.004764322   -0.019984947
  13   -0.005913693   -0.043982985   -0.010191776   -0.026412902
  14   -0.005698799   -0.036471136   -0.010396139   -0.028194324
  15   -0.008961151   -0.040221879    0.000000000    0.000000000

       -0.083034984   -0.383775931   -0.045385768   -0.138473786

 Noninvariant MP2-R12/A   correlation energy =   -0.522249717

  IJ    V(IJ)       U(IJ)       C(IJ)       V(IJ)       U(IJ)       C(IJ)   

   1 -0.6721E-01 -0.1289E+00  0.5214E+00  0.0000E+00  0.0000E+00  0.0000E+00  0.8811E+02  0.0000E+00
[...]
       4      -0.00000000     0.00000000    -0.00000000    -2.00000000
       5      -0.00000000     0.00000000     0.00000000     0.00000000
       6      -0.00000000     0.00000000    -0.00000000    -0.00000000
       7       0.00000000     0.00000000     0.00000000     0.00000000
       8      -0.00000000    -0.00000000    -0.00000000    -0.00000000
       9       0.00000000     0.00000000    -0.00000000     0.00000000
      10      -0.00000000    -0.00000000    -0.00000000     0.00000000
      11       0.00000000     0.00000000    -0.00000000     0.00000000
      12      -0.00000000    -0.00000000    -0.00000000     0.00000000
      13       0.00000000     0.00000000    -0.00000000     0.00000000
      14      -0.00000000    -0.00000000    -0.00000000     0.00000000
      15       0.00000000     0.00000000    -0.00000000     0.00000000
      16      -0.00000000    -0.00000000    -0.00000000     0.00000000

               Column   5     Column   6     Column   7     Column   8
       5       2.00000000
       6      -0.00000000    -2.00000000
       7      -0.00000000     0.00000000     2.00000000
       8      -0.00000000     0.00000000    -0.00000000    -2.00000000
       9       0.00000000     0.00000000    -0.00000000     0.00000000
      10      -0.00000000    -0.00000000    -0.00000000     0.00000000
      11       0.00000000     0.00000000    -0.00000000     0.00000000
      12      -0.00000000    -0.00000000    -0.00000000     0.00000000
      15       0.00000000     0.00000000     0.00000000     0.00000000
      16      -0.00000000    -0.00000000    -0.00000000    -0.00000000

               Column   9     Column  10     Column  11     Column  12
       9       2.00000000
      10      -0.00000000    -2.00000000
      11       0.00000000     0.00000000     2.00000000
      12      -0.00000000    -0.00000000    -0.00000000    -2.00000000
      13       0.00000000     0.00000000    -0.00000000     0.00000000
      14      -0.00000000    -0.00000000    -0.00000000     0.00000000
      15      -0.00000000     0.00000000    -0.00000000     0.00000000
      16      -0.00000000     0.00000000    -0.00000000     0.00000000

               Column  13     Column  14     Column  15     Column  16
      13       2.00000000
      14      -0.00000000    -2.00000000
      15       0.00000000     0.00000000     2.00000000
      16      -0.00000000    -0.00000000    -0.00000000    -2.00000000
    ==== End of matrix output ====
  AFREQ,KZYRED,IGD   0.0000000000000000               16           1

 GP * SOLUTION vector at frequency     0.00000 a.u.
 after    8 linear transformations is      0.01801388
 INERTIA (POS,ZER,NEG) of reduced matrix is   16    0    0
 Determinant of reduced matrix is  6.85 * 10 ** 10.0

 REDUCED PROPERTY VECTOR AND REDUCED SOLUTION:

    1   1.761285D-01   5.255057D-02
    2  -1.761285D-01  -5.255057D-02

    3  -4.289554D-03  -1.500455D-02
    4   4.289554D-03   1.500455D-02

    5   7.037736D-02  -5.243104D-03
    6  -7.037736D-02   5.243104D-03

    7  -1.316865D-01  -5.761794D-04
    8   1.316865D-01   5.761794D-04

    9   1.546571D-01  -1.347392D-04
   10  -1.546571D-01   1.347392D-04

   11  -7.309080D-02  -1.201601D-05
   12   7.309080D-02   1.201601D-05

   13  -1.813208D-02  -4.116601D-07
   14   1.813208D-02   4.116601D-07

   15   2.405732D-02  -5.567727D-08
   16  -2.405732D-02   5.567727D-08

 ROOT:  1 RESIDUAL TOT: 3.73865D-08 CONF: 0.00000D+00 ORB: 3.73865D-08
          BNORM: 7.76471D-02 EIVAL: 0.00000D+00

 ** TEST OF Z = Y OR Z = -Y:
 (Z Y) norm squared = 3.33342322D-17
 Z + Y norm squared = 0.00000000D+00

 Z = -Y in trial vector no.   1
 Y component removed.

 RSPORT: b-vector, root no., norm**2:     1     1 1.43663D-17

 RSPORT: b-vector, root no., norm**2:     1     1 1.00000D+00

 NUMBER OF TRIAL VECTORS IN THIS LOAD    1   OFFSET FOR THIS LOAD    0
    1 NON-CONVERGED SOLUTION VECTORS THIS LOAD, TOTAL:    1
    1 LINEAR INDEPENDENT TRIAL VECTORS ADDED TO PREVIOUS    0

 Convergence of RSP solution vectors, threshold = 1.00D-07
 ---------------------------------------------------------------
 (dimension of paired reduced space:   16)
 RSP solution vector no.    1; norm of residual   4.81D-07

 ** RSPCTL MICROITERATION NUMBER    9
 NSIM,MAXSIM,JEXSIM    1   12    1
  NCSIM,NOSIM           0           1

 TRIAL VECTORS FOR RESTART:    9

  1 REDUCED GRADIENT VECTORS DIM KZYRED   18

               Column   1
       1       0.17612852
       2      -0.17612852
       3      -0.00428955
       4       0.00428955
       5       0.07037736
       6      -0.07037736
       7      -0.13168645
       8       0.13168645
       9       0.15465712
      10      -0.15465712
      11      -0.07309080
      12       0.07309080
      13      -0.01813208
      14       0.01813208
      15       0.02405732
      16      -0.02405732
      17      -0.03258312
      18       0.03258312
    ==== End of matrix output ====

 RSPRED: REDUCED HESSIAN MATRIX:

               Column   1     Column   2     Column   3     Column   4
       1       3.37076502
       2      -0.44302219     3.37076502
       3       0.47950156    -0.69377546     3.49162639
       4      -0.69377546     0.47950156    -1.05818610     3.49162639
       5       1.52758327     0.02086786    -0.29197467     0.16010502
       6       0.02086786     1.52758327     0.16010502    -0.29197467
       7      -2.85093705    -0.01046372     0.10592115    -0.03023293
       8      -0.01046372    -2.85093705    -0.03023293     0.10592115
       9       3.30349745     0.03492049    -0.24333275    -0.04212573
      10       0.03492049     3.30349745    -0.04212573    -0.24333275
      11      -1.55487590     0.09266573    -0.17902698     0.04906728
      12       0.09266573    -1.55487590     0.04906728    -0.17902698
      13      -0.42865546     0.09785935    -0.45167756     0.15190416
      14       0.09785935    -0.42865546     0.15190416    -0.45167756
      15       0.47536744     0.02952729    -0.21315760     0.10275618
      16       0.02952729     0.47536744     0.10275618    -0.21315760
      17      -0.67636837     0.05795180    -0.18353500     0.16547816
      18       0.05795180    -0.67636837     0.16547816    -0.18353500

               Column   5     Column   6     Column   7     Column   8
       5       3.36164873
       6      -0.04463474     3.36164873
       7      -5.09907466     0.00976038    16.23550595
       8       0.00976038    -5.09907466     0.01780630    16.23550595
       9       5.18485026    -0.00268067   -16.79940897     0.05826057
      10      -0.00268067     5.18485026     0.05826057   -16.79940897
      11      -2.52587894    -0.01236715     7.32064649    -0.00873090
      12      -0.01236715    -2.52587894    -0.00873090     7.32064649
      13      -0.15243573     0.00228407     0.66190896    -0.03048638
      14       0.00228407    -0.15243573    -0.03048638     0.66190896
      15       0.90479610    -0.00702802    -1.34030604     0.02982469
      16      -0.00702802     0.90479610     0.02982469    -1.34030604
      17      -0.18534386     0.02336229     0.72891715     0.01417936
      18       0.02336229    -0.18534386     0.01417936     0.72891715

               Column   9     Column  10     Column  11     Column  12
       9      20.42585474
      10       0.01643757    20.42585474
      11      -9.00855610    -0.00968827     8.57784040
      12      -0.00968827    -9.00855610    -0.02645131     8.57784040
      13      -0.22023926     0.03043862    -3.56288251     0.01668603
      14       0.03043862    -0.22023926     0.01668603    -3.56288251
      15       0.68507107     0.00336813     2.95230005     0.05167485
      16       0.00336813     0.68507107     0.05167485     2.95230005
      17      -0.62303397     0.01282209    -0.26990978     0.00325874
      18       0.01282209    -0.62303397     0.00325874    -0.26990978

               Column  13     Column  14     Column  15     Column  16
      13      24.00833362
      14      -0.04255785    24.00833362
      15     -16.95231004     0.03716702    16.52130990
      16       0.03716702   -16.95231004    -0.01294672    16.52130990
      17       6.55574762     0.01164481    -5.98406912     0.03489300
      18       0.01164481     6.55574762     0.03489300    -5.98406912

               Column  17     Column  18
      17       6.26703946
      18      -0.00242541     6.26703946
    ==== End of matrix output ====

 RSPRED: REDUCED METRIC MATRIX:

               Column   1     Column   2     Column   3     Column   4
       1       2.00000000
       2      -0.00000000    -2.00000000
       3      -0.00000000     0.00000000     2.00000000
       4      -0.00000000     0.00000000    -0.00000000    -2.00000000
       5      -0.00000000     0.00000000     0.00000000     0.00000000
       6      -0.00000000     0.00000000    -0.00000000    -0.00000000
       7       0.00000000     0.00000000     0.00000000     0.00000000
       8      -0.00000000    -0.00000000    -0.00000000    -0.00000000
       9       0.00000000     0.00000000    -0.00000000     0.00000000
      10      -0.00000000    -0.00000000    -0.00000000     0.00000000
      11       0.00000000     0.00000000    -0.00000000     0.00000000
      12      -0.00000000    -0.00000000    -0.00000000     0.00000000
      13       0.00000000     0.00000000    -0.00000000     0.00000000
      14      -0.00000000    -0.00000000    -0.00000000     0.00000000
      15       0.00000000     0.00000000    -0.00000000     0.00000000
      16      -0.00000000    -0.00000000    -0.00000000     0.00000000
      17      -0.00000000     0.00000000    -0.00000000     0.00000000
      18      -0.00000000     0.00000000    -0.00000000     0.00000000

               Column   5     Column   6     Column   7     Column   8
       5       2.00000000
       6      -0.00000000    -2.00000000
       7      -0.00000000     0.00000000     2.00000000
       8      -0.00000000     0.00000000    -0.00000000    -2.00000000
       9       0.00000000     0.00000000    -0.00000000     0.00000000
      10      -0.00000000    -0.00000000    -0.00000000     0.00000000
      11       0.00000000     0.00000000    -0.00000000     0.00000000
      12      -0.00000000    -0.00000000    -0.00000000     0.00000000
      15       0.00000000     0.00000000     0.00000000     0.00000000
      16      -0.00000000    -0.00000000    -0.00000000    -0.00000000
      17      -0.00000000     0.00000000    -0.00000000     0.00000000
      18      -0.00000000     0.00000000    -0.00000000     0.00000000

               Column   9     Column  10     Column  11     Column  12
       9       2.00000000
      10      -0.00000000    -2.00000000
      11       0.00000000     0.00000000     2.00000000
      12      -0.00000000    -0.00000000    -0.00000000    -2.00000000
      13       0.00000000     0.00000000    -0.00000000     0.00000000
      14      -0.00000000    -0.00000000    -0.00000000     0.00000000
      15      -0.00000000     0.00000000    -0.00000000     0.00000000
      16      -0.00000000     0.00000000    -0.00000000     0.00000000
      17      -0.00000000     0.00000000     0.00000000     0.00000000
      18      -0.00000000     0.00000000    -0.00000000    -0.00000000

               Column  13     Column  14     Column  15     Column  16
      13       2.00000000
      14      -0.00000000    -2.00000000
      15       0.00000000     0.00000000     2.00000000
      16      -0.00000000    -0.00000000    -0.00000000    -2.00000000
      17       0.00000000     0.00000000    -0.00000000     0.00000000
      18      -0.00000000    -0.00000000    -0.00000000     0.00000000

               Column  17     Column  18
      17       2.00000000
      18      -0.00000000    -2.00000000
    ==== End of matrix output ====
  AFREQ,KZYRED,IGD   0.0000000000000000               18           1

 GP * SOLUTION vector at frequency     0.00000 a.u.
 after    9 linear transformations is      0.01801388
 INERTIA (POS,ZER,NEG) of reduced matrix is   18    0    0
 Determinant of reduced matrix is  9.99 * 10 ** 11.0

 REDUCED PROPERTY VECTOR AND REDUCED SOLUTION:

    1   1.761285D-01   5.255057D-02
    2  -1.761285D-01  -5.255057D-02

    3  -4.289554D-03  -1.500455D-02
    4   4.289554D-03   1.500455D-02

    5   7.037736D-02  -5.243103D-03
    6  -7.037736D-02   5.243103D-03

    7  -1.316865D-01  -5.761794D-04
    8   1.316865D-01   5.761794D-04

    9   1.546571D-01  -1.347390D-04
   10  -1.546571D-01   1.347390D-04

   11  -7.309080D-02  -1.201526D-05
   12   7.309080D-02   1.201526D-05

   13  -1.813208D-02  -4.114651D-07
   14   1.813208D-02   4.114651D-07

   15   2.405732D-02  -5.737341D-08
   16  -2.405732D-02   5.737341D-08

   17  -3.258312D-02  -4.758710D-09
   18   3.258312D-02   4.758710D-09

 ROOT:  1 RESIDUAL TOT: 5.98497D-09 CONF: 0.00000D+00 ORB: 5.98497D-09
          BNORM: 7.76471D-02 EIVAL: 0.00000D+00

 NUMBER OF TRIAL VECTORS IN THIS LOAD    1   OFFSET FOR THIS LOAD    0
    0 NON-CONVERGED SOLUTION VECTORS THIS LOAD, TOTAL:    0
    0 LINEAR INDEPENDENT TRIAL VECTORS ADDED TO PREVIOUS    0

 *** THE REQUESTED    1 SOLUTION VECTORS CONVERGED

 Convergence of RSP solution vectors, threshold = 1.00D-07
 ---------------------------------------------------------------
 (dimension of paired reduced space:   18)
 RSP solution vector no.    1; norm of residual   7.71D-08

 *** RSPCTL MICROITERATIONS CONVERGED

 EIGENVECTOR NUMBER     1

     Orbital operator symmetry = 1
     (only elements abs greater than   10.00 % of max abs value)

      Index(r,s)      r      s        (r s) operator      (s r) operator
      ----------    -----  -----      --------------      --------------
           2         1(1)   5(1)       -0.0049028037        0.0049028037
           5         2(1)   4(1)       -0.0282054217        0.0282054217
           6         2(1)   5(1)        0.0175882954       -0.0175882954
           8         2(1)   7(1)       -0.0039623871        0.0039623871
           9         3(1)   4(1)       -0.0192136827        0.0192136827
          10         3(1)   5(1)       -0.0057560454        0.0057560454
          11         3(1)   6(1)       -0.0110162092        0.0110162092
          12         3(1)   7(1)       -0.0085546647        0.0085546647
          13         8(2)   9(2)        0.0188872171       -0.0188872171
          14         8(2)  10(2)        0.0147581119       -0.0147581119
          15         8(2)  11(2)       -0.0220893707        0.0220893707
          16        12(3)  13(3)        0.0140230672       -0.0140230672

        4 elements with absolute value less than 2.82D-03 not printed.

 The numbers in parenthesis give the orbital symmetry.

     Configuration operator symmetry = 1
     >> NO ELEMENTS <<


 Time used in linear response calculation is      0.03 CPU seconds for symmetry 1

 >>> Total time used in response solver is         0.03 CPU seconds.

   Equations converged to residual less than:  0.000000
  
 Norm of zeta-kappa-0:   8.9661694654176501E-003
 CCFOP: call CC_D1AO to recalc the 1e Density


                            +--------------------------+
                            ! MP2  Natural Occupations !
                            +--------------------------+

  
   Symmetry block number:  1
   ---------------------
  
   2.01873274   1.98268691   1.97483891   0.02077768   0.01046526
   0.00163507  -0.00025653
  
   Sum in this symmetry class:   6.008880
  
   Symmetry block number:  2
   ---------------------
  
   1.96656352   0.02255786   0.00184905   0.00028300
  
   Sum in this symmetry class:   1.991253
  
   Symmetry block number:  3
   ---------------------
  
   1.98279458   0.01707196
  
   Sum in this symmetry class:   1.999867
  
   Symmetry block number:  4
   ---------------------
  
   No orbitals in this symmetry block
  
  
   Total Sum of natural occupation numbers:  10.000000
  
   Dynamical correlation move: 0.074383 electrons
  
  
 CC one electron density calculated & diagonalized
 Total time used in CC_D1AO:   0.0000000000000000     
  


             +--------------------------------------------------------+
             !   Relaxed  MP2    First-order one-electron properties: !
             +--------------------------------------------------------+



                            +-------------------------+
                            !  Electric Dipole Moment !
                            +-------------------------+



                      Nuclear contribution to dipole moments
                      --------------------------------------

                 au               Debye          C m (/(10**-30)

      z      2.22149200         5.64646909        18.83459353




                     Electronic contribution to dipole moment
                     ----------------------------------------

                 au               Debye          C m (/(10**-30)

      z     -1.20897230        -3.07290089       -10.25009403


 Electronic dipole moment (au):   0.000000000       0.000000000      -1.208972302    




                          Total Molecular Dipole Moment
                          -----------------------------

                 au               Debye          C m (/(10**-30)

      z      1.01251970         2.57356820         8.58449949



 *******************************************************************

 Ground state energy is target 

 Ecorr =                    -76.04388683903769674544

 *******************************************************************

 requested model not yet implemented
  

 *******************************************************************************
 *******************************************************************************
 *                                                                             *
 *                                                                             *
 *                   SUMMARY OF COUPLED CLUSTER CALCULATION                    *
 *                                                                             *
 *                                                                             *
 *******************************************************************************
 *******************************************************************************

                                                                                
                                                                                
            Total SCF   energy:                   -75.9154660869                
            Total MP2-R12/ energy:                -76.0438868390                
  

 *******************************************************************************
 *******************************************************************************
 *                                                                             *
 *                                                                             *
 *                      END OF COUPLED CLUSTER CALCULATION                     *
 *                                                                             *
 *                                                                             *
 *******************************************************************************
 *******************************************************************************


 >>>> CPU and wall time for CC :       2.189       2.221

 
     Date and time (Linux)  : Sun Sep  8 20:59:11 2013
     Host name              : lpqlx131.ups-tlse.fr                    


                      .-------------------------------------.
                      | End of Coupled Cluster Section (CC) |
                      `-------------------------------------'

 >>>> Total CPU  time used in DALTON:   2.28 seconds
 >>>> Total wall time used in DALTON:   2.32 seconds

 
     Date and time (Linux)  : Sun Sep  8 20:59:11 2013
     Host name              : lpqlx131.ups-tlse.fr                    
