

     ************************************************************************
     *************** Dalton - An Electronic Structure Program ***************
     ************************************************************************

    This is output from DALTON release Dalton2019.alpha (2019)
         ( Web site: http://daltonprogram.org )

   ----------------------------------------------------------------------------

    NOTE:
     
    Dalton is an experimental code for the evaluation of molecular
    properties using (MC)SCF, DFT, CI, and CC wave functions.
    The authors accept no responsibility for the performance of
    the code or for the correctness of the results.
     
    The code (in whole or part) is provided under a licence and
    is not to be reproduced for further distribution without
    the written permission of the authors or their representatives.
     
    See the home page "http://daltonprogram.org" for further information.
     
    If results obtained with this code are published,
    the appropriate citations would be both of:
     
       K. Aidas, C. Angeli, K. L. Bak, V. Bakken, R. Bast,
       L. Boman, O. Christiansen, R. Cimiraglia, S. Coriani,
       P. Dahle, E. K. Dalskov, U. Ekstroem,
       T. Enevoldsen, J. J. Eriksen, P. Ettenhuber, B. Fernandez,
       L. Ferrighi, H. Fliegl, L. Frediani, K. Hald, A. Halkier,
       C. Haettig, H. Heiberg, T. Helgaker, A. C. Hennum,
       H. Hettema, E. Hjertenaes, S. Hoest, I.-M. Hoeyvik,
       M. F. Iozzi, B. Jansik, H. J. Aa. Jensen, D. Jonsson,
       P. Joergensen, J. Kauczor, S. Kirpekar,
       T. Kjaergaard, W. Klopper, S. Knecht, R. Kobayashi, H. Koch,
       J. Kongsted, A. Krapp, K. Kristensen, A. Ligabue,
       O. B. Lutnaes, J. I. Melo, K. V. Mikkelsen, R. H. Myhre,
       C. Neiss, C. B. Nielsen, P. Norman, J. Olsen,
       J. M. H. Olsen, A. Osted, M. J. Packer, F. Pawlowski,
       T. B. Pedersen, P. F. Provasi, S. Reine, Z. Rinkevicius,
       T. A. Ruden, K. Ruud, V. Rybkin, P. Salek, C. C. M. Samson,
       A. Sanchez de Meras, T. Saue, S. P. A. Sauer,
       B. Schimmelpfennig, K. Sneskov, A. H. Steindal,
       K. O. Sylvester-Hvid, P. R. Taylor, A. M. Teale,
       E. I. Tellgren, D. P. Tew, A. J. Thorvaldsen, L. Thoegersen,
       O. Vahtras, M. A. Watson, D. J. D. Wilson, M. Ziolkowski
       and H. Agren,
       "The Dalton quantum chemistry program system",
       WIREs Comput. Mol. Sci. 2014, 4:269–284 (doi: 10.1002/wcms.1172)
     
    and
     
       Dalton, a molecular electronic structure program,
       Release Dalton2019.alpha (2019), see http://daltonprogram.org
   ----------------------------------------------------------------------------

    Authors in alphabetical order (major contribution(s) in parenthesis):

  Kestutis Aidas,           Vilnius University,           Lithuania   (QM/MM)
  Celestino Angeli,         University of Ferrara,        Italy       (NEVPT2)
  Keld L. Bak,              UNI-C,                        Denmark     (AOSOPPA, non-adiabatic coupling, magnetic properties)
  Vebjoern Bakken,          University of Oslo,           Norway      (DALTON; geometry optimizer, symmetry detection)
  Radovan Bast,             UiT The Arctic U. of Norway,  Norway      (DALTON installation and execution frameworks)
  Pablo Baudin,             University of Valencia,       Spain       (Cholesky excitation energies)
  Linus Boman,              NTNU,                         Norway      (Cholesky decomposition and subsystems)
  Ove Christiansen,         Aarhus University,            Denmark     (CC module)
  Renzo Cimiraglia,         University of Ferrara,        Italy       (NEVPT2)
  Sonia Coriani,            Technical Univ. of Denmark,   Denmark     (CC module, MCD in RESPONS)
  Janusz Cukras,            University of Trieste,        Italy       (MChD in RESPONS)
  Paal Dahle,               University of Oslo,           Norway      (Parallelization)
  Erik K. Dalskov,          UNI-C,                        Denmark     (SOPPA)
  Thomas Enevoldsen,        Univ. of Southern Denmark,    Denmark     (SOPPA)
  Janus J. Eriksen,         Aarhus University,            Denmark     (Polarizable embedding model, TDA)
  Rasmus Faber,             University of Copenhagen,     Denmark     (Vib.avg. NMR with SOPPA, parallel AO-SOPPA)
  Tobias Fahleson,          KTH Stockholm,                Sweden      (Damped cubic response)
  Berta Fernandez,          U. of Santiago de Compostela, Spain       (doublet spin, ESR in RESPONS)
  Lara Ferrighi,            Aarhus University,            Denmark     (PCM Cubic response)
  Heike Fliegl,             University of Oslo,           Norway      (CCSD(R12))
  Luca Frediani,            UiT The Arctic U. of Norway,  Norway      (PCM)
  Bin Gao,                  UiT The Arctic U. of Norway,  Norway      (Gen1Int library)
  Christof Haettig,         Ruhr-University Bochum,       Germany     (CC module)
  Kasper Hald,              Aarhus University,            Denmark     (CC module)
  Asger Halkier,            Aarhus University,            Denmark     (CC module)
  Frederik Beyer Hansen,    University of Copenhagen,     Denmark     (Parallel AO-SOPPA)
  Erik D. Hedegaard,        Univ. of Southern Denmark,    Denmark     (Polarizable embedding model, QM/MM)
  Hanne Heiberg,            University of Oslo,           Norway      (geometry analysis, selected one-electron integrals)
  Trygve Helgaker,          University of Oslo,           Norway      (DALTON; ABACUS, ERI, DFT modules, London, and much more)
  Alf Christian Hennum,     University of Oslo,           Norway      (Parity violation)
  Hinne Hettema,            University of Auckland,       New Zealand (quadratic response in RESPONS; SIRIUS supersymmetry)
  Eirik Hjertenaes,         NTNU,                         Norway      (Cholesky decomposition)
  Pi A. B. Haase,           University of Copenhagen,     Denmark     (Triplet AO-SOPPA)
  Maria Francesca Iozzi,    University of Oslo,           Norway      (RPA)
  Christoph Jacob           TU Braunschweig               Germany     (Frozen density embedding model)
  Brano Jansik              Technical Univ. of Ostrava    Czech Rep.  (DFT cubic response)
  Hans Joergen Aa. Jensen,  Univ. of Southern Denmark,    Denmark     (DALTON; SIRIUS, RESPONS, ABACUS modules, London, and much more)
  Dan Jonsson,              UiT The Arctic U. of Norway,  Norway      (cubic response in RESPONS module)
  Poul Joergensen,          Aarhus University,            Denmark     (RESPONS, ABACUS, and CC modules)
  Maciej Kaminski,          University of Warsaw,         Poland      (CPPh in RESPONS)
  Joanna Kauczor,           Linkoeping University,        Sweden      (Complex polarization propagator (CPP) module)
  Sheela Kirpekar,          Univ. of Southern Denmark,    Denmark     (Mass-velocity & Darwin integrals)
  Wim Klopper,              KIT Karlsruhe,                Germany     (R12 code in CC, SIRIUS, and ABACUS modules)
  Stefan Knecht,            ETH Zurich,                   Switzerland (Parallel CI and MCSCF)
  Rika Kobayashi,           Australian National Univ.,    Australia   (DIIS in CC, London in MCSCF)
  Henrik Koch,              NTNU,                         Norway      (CC module, Cholesky decomposition)
  Jacob Kongsted,           Univ. of Southern Denmark,    Denmark     (Polarizable embedding model, QM/MM)
  Andrea Ligabue,           University of Modena,         Italy       (CTOCD, AOSOPPA)
  Nanna H. List             Univ. of Southern Denmark,    Denmark     (Polarizable embedding model)
  Ola B. Lutnaes,           University of Oslo,           Norway      (DFT Hessian)
  Juan I. Melo,             University of Buenos Aires,   Argentina   (LRESC, Relativistic Effects on NMR Shieldings)
  Kurt V. Mikkelsen,        University of Copenhagen,     Denmark     (MC-SCRF and QM/MM)
  Rolf H. Myhre,            NTNU,                         Norway      (Subsystems and CC3)
  Christian Neiss,          Univ. Erlangen-Nuernberg,     Germany     (CCSD(R12))
  Christian B. Nielsen,     University of Copenhagen,     Denmark     (QM/MM)
  Patrick Norman,           KTH Stockholm,                Sweden      (Cubic response and complex frequency response in RESPONS)
  Jeppe Olsen,              Aarhus University,            Denmark     (SIRIUS CI/density modules)
  Jogvan Magnus H. Olsen,   Univ. of Southern Denmark,    Denmark     (Polarizable embedding model, QM/MM)
  Anders Osted,             Copenhagen University,        Denmark     (QM/MM)
  Martin J. Packer,         University of Sheffield,      UK          (SOPPA)
  Filip Pawlowski,          Kazimierz Wielki University,  Poland      (CC3)
  Morten N. Pedersen,       Univ. of Southern Denmark,    Denmark     (Polarizable embedding model)
  Thomas B. Pedersen,       University of Oslo,           Norway      (Cholesky decomposition)
  Patricio F. Provasi,      University of Northeastern,   Argentina   (Analysis of coupling constants in localized orbitals)
  Zilvinas Rinkevicius,     KTH Stockholm,                Sweden      (open-shell DFT, ESR)
  Elias Rudberg,            KTH Stockholm,                Sweden      (DFT grid and basis info)
  Torgeir A. Ruden,         University of Oslo,           Norway      (Numerical derivatives in ABACUS)
  Kenneth Ruud,             UiT The Arctic U. of Norway,  Norway      (DALTON; ABACUS magnetic properties and much more)
  Pawel Salek,              KTH Stockholm,                Sweden      (DALTON; DFT code)
  Claire C. M. Samson       University of Karlsruhe       Germany     (Boys localization, r12 integrals in ERI)
  Alfredo Sanchez de Meras, University of Valencia,       Spain       (CC module, Cholesky decomposition)
  Trond Saue,               Paul Sabatier University,     France      (direct Fock matrix construction)
  Stephan P. A. Sauer,      University of Copenhagen,     Denmark     (SOPPA(CCSD), SOPPA prop., AOSOPPA, vibrational g-factors)
  Andre S. P. Gomes,        CNRS/Universite de Lille,     France      (Frozen density embedding model)
  Bernd Schimmelpfennig,    Forschungszentrum Karlsruhe,  Germany     (AMFI module)
  Kristian Sneskov,         Aarhus University,            Denmark     (Polarizable embedding model, QM/MM)
  Arnfinn H. Steindal,      UiT The Arctic U. of Norway,  Norway      (parallel QM/MM, Polarizable embedding model)
  Casper Steinmann,         Univ. of Southern Denmark,    Denmark     (QFIT, Polarizable embedding model)
  K. O. Sylvester-Hvid,     University of Copenhagen,     Denmark     (MC-SCRF)
  Peter R. Taylor,          VLSCI/Univ. of Melbourne,     Australia   (Symmetry handling ABACUS, integral transformation)
  Andrew M. Teale,          University of Nottingham,     England     (DFT-AC, DFT-D)
  David P. Tew,             University of Bristol,        England     (CCSD(R12))
  Olav Vahtras,             KTH Stockholm,                Sweden      (triplet response, spin-orbit, ESR, TDDFT, open-shell DFT)
  Lucas Visscher,           Vrije Universiteit Amsterdam, Netherlands (Frozen density embedding model)
  David J. Wilson,          La Trobe University,          Australia   (DFT Hessian and DFT magnetizabilities)
  Hans Agren,               KTH Stockholm,                Sweden      (SIRIUS module, RESPONS, MC-SCRF solvation model)
 --------------------------------------------------------------------------------

     Date and time (Linux)  : Sun Feb 10 13:21:43 2019
     Host name              : s82p33.deic.sdu.dk                      

 * Work memory size             :   320000000 =  2.384 gigabytes.

 * Directories for basis set searches:
   1) /work/sdujk/kjellgren/tpss_test/archive
   2) /gpfs/gss1/work/sdujk/kjellgren/programs/dalton/srdft_dalton_metaGGA/basis


Compilation information
-----------------------

 Who compiled             | kjellgren
 Host                     | fe1.deic.sdu.dk
 System                   | Linux-3.10.0-327.36.3.el7.x86_64
 CMake generator          | Unix Makefiles
 Processor                | x86_64
 64-bit integers          | OFF
 MPI                      | ON
 Fortran compiler         | /opt/sys/apps/intel/2018.05/impi_latest/intel64/bi
                          | n/mpiifort
 Fortran compiler version | unknown
 C compiler               | /opt/sys/apps/intel/2018.05/impi_latest/intel64/bi
                          | n/mpiicc
 C compiler version       | unknown
 C++ compiler             | /opt/sys/apps/intel/2018.05/impi_latest/intel64/bi
                          | n/mpiicpc
 C++ compiler version     | unknown
 Static linking           | OFF
 Last Git revision        | ccd5c8166e61c7e0af9069525144932388c6f570
 Git branch               | kjellgren-srdft_metagga
 Configuration time       | 2019-02-08 13:53:55.048444

 * MPI parallel run using 24 processes.


   Content of the .dal input file
 ----------------------------------

*DALTON INPUT
.RUN RESPONSE
**INTEGRALS
*TWOINT
.DOSRINTEGRALS
.ERF
 0.4
**WAVE FUNCTIONS
.HFSRDFT
.SRFUN
 SRXTPSS_S SRCTPSS_S
**RESPONSE
*LINEAR
.SINGLE RESIDUE
.TRIPLET
.ROOTS
 1 1 0 0 0 0 0 0 0
**END OF DALTON INPUT


   Content of the .mol file
 ----------------------------

BASIS
MINI(Scaled)


Atomtypes=2 Angstrom nosymmetry
Charge=8.0 Atoms=1
O 0.000000    0.000000    0.118835
Charge=1.0 Atoms=2
H 0.000000    0.764176   -0.475338
H 0.000000   -0.764176   -0.475338


       *******************************************************************
       *********** Output from DALTON general input processing ***********
       *******************************************************************

 --------------------------------------------------------------------------------
   Overall default print level:    0
   Print level for DALTON.STAT:    1

    Parallel calculation using MPI
    AO-direct calculation (in sections where implemented)
    HERMIT 1- and 2-electron integral sections will be executed
    "Old" integral transformation used (limited to max 255 basis functions)
    Wave function sections will be executed (SIRIUS module)
    Dynamic molecular response properties section will be executed (RESPONSE module)
 --------------------------------------------------------------------------------


   ****************************************************************************
   *************** Output of molecule and basis set information ***************
   ****************************************************************************


    The two title cards from your ".mol" input:
    ------------------------------------------------------------------------
 1:                                                                         
 2:                                                                         
    ------------------------------------------------------------------------

  Coordinates are entered in Angstrom and converted to atomic units.
          - Conversion factor : 1 bohr = 0.52917721 A

  Atomic type no.    1
  --------------------
  Nuclear charge:   8.00000
  Number of symmetry independent centers:    1
  Number of basis sets to read;    2
  Basis set file used for this atomic type with Z =   8 :
     "/gpfs/gss1/work/sdujk/kjellgren/programs/dalton/srdft_dalton_metaGGA/basis/MINI(Scaled)"

  Atomic type no.    2
  --------------------
  Nuclear charge:   1.00000
  Number of symmetry independent centers:    2
  Number of basis sets to read;    2
  Basis set file used for this atomic type with Z =   1 :
     "/gpfs/gss1/work/sdujk/kjellgren/programs/dalton/srdft_dalton_metaGGA/basis/MINI(Scaled)"


                         SYMGRP: Point group information
                         -------------------------------

@    Point group: C1 


                                 Isotopic Masses
                                 ---------------

                           O          15.994915
                           H           1.007825
                           H           1.007825

                       Total mass:    18.010565 amu
                       Natural abundance:  99.730 %

 Center-of-mass coordinates (a.u.):    0.000000   -0.000000    0.098905
 Center-of-mass coordinates (Angs):    0.000000   -0.000000    0.052338


  Atoms and basis sets
  --------------------

  Number of atom types :    2
  Total number of atoms:    3

  Basis set used is "MINI(Scaled)" from the basis set library.

  label    atoms   charge   prim   cont     basis
  ----------------------------------------------------------------------
  O           1    8.0000    15     5      [6s3p|2s1p]                                        
  H           2    1.0000     3     1      [3s|1s]                                            
  ----------------------------------------------------------------------
  total:      3   10.0000    21     7
  ----------------------------------------------------------------------

  Threshold for neglecting AO integrals:  1.00D-12


  Cartesian Coordinates (a.u.)
  ----------------------------

  Total number of coordinates:    9
  O       :     1  x   0.0000000000    2  y   0.0000000000    3  z   0.2245656041
  H       :     4  x   0.0000000000    5  y   1.4440833513    6  z  -0.8982586368
  H       :     7  x   0.0000000000    8  y  -1.4440833513    9  z  -0.8982586368


   Interatomic separations (in Angstrom):
   --------------------------------------

            O           H           H     
            ------      ------      ------
 O     :    0.000000
 H     :    0.967991    0.000000
 H     :    0.967991    1.528352    0.000000


  Max    interatomic separation is    1.5284 Angstrom (    2.8882 Bohr)
  between atoms    3 and    2, "H     " and "H     ".

  Min HX interatomic separation is    0.9680 Angstrom (    1.8292 Bohr)


  Bond distances (Angstrom):
  --------------------------

                  atom 1     atom 2       distance
                  ------     ------       --------
  bond distance:  H          O            0.967991
  bond distance:  H          O            0.967991


  Bond angles (degrees):
  ----------------------

                  atom 1     atom 2     atom 3         angle
                  ------     ------     ------         -----
  bond angle:     H          O          H            104.267




 Principal moments of inertia (u*A**2) and principal axes
 --------------------------------------------------------

   IA       0.631969          0.000000    1.000000    0.000000
   IB       1.177069          0.000000    0.000000    1.000000
   IC       1.809038          1.000000    0.000000    0.000000


 Rotational constants
 --------------------

@    The molecule is planar.

               A                   B                   C

         799689.9693         429353.7755         279363.4555 MHz
           26.674786           14.321700            9.318562 cm-1


@  Nuclear repulsion energy :    9.093052777509 Hartree


                     .---------------------------------------.
                     | Starting in Integral Section (HERMIT) |
                     `---------------------------------------'



 ***************************************************************************************
 ****************** Output from **INTEGRALS input processing (HERMIT) ******************
 ***************************************************************************************



    *************************************************************************
    ****************** Output from HERMIT input processing ******************
    *************************************************************************


 Default print level:        1

 Calculation of one-electron Hamiltonian integrals.

 Center of mass  (bohr):      0.000000000000     -0.000000000000      0.098904877645
 Operator center (bohr):      0.000000000000      0.000000000000      0.000000000000
 Gauge origin    (bohr):      0.000000000000      0.000000000000      0.000000000000
 Dipole origin   (bohr):      0.000000000000      0.000000000000      0.000000000000


  Set-up from HR2INP:
  -------------------

 Print level in TWOINT:    1

 DFT-hybrid : Using a Erf type two-elec. operator
              with the coupling parameter :    0.40000
 * Direct calculation of Fock matrices in AO-basis.
 * Program controlled screening thresholds used for this.
 * Separate density screening of Coulomb integral batches
 * Separate density screening of exchange integral batches


     ************************************************************************
     ************************** Output from HERINT **************************
     ************************************************************************



                      Nuclear contribution to dipole moments
                      --------------------------------------

                 au               Debye          C m (/(10**-30)

      x      0.00000000         0.00000000         0.00000000
      y      0.00000000         0.00000000         0.00000000
      z      0.00000756         0.00001921         0.00006409


  Total CPU  time used in HERMIT:   0.00 seconds
  Total wall time used in HERMIT:   0.00 seconds


                        .----------------------------------.
                        | End of Integral Section (HERMIT) |
                        `----------------------------------'



                   .--------------------------------------------.
                   | Starting in Wave Function Section (SIRIUS) |
                   `--------------------------------------------'


 *** Output from Huckel module :

     Using EWMO model:          T
     Using EHT  model:          F
     Number of Huckel orbitals each symmetry:    7

 EWMO - Energy Weighted Maximum Overlap - is a Huckel type method,
        which normally is better than Extended Huckel Theory.
 Reference: Linderberg and Ohrn, Propagators in Quantum Chemistry (Wiley, 1973)

 Huckel EWMO eigenvalues for symmetry :  1
          -20.684798      -1.604626      -0.777511      -0.689317      -0.616200
           -0.235816      -0.171633

 **********************************************************************
 *SIRIUS* a direct, restricted step, second order MCSCF program       *
 **********************************************************************

 
     Date and time (Linux)  : Sun Feb 10 13:21:43 2019
     Host name              : s82p33.deic.sdu.dk                      

 Title lines from ".mol" input file:
                                                                             
                                                                             

 Print level on unit LUPRI =   2 is   0
 Print level on unit LUW4  =   2 is   5

@    Restricted, closed shell HF-srDFT hybrid calculation.

@    Time-dependent HF-srDFT calculation (response properties).
 Fock matrices are calculated directly and in parallel without use of integrals on disk.

 Initial molecular orbitals are obtained according to
 ".MOSTART EWMO  " input option

     Wave function specification
     ============================
@    Wave function type        --- HF-srDFT ---
@    Number of closed shell electrons          10
@    Number of electrons in active shells       0
@    Total charge of the molecule               0

@    Spin multiplicity and 2 M_S                1         0
@    Total number of symmetries                 1 (point group: C1 )
@    Reference state symmetry                   1 (irrep name : A  )

@    This is a lrWFT-srDFT calculation using the 
@      SRXTPSS_S  short range exchange functional
@      SRCTPSS_S  short range correlation functional

@    sr-DFT and exact sr-HF exchange weights:    1.000000    0.000000

     Orbital specifications
     ======================
@    Abelian symmetry species          All |    1
@                                          |  A  
                                       --- |  ---
@    Occupied SCF orbitals               5 |    5
@    Secondary orbitals                  2 |    2
@    Total number of orbitals            7 |    7
@    Number of basis functions           7 |    7

     Optimization information
     ========================
@    Number of configurations                 1
@    Number of orbital rotations             10
     ------------------------------------------
@    Total number of variables               11

     Maximum number of Fock   iterations      0
     Maximum number of DIIS   iterations     60
     Maximum number of QC-SCF iterations     60
     Threshold for SCF convergence     1.00D-05


 ***********************************************
 ***** DIIS acceleration of SCF iterations *****
 ***********************************************

 C1-DIIS algorithm; max error vectors =    8

 Iter      Total energy        Error norm    Delta(E)  DIIS dim.
 -----------------------------------------------------------------------------

***  INFO  GETGAB: GABSRXXX not found on AOPROPER. Regenerating.

   Ex-sr + Ec-sr                         -7.3523612401
 + EJsr = sr Coulomb energy              28.0122142787
 = Total E(srDFT)                        20.6598530386

   1  Screening settings (-IFTHRS, JTDIIS, DIFDEN, times)   -5    1    F  5.88D-01  6.04D-01
@  1    -75.8621619010        6.88780D-01   -7.59D+01    1
      Virial theorem: -V/T =      1.999945
@    MULPOP   O      -0.61; H       0.31; H       0.31; 
   1  Level shift: doubly occupied orbital energies shifted by -2.00D-01
 -----------------------------------------------------------------------------

   Ex-sr + Ec-sr                         -7.3457962483
 + EJsr = sr Coulomb energy              27.8989016406
 = Total E(srDFT)                        20.5531053923

   2  Screening settings (-IFTHRS, JTDIIS, DIFDEN, times)   -6    2    F  5.47D-02  5.40D-02
@  2    -75.8955735059        1.55622D-01   -3.34D-02    2
      Virial theorem: -V/T =      2.000505
@    MULPOP   O      -0.60; H       0.30; H       0.30; 
   2  Level shift: doubly occupied orbital energies shifted by -5.00D-02
 -----------------------------------------------------------------------------

   Ex-sr + Ec-sr                         -7.3492061982
 + EJsr = sr Coulomb energy              27.8989398305
 = Total E(srDFT)                        20.5497336323

   3  Screening settings (-IFTHRS, JTDIIS, DIFDEN, times)   -7    3    F  5.50D-02  5.50D-02
@  3    -75.8981183669        1.86158D-02   -2.54D-03    3
      Virial theorem: -V/T =      1.999635
@    MULPOP   O      -0.60; H       0.30; H       0.30; 
   3  Level shift: doubly occupied orbital energies shifted by -1.25D-02
 -----------------------------------------------------------------------------

   Ex-sr + Ec-sr                         -7.3490561463
 + EJsr = sr Coulomb energy              27.8930607989
 = Total E(srDFT)                        20.5440046526

   4  Screening settings (-IFTHRS, JTDIIS, DIFDEN, times)   -8    4    F  4.91D-02  4.90D-02
@  4    -75.8981557462        1.15527D-03   -3.74D-05    4
      Virial theorem: -V/T =      1.999562
@    MULPOP   O      -0.60; H       0.30; H       0.30; 
 -----------------------------------------------------------------------------

   Ex-sr + Ec-sr                         -7.3492287402
 + EJsr = sr Coulomb energy              27.8945824374
 = Total E(srDFT)                        20.5453536973

   5  Screening settings (-IFTHRS, JTDIIS, DIFDEN, times)   -9    5    F  5.48D-02  5.50D-02
@  5    -75.8981558405        4.16751D-05   -9.43D-08    5
      Virial theorem: -V/T =      1.999545
@    MULPOP   O      -0.60; H       0.30; H       0.30; 
 -----------------------------------------------------------------------------

   Ex-sr + Ec-sr                         -7.3492311921
 + EJsr = sr Coulomb energy              27.8945960043
 = Total E(srDFT)                        20.5453648122

   6  Screening settings (-IFTHRS, JTDIIS, DIFDEN, times)   -9    6    F  5.24D-02  5.30D-02
@  6    -75.8981558409        4.96083D-06   -3.21D-10    6

@ *** DIIS converged in   6 iterations !
@     Converged SCF energy, gradient:    -75.898155840859    4.96D-06
    - total time used in SIRFCK :              0.00 seconds


 *** SCF orbital energy analysis ***

 Number of electrons :   10
 Orbital occupations :    5

 Sym       Hartree-Fock orbital energies

1 A     -18.83349915    -1.11466108    -0.61534117    -0.42597886    -0.36424696
          0.45647807     0.53212961

    E(LUMO) :     0.45647807 au (symmetry 1)
  - E(HOMO) :    -0.36424696 au (symmetry 1)
  ------------------------------------------
    gap     :     0.82072502 au

 --- Writing SIRIFC interface file

 CPU and wall time for SCF :       0.859       0.875


                       .-----------------------------------.
                       | --- Final results from SIRIUS --- |
                       `-----------------------------------'


@    Spin multiplicity:           1
@    Spatial symmetry:            1 ( irrep  A   in C1  )
@    Total charge of molecule:    0

@    Final HF-SRDFT energy:       -75.898155840859
@    Nuclear repulsion:             9.093052777509
@    Electronic energy:           -84.991208618368

@    Final gradient norm:           0.000004960826

 
     Date and time (Linux)  : Sun Feb 10 13:21:44 2019
     Host name              : s82p33.deic.sdu.dk                      

File label for MO orbitals:  10Feb19   FOCKDIIS

 (Only coefficients > 0.0100 are printed.)

 Molecular orbitals for symmetry species 1  (A  )
 ------------------------------------------------

    Orbital         1        2        3        4        5        6        7
   1 O   :1s    -0.9895   0.2149   0.0000   0.1063  -0.0000   0.1299  -0.0000
   2 O   :1s    -0.0526  -0.7936  -0.0000  -0.5346   0.0000  -0.9198   0.0000
   3 O   :2px    0.0000  -0.0000  -0.0000   0.0000   1.0000  -0.0000  -0.0000
   4 O   :2py   -0.0000  -0.0000  -0.6572   0.0000  -0.0000  -0.0000  -1.0036
   5 O   :2pz    0.0089   0.1970  -0.0000  -0.8052   0.0000   0.7299  -0.0000
   6 H   :1s     0.0139  -0.1710  -0.3822   0.2060  -0.0000   0.8397   0.8896
   7 H   :1s     0.0139  -0.1710   0.3822   0.2060  -0.0000   0.8397  -0.8896

  Total CPU  time used in SIRIUS :   0.86 seconds
  Total wall time used in SIRIUS :   0.88 seconds

 
     Date and time (Linux)  : Sun Feb 10 13:21:44 2019
     Host name              : s82p33.deic.sdu.dk                      


                     .---------------------------------------.
                     | End of Wave Function Section (SIRIUS) |
                     `---------------------------------------'



                 .------------------------------------------------.
                 | Starting in Dynamic Property Section (RESPONS) |
                 `------------------------------------------------'


 ----------------------------------------------------------------------------------------
  RESPONSE  -  an MCSCF, MC-srDFT, DFT, SOPPA and SOPPA-srDFT response property program
 ----------------------------------------------------------------------------------------


 -------- OUTPUT FROM RESPONSE INPUT PROCESSING --------




  Linear Response single residue calculation
 -------------------------------------------


    3 input options by user.

 Print level                                    : IPRPP  =   2
 Maximum number of iterations for eigenval.eqs. : MAXITP =  60
 Threshold for convergence of eigenvalue eqs.   : THCPP  = 1.000D-03
 Maximum iterations in optimal orbital algorithm: MAXITO =   5

      1 Excitation energies are calculated for symmetry no.    1


   SCF energy         :      -75.898155840859019
 -- inactive part     :      -84.991208618368276
 -- nuclear repulsion :        9.093052777509254


                      *************************************
                      *** HF-srDFT response calculation ***
                      *************************************

 ----------------------------------------------------------------
 ----- Linear response calculation
 ----- Symmetry of excitation/property operator(s)    1  ( A  )
 ----------------------------------------------------------------

 Number of excitations of this symmetry            1
 Number of response properties of this symmetry    0
 Number of C6/C8 properties of this symmetry       0


 Perturbation symmetry.     KSYMOP:           1
 Perturbation spin symmetry.TRPLET:           T
 Orbital variables.         KZWOPT:          10
 Configuration variables.   KZCONF:           0
 Total number of variables. KZVAR :          10
 Electrons in DFTMOMO:    9.99999857777581



 --- EXCITATION ENERGIES AND TRANSITION MOMENT CALCULATION (MCTDHF) ---

 Operator symmetry = 1  ( A  ); triplet =   T


 ** RSPCTL MICROITERATION NUMBER    1

      Root  Residual tot.,    conf., and orb.    Bnorm      Eigenvalue
      ----------------------------------------------------------------
         1    1.69573D-09  0.00D+00  1.70D-09  7.08D-01    4.40292D-01

 *** THE REQUESTED    1 SOLUTION VECTORS CONVERGED

 Convergence of RSP solution vectors, threshold = 1.00D-03
 ---------------------------------------------------------------
 (dimension of paired reduced space:    2)
 RSP solution vector no.    1; norm of residual   2.40D-09

 *** RSPCTL MICROITERATIONS CONVERGED


 **************************************************************************************
 *** @ Excit. operator sym 1 & ref. state sym 1 => excited state symmetry 1  ( A  ) ***
 **************************************************************************************



 @ Excited state no:    1 in symmetry 1  ( A  ) - triplet excitation
 -------------------------------------------------------------------

@ Excitation energy :  0.44029213     au
@                       11.980958     eV;   96632.952     cm-1;   1155.9868     kJ / mol

@ Total energy :       -75.457864     au

 Eigenvector for state no.  1

     Response orbital operator symmetry = 1
     (only scaled elements abs greater than   10.00 % of max abs value)

      Index(r,s)      r      s        (r s) operator      (s r) operator      (r s) scaled        (s r) scaled
      ----------    -----  -----      --------------      --------------      --------------      --------------
           9         5(1)   6(1)       -0.7075440932        0.0248725511       -1.0006184526        0.0351750992

        9 elements with absolute value ≤ 1.00D-01 not printed.

 The numbers in parenthesis give the orbital symmetry.

     Configuration operator symmetry = 1
     >> NO ELEMENTS <<


                              MO Overlap Diagnostic
                              ---------------------

 

Delta_R Diagnostic (Aa):     0.4952
 


                            PBHT MO Overlap Diagnostic
                            --------------------------


  The dominant contributions:

      I    A    K_IA      K_AI   <|I|*|A|> <I^2*A^2>    Weight   Contrib


@ Overlap diagnostic LAMBDA =    0.4812

@ Reference: MJG Peach, P Benfield, T Helgaker, and DJ Tozer.
@            J Chem Phys 128, 044118 (2008)



 Time used in polarization propagator calculation is      0.12 CPU seconds for symmetry 1

  Total CPU  time used in RESPONSE:   0.12 seconds
  Total wall time used in RESPONSE:   0.13 seconds


                   .-------------------------------------------.
                   | End of Dynamic Property Section (RESPONS) |
                   `-------------------------------------------'

  Total CPU  time used in DALTON:   1.01 seconds
  Total wall time used in DALTON:   1.05 seconds

 
     Date and time (Linux)  : Sun Feb 10 13:21:44 2019
     Host name              : s82p33.deic.sdu.dk                      
