

     ************************************************************************
     *************** Dalton - An Electronic Structure Program ***************
     ************************************************************************

    This is output from DALTON release Dalton2019.alpha (2019)
         ( Web site: http://daltonprogram.org )

   ----------------------------------------------------------------------------

    NOTE:
     
    Dalton is an experimental code for the evaluation of molecular
    properties using (MC)SCF, DFT, CI, and CC wave functions.
    The authors accept no responsibility for the performance of
    the code or for the correctness of the results.
     
    The code (in whole or part) is provided under a licence and
    is not to be reproduced for further distribution without
    the written permission of the authors or their representatives.
     
    See the home page "http://daltonprogram.org" for further information.
     
    If results obtained with this code are published,
    the appropriate citations would be both of:
     
       K. Aidas, C. Angeli, K. L. Bak, V. Bakken, R. Bast,
       L. Boman, O. Christiansen, R. Cimiraglia, S. Coriani,
       P. Dahle, E. K. Dalskov, U. Ekstroem,
       T. Enevoldsen, J. J. Eriksen, P. Ettenhuber, B. Fernandez,
       L. Ferrighi, H. Fliegl, L. Frediani, K. Hald, A. Halkier,
       C. Haettig, H. Heiberg, T. Helgaker, A. C. Hennum,
       H. Hettema, E. Hjertenaes, S. Hoest, I.-M. Hoeyvik,
       M. F. Iozzi, B. Jansik, H. J. Aa. Jensen, D. Jonsson,
       P. Joergensen, J. Kauczor, S. Kirpekar,
       T. Kjaergaard, W. Klopper, S. Knecht, R. Kobayashi, H. Koch,
       J. Kongsted, A. Krapp, K. Kristensen, A. Ligabue,
       O. B. Lutnaes, J. I. Melo, K. V. Mikkelsen, R. H. Myhre,
       C. Neiss, C. B. Nielsen, P. Norman, J. Olsen,
       J. M. H. Olsen, A. Osted, M. J. Packer, F. Pawlowski,
       T. B. Pedersen, P. F. Provasi, S. Reine, Z. Rinkevicius,
       T. A. Ruden, K. Ruud, V. Rybkin, P. Salek, C. C. M. Samson,
       A. Sanchez de Meras, T. Saue, S. P. A. Sauer,
       B. Schimmelpfennig, K. Sneskov, A. H. Steindal,
       K. O. Sylvester-Hvid, P. R. Taylor, A. M. Teale,
       E. I. Tellgren, D. P. Tew, A. J. Thorvaldsen, L. Thoegersen,
       O. Vahtras, M. A. Watson, D. J. D. Wilson, M. Ziolkowski
       and H. Agren,
       "The Dalton quantum chemistry program system",
       WIREs Comput. Mol. Sci. 2014, 4:269–284 (doi: 10.1002/wcms.1172)
     
    and
     
       Dalton, a molecular electronic structure program,
       Release Dalton2019.alpha (2019), see http://daltonprogram.org
   ----------------------------------------------------------------------------

    Authors in alphabetical order (major contribution(s) in parenthesis):

  Kestutis Aidas,           Vilnius University,           Lithuania   (QM/MM)
  Celestino Angeli,         University of Ferrara,        Italy       (NEVPT2)
  Keld L. Bak,              UNI-C,                        Denmark     (AOSOPPA, non-adiabatic coupling, magnetic properties)
  Vebjoern Bakken,          University of Oslo,           Norway      (DALTON; geometry optimizer, symmetry detection)
  Radovan Bast,             UiT The Arctic U. of Norway,  Norway      (DALTON installation and execution frameworks)
  Pablo Baudin,             University of Valencia,       Spain       (Cholesky excitation energies)
  Linus Boman,              NTNU,                         Norway      (Cholesky decomposition and subsystems)
  Ove Christiansen,         Aarhus University,            Denmark     (CC module)
  Renzo Cimiraglia,         University of Ferrara,        Italy       (NEVPT2)
  Sonia Coriani,            Technical Univ. of Denmark,   Denmark     (CC module, MCD in RESPONS)
  Janusz Cukras,            University of Trieste,        Italy       (MChD in RESPONS)
  Paal Dahle,               University of Oslo,           Norway      (Parallelization)
  Erik K. Dalskov,          UNI-C,                        Denmark     (SOPPA)
  Thomas Enevoldsen,        Univ. of Southern Denmark,    Denmark     (SOPPA)
  Janus J. Eriksen,         Aarhus University,            Denmark     (Polarizable embedding model, TDA)
  Rasmus Faber,             University of Copenhagen,     Denmark     (Vib.avg. NMR with SOPPA, parallel AO-SOPPA)
  Tobias Fahleson,          KTH Stockholm,                Sweden      (Damped cubic response)
  Berta Fernandez,          U. of Santiago de Compostela, Spain       (doublet spin, ESR in RESPONS)
  Lara Ferrighi,            Aarhus University,            Denmark     (PCM Cubic response)
  Heike Fliegl,             University of Oslo,           Norway      (CCSD(R12))
  Luca Frediani,            UiT The Arctic U. of Norway,  Norway      (PCM)
  Bin Gao,                  UiT The Arctic U. of Norway,  Norway      (Gen1Int library)
  Christof Haettig,         Ruhr-University Bochum,       Germany     (CC module)
  Kasper Hald,              Aarhus University,            Denmark     (CC module)
  Asger Halkier,            Aarhus University,            Denmark     (CC module)
  Frederik Beyer Hansen,    University of Copenhagen,     Denmark     (Parallel AO-SOPPA)
  Erik D. Hedegaard,        Univ. of Southern Denmark,    Denmark     (Polarizable embedding model, QM/MM)
  Hanne Heiberg,            University of Oslo,           Norway      (geometry analysis, selected one-electron integrals)
  Trygve Helgaker,          University of Oslo,           Norway      (DALTON; ABACUS, ERI, DFT modules, London, and much more)
  Alf Christian Hennum,     University of Oslo,           Norway      (Parity violation)
  Hinne Hettema,            University of Auckland,       New Zealand (quadratic response in RESPONS; SIRIUS supersymmetry)
  Eirik Hjertenaes,         NTNU,                         Norway      (Cholesky decomposition)
  Pi A. B. Haase,           University of Copenhagen,     Denmark     (Triplet AO-SOPPA)
  Maria Francesca Iozzi,    University of Oslo,           Norway      (RPA)
  Christoph Jacob           TU Braunschweig               Germany     (Frozen density embedding model)
  Brano Jansik              Technical Univ. of Ostrava    Czech Rep.  (DFT cubic response)
  Hans Joergen Aa. Jensen,  Univ. of Southern Denmark,    Denmark     (DALTON; SIRIUS, RESPONS, ABACUS modules, London, and much more)
  Dan Jonsson,              UiT The Arctic U. of Norway,  Norway      (cubic response in RESPONS module)
  Poul Joergensen,          Aarhus University,            Denmark     (RESPONS, ABACUS, and CC modules)
  Maciej Kaminski,          University of Warsaw,         Poland      (CPPh in RESPONS)
  Joanna Kauczor,           Linkoeping University,        Sweden      (Complex polarization propagator (CPP) module)
  Sheela Kirpekar,          Univ. of Southern Denmark,    Denmark     (Mass-velocity & Darwin integrals)
  Wim Klopper,              KIT Karlsruhe,                Germany     (R12 code in CC, SIRIUS, and ABACUS modules)
  Stefan Knecht,            ETH Zurich,                   Switzerland (Parallel CI and MCSCF)
  Rika Kobayashi,           Australian National Univ.,    Australia   (DIIS in CC, London in MCSCF)
  Henrik Koch,              NTNU,                         Norway      (CC module, Cholesky decomposition)
  Jacob Kongsted,           Univ. of Southern Denmark,    Denmark     (Polarizable embedding model, QM/MM)
  Andrea Ligabue,           University of Modena,         Italy       (CTOCD, AOSOPPA)
  Nanna H. List             Univ. of Southern Denmark,    Denmark     (Polarizable embedding model)
  Ola B. Lutnaes,           University of Oslo,           Norway      (DFT Hessian)
  Juan I. Melo,             University of Buenos Aires,   Argentina   (LRESC, Relativistic Effects on NMR Shieldings)
  Kurt V. Mikkelsen,        University of Copenhagen,     Denmark     (MC-SCRF and QM/MM)
  Rolf H. Myhre,            NTNU,                         Norway      (Subsystems and CC3)
  Christian Neiss,          Univ. Erlangen-Nuernberg,     Germany     (CCSD(R12))
  Christian B. Nielsen,     University of Copenhagen,     Denmark     (QM/MM)
  Patrick Norman,           KTH Stockholm,                Sweden      (Cubic response and complex frequency response in RESPONS)
  Jeppe Olsen,              Aarhus University,            Denmark     (SIRIUS CI/density modules)
  Jogvan Magnus H. Olsen,   Univ. of Southern Denmark,    Denmark     (Polarizable embedding model, QM/MM)
  Anders Osted,             Copenhagen University,        Denmark     (QM/MM)
  Martin J. Packer,         University of Sheffield,      UK          (SOPPA)
  Filip Pawlowski,          Kazimierz Wielki University,  Poland      (CC3)
  Morten N. Pedersen,       Univ. of Southern Denmark,    Denmark     (Polarizable embedding model)
  Thomas B. Pedersen,       University of Oslo,           Norway      (Cholesky decomposition)
  Patricio F. Provasi,      University of Northeastern,   Argentina   (Analysis of coupling constants in localized orbitals)
  Zilvinas Rinkevicius,     KTH Stockholm,                Sweden      (open-shell DFT, ESR)
  Elias Rudberg,            KTH Stockholm,                Sweden      (DFT grid and basis info)
  Torgeir A. Ruden,         University of Oslo,           Norway      (Numerical derivatives in ABACUS)
  Kenneth Ruud,             UiT The Arctic U. of Norway,  Norway      (DALTON; ABACUS magnetic properties and much more)
  Pawel Salek,              KTH Stockholm,                Sweden      (DALTON; DFT code)
  Claire C. M. Samson       University of Karlsruhe       Germany     (Boys localization, r12 integrals in ERI)
  Alfredo Sanchez de Meras, University of Valencia,       Spain       (CC module, Cholesky decomposition)
  Trond Saue,               Paul Sabatier University,     France      (direct Fock matrix construction)
  Stephan P. A. Sauer,      University of Copenhagen,     Denmark     (SOPPA(CCSD), SOPPA prop., AOSOPPA, vibrational g-factors)
  Andre S. P. Gomes,        CNRS/Universite de Lille,     France      (Frozen density embedding model)
  Bernd Schimmelpfennig,    Forschungszentrum Karlsruhe,  Germany     (AMFI module)
  Kristian Sneskov,         Aarhus University,            Denmark     (Polarizable embedding model, QM/MM)
  Arnfinn H. Steindal,      UiT The Arctic U. of Norway,  Norway      (parallel QM/MM, Polarizable embedding model)
  Casper Steinmann,         Univ. of Southern Denmark,    Denmark     (QFIT, Polarizable embedding model)
  K. O. Sylvester-Hvid,     University of Copenhagen,     Denmark     (MC-SCRF)
  Peter R. Taylor,          VLSCI/Univ. of Melbourne,     Australia   (Symmetry handling ABACUS, integral transformation)
  Andrew M. Teale,          University of Nottingham,     England     (DFT-AC, DFT-D)
  David P. Tew,             University of Bristol,        England     (CCSD(R12))
  Olav Vahtras,             KTH Stockholm,                Sweden      (triplet response, spin-orbit, ESR, TDDFT, open-shell DFT)
  Lucas Visscher,           Vrije Universiteit Amsterdam, Netherlands (Frozen density embedding model)
  David J. Wilson,          La Trobe University,          Australia   (DFT Hessian and DFT magnetizabilities)
  Hans Agren,               KTH Stockholm,                Sweden      (SIRIUS module, RESPONS, MC-SCRF solvation model)
 --------------------------------------------------------------------------------

     Date and time (Linux)  : Sun Feb 10 14:01:34 2019
     Host name              : s12p32.deic.sdu.dk                      

 * Work memory size             :   320000000 =  2.384 gigabytes.

 * Directories for basis set searches:
   1) /work/sdujk/kjellgren/tpss_test/archive
   2) /gpfs/gss1/work/sdujk/kjellgren/programs/dalton/srdft_dalton_metaGGA/basis


Compilation information
-----------------------

 Who compiled             | kjellgren
 Host                     | fe1.deic.sdu.dk
 System                   | Linux-3.10.0-327.36.3.el7.x86_64
 CMake generator          | Unix Makefiles
 Processor                | x86_64
 64-bit integers          | OFF
 MPI                      | ON
 Fortran compiler         | /opt/sys/apps/intel/2018.05/impi_latest/intel64/bi
                          | n/mpiifort
 Fortran compiler version | unknown
 C compiler               | /opt/sys/apps/intel/2018.05/impi_latest/intel64/bi
                          | n/mpiicc
 C compiler version       | unknown
 C++ compiler             | /opt/sys/apps/intel/2018.05/impi_latest/intel64/bi
                          | n/mpiicpc
 C++ compiler version     | unknown
 Static linking           | OFF
 Last Git revision        | ccd5c8166e61c7e0af9069525144932388c6f570
 Git branch               | kjellgren-srdft_metagga
 Configuration time       | 2019-02-08 13:53:55.048444

 * MPI parallel run using 24 processes.


   Content of the .dal input file
 ----------------------------------

*DALTON INPUT
.RUN RESPONSE
**INTEGRALS
*TWOINT
.DOSRINTEGRALS
.ERF
 0.4
**WAVE FUNCTIONS
.HFSRDFT
.MP2
.MCSRDFT
.SRFUN
 SRXTPSS_S SRCTPSS_S
*OPTIMIZATION
.DETERMINANTS
*CI VECTOR
.PLUS COMBINATIONS
*CONFIGURATION INPUT
.SYMMETRY
 1
.SPIN MUL
 1
.INACTIVE
 2 1 1 0
.ELECTRONS
 2
.CAS SPACE
 1 0 1 0
**RESPONSE
*LINEAR
.SINGLE RESIDUE
.TRIPLET
.ROOTS
 0 1 0 0 0 0 0 0 0
**END OF DALTON INPUT


   Content of the .mol file
 ----------------------------

BASIS
MINI(Scaled)


Atomtypes=2 Angstrom
Charge=8.0 Atoms=1
O 0.000000    0.000000    0.118835
Charge=1.0 Atoms=2
H 0.000000    0.764176   -0.475338
H 0.000000   -0.764176   -0.475338


       *******************************************************************
       *********** Output from DALTON general input processing ***********
       *******************************************************************

 --------------------------------------------------------------------------------
   Overall default print level:    0
   Print level for DALTON.STAT:    1

    Parallel calculation using MPI
    AO-direct calculation (in sections where implemented)
    HERMIT 1- and 2-electron integral sections will be executed
    "Old" integral transformation used (limited to max 255 basis functions)
    Wave function sections will be executed (SIRIUS module)
    Dynamic molecular response properties section will be executed (RESPONSE module)
 --------------------------------------------------------------------------------


   ****************************************************************************
   *************** Output of molecule and basis set information ***************
   ****************************************************************************


    The two title cards from your ".mol" input:
    ------------------------------------------------------------------------
 1:                                                                         
 2:                                                                         
    ------------------------------------------------------------------------

  Coordinates are entered in Angstrom and converted to atomic units.
          - Conversion factor : 1 bohr = 0.52917721 A

  Atomic type no.    1
  --------------------
  Nuclear charge:   8.00000
  Number of symmetry independent centers:    1
  Number of basis sets to read;    2
  Basis set file used for this atomic type with Z =   8 :
     "/gpfs/gss1/work/sdujk/kjellgren/programs/dalton/srdft_dalton_metaGGA/basis/MINI(Scaled)"

  Atomic type no.    2
  --------------------
  Nuclear charge:   1.00000
  Number of symmetry independent centers:    2
  Number of basis sets to read;    2
  Basis set file used for this atomic type with Z =   1 :
     "/gpfs/gss1/work/sdujk/kjellgren/programs/dalton/srdft_dalton_metaGGA/basis/MINI(Scaled)"


                      SYMADD: Requested addition of symmetry
                      --------------------------------------

 Symmetry test threshold:  5.00E-06

@   The molecule is centered at center of mass and rotated
@   so principal axes of inertia are along coordinate axes.

 Symmetry class found: C(2v)          

 Symmetry Independent Centres             
 ----------------------------
       8 :      0.00000000     0.00000000    -0.12566073  Isotope  1
       1 :      0.00000000     1.44408335     0.99716351  Isotope  1

 The following symmetry elements were found:   X  Y     


                         SYMGRP: Point group information
                         -------------------------------

@    Full point group is: C(2v)          
@    Represented as:      C2v

@  * The irrep name for each symmetry:    1: A1     2: B1     3: B2     4: A2 

   * The point group was generated by:

      Reflection in the yz-plane
      Reflection in the xz-plane

   * Group multiplication table

        |  E   C2z  Oxz  Oyz
   -----+--------------------
     E  |  E   C2z  Oxz  Oyz
    C2z | C2z   E   Oyz  Oxz
    Oxz | Oxz  Oyz   E   C2z
    Oyz | Oyz  Oxz  C2z   E 

   * Character table

        |  E   C2z  Oxz  Oyz
   -----+--------------------
    A1  |   1    1    1    1
    B1  |   1   -1    1   -1
    B2  |   1   -1   -1    1
    A2  |   1    1   -1   -1

   * Direct product table

        | A1   B1   B2   A2 
   -----+--------------------
    A1  | A1   B1   B2   A2 
    B1  | B1   A1   A2   B2 
    B2  | B2   A2   A1   B1 
    A2  | A2   B2   B1   A1 


                                 Isotopic Masses
                                 ---------------

                           O          15.994915
                           H   _1      1.007825
                           H   _2      1.007825

                       Total mass:    18.010565 amu
                       Natural abundance:  99.730 %

 Center-of-mass coordinates (a.u.):    0.000000   -0.000000   -0.000000
 Center-of-mass coordinates (Angs):    0.000000   -0.000000   -0.000000


  Atoms and basis sets
  --------------------

  Number of atom types :    2
  Total number of atoms:    3

  Basis set used is "MINI(Scaled)" from the basis set library.

  label    atoms   charge   prim   cont     basis
  ----------------------------------------------------------------------
  O           1    8.0000    15     5      [6s3p|2s1p]                                        
  H           2    1.0000     3     1      [3s|1s]                                            
  ----------------------------------------------------------------------
  total:      3   10.0000    21     7
  ----------------------------------------------------------------------

  Threshold for neglecting AO integrals:  1.00D-12


  Cartesian Coordinates (a.u.)
  ----------------------------

  Total number of coordinates:    9
  O       :     1  x   0.0000000000    2  y   0.0000000000    3  z  -0.1256607264
  H   / 1 :     4  x   0.0000000000    5  y   1.4440833513    6  z   0.9971635144
  H   / 2 :     7  x   0.0000000000    8  y  -1.4440833513    9  z   0.9971635144


  Symmetry Coordinates
  --------------------

  Number of coordinates in each symmetry:     3    2    3    1

  Symmetry  A1  ( 1)

    1   O     z    3
    2   H     y    [  5  -    8 ]/2
    3   H     z    [  6  +    9 ]/2

  Symmetry  B1  ( 2)

    4   O     x    1
    5   H     x    [  4  +    7 ]/2

  Symmetry  B2  ( 3)

    6   O     y    2
    7   H     y    [  5  +    8 ]/2
    8   H     z    [  6  -    9 ]/2

  Symmetry  A2  ( 4)

    9   H     x    [  4  -    7 ]/2


   Interatomic separations (in Angstrom):
   --------------------------------------

            O           H   _1      H   _2
            ------      ------      ------
 O     :    0.000000
 H   _1:    0.967991    0.000000
 H   _2:    0.967991    1.528352    0.000000


  Max    interatomic separation is    1.5284 Angstrom (    2.8882 Bohr)
  between atoms    3 and    2, "H   _2" and "H   _1".

  Min HX interatomic separation is    0.9680 Angstrom (    1.8292 Bohr)


  Bond distances (Angstrom):
  --------------------------

                  atom 1     atom 2       distance
                  ------     ------       --------
  bond distance:  H   _1     O            0.967991
  bond distance:  H   _2     O            0.967991


  Bond angles (degrees):
  ----------------------

                  atom 1     atom 2     atom 3         angle
                  ------     ------     ------         -----
  bond angle:     H   _1     O          H   _2       104.267




 Principal moments of inertia (u*A**2) and principal axes
 --------------------------------------------------------

   IA       0.631969          0.000000    1.000000    0.000000
   IB       1.177069          0.000000    0.000000    1.000000
   IC       1.809038          1.000000    0.000000    0.000000


 Rotational constants
 --------------------

@    The molecule is planar.

               A                   B                   C

         799689.9693         429353.7755         279363.4555 MHz
           26.674786           14.321700            9.318562 cm-1


@  Nuclear repulsion energy :    9.093052777509 Hartree


  Symmetry Orbitals
  -----------------

  Number of orbitals in each symmetry:           4    1    2    0


  Symmetry  A1 ( 1)

    1     O        1s         1
    2     O        1s         2
    3     O        2pz        5
    4     H        1s         6 +    7


  Symmetry  B1 ( 2)

    5     O        2px        3


  Symmetry  B2 ( 3)

    6     O        2py        4
    7     H        1s         6 -    7


  No orbitals in symmetry  A2 ( 4)

  Symmetries of electric field:  B1 (2)  B2 (3)  A1 (1)

  Symmetries of magnetic field:  B2 (3)  B1 (2)  A2 (4)


                     .---------------------------------------.
                     | Starting in Integral Section (HERMIT) |
                     `---------------------------------------'



 ***************************************************************************************
 ****************** Output from **INTEGRALS input processing (HERMIT) ******************
 ***************************************************************************************



    *************************************************************************
    ****************** Output from HERMIT input processing ******************
    *************************************************************************


 Default print level:        1

 Calculation of one-electron Hamiltonian integrals.

 Center of mass  (bohr):      0.000000000000     -0.000000000000     -0.000000000000
 Operator center (bohr):      0.000000000000      0.000000000000      0.000000000000
 Gauge origin    (bohr):      0.000000000000     -0.000000000000     -0.000000000000
 Dipole origin   (bohr):      0.000000000000     -0.000000000000     -0.000000000000


  Set-up from HR2INP:
  -------------------

 Print level in TWOINT:    1

 DFT-hybrid : Using a Erf type two-elec. operator
              with the coupling parameter :    0.40000
 * Direct calculation of Fock matrices in AO-basis.
 * Program controlled screening thresholds used for this.
 * Separate density screening of Coulomb integral batches
 * Separate density screening of exchange integral batches


     ************************************************************************
     ************************** Output from HERINT **************************
     ************************************************************************



                      Nuclear contribution to dipole moments
                      --------------------------------------

                 au               Debye          C m (/(10**-30)

      z      0.98904122         2.51389186         8.38544065


  Total CPU  time used in HERMIT:   0.00 seconds
  Total wall time used in HERMIT:   0.00 seconds


                        .----------------------------------.
                        | End of Integral Section (HERMIT) |
                        `----------------------------------'



                   .--------------------------------------------.
                   | Starting in Wave Function Section (SIRIUS) |
                   `--------------------------------------------'


 CI program in use: SIRIUS-CI

 *** Output from Huckel module :

     Using EWMO model:          F
     Using EHT  model:          T
     Number of Huckel orbitals each symmetry:    4    1    2    0

 Huckel EHT eigenvalues for symmetry :  1
          -20.704599      -1.501427      -0.671220      -0.295546

 Huckel EHT eigenvalues for symmetry :  2
           -0.616200

 Huckel EHT eigenvalues for symmetry :  3
           -0.730742      -0.260166

 SETCI, core memory needed for CI:
 LCINDX =          53
 LACIMX =          83
 LBCIMX =           0

 Number of determinants:             2

 Number of configurations:           2

 Time used in SETCI :      0.48s

 **********************************************************************
 *SIRIUS* a direct, restricted step, second order MCSCF program       *
 **********************************************************************

 
     Date and time (Linux)  : Sun Feb 10 14:01:34 2019
     Host name              : s12p32.deic.sdu.dk                      

 Title lines from ".mol" input file:
                                                                             
                                                                             

 Print level on unit LUPRI =   2 is   0
 Print level on unit LUW4  =   2 is   5

@    MC-SCF optimization.

@    Multi-configurational response calculation.
@              Type: complete active space calculation (CAS).

@    This is a combination run starting with
@              a restricted, closed shell HF-srDFT hybrid calculation
@              an MP2 calculation

 Fock matrices are calculated directly and in parallel without use of integrals on disk.

 Initial molecular orbitals are obtained according to
 ".MOSTART EHT   " input option

     Wave function specification
     ============================
@    Wave function type        --- MC-SCF ---
@    Number of closed shell electrons           8
@    Number of electrons in active shells       2
@    Total charge of the molecule               0

@    Spin multiplicity and 2 M_S                1         0
@    Total number of symmetries                 4 (point group: C2v)
@    Reference state symmetry                   1 (irrep name : A1 )

@    This is a lrWFT-srDFT calculation using the 
@      SRXTPSS_S  short range exchange functional
@      SRCTPSS_S  short range correlation functional

@    sr-DFT and exact sr-HF exchange weights:    1.000000    0.000000

     Orbital specifications
     ======================
@    Abelian symmetry species          All |    1    2    3    4
@                                          |  A1   B1   B2   A2 
                                       --- |  ---  ---  ---  ---
@    Inactive orbitals                   4 |    2    1    1    0
@    Active orbitals                     2 |    1    0    1    0
@    Secondary orbitals                  1 |    1    0    0    0
@    Total number of orbitals            7 |    4    1    2    0
@    Number of basis functions           7 |    4    1    2    0

      ** Automatic occupation of RHF-srDFT orbitals **

      -- Initial occupation of symmetries is determined from extended Huckel guess.           
      -- Initial occupation of symmetries is :
@    Occupied SCF orbitals               5 |    3    1    1    0

     Optimization information
     ========================
@    Number of determinants                   2
@    Number of orbital rotations              6
     ------------------------------------------
@    Total number of variables                8

     Maximum number of macro iterations      25
     Maximum number of micro iterations     600
     Threshold for MCSCF gradient      1.00D-05
     Number of initial trial vectors          1
     Number of initial CI iterations          3
     Number of simultaneous trial vectors     1

@    This calculation converges to the lowest state for the specified symmetry and spin species.

     Maximum number of NEO/NR iterations  24


 ***********************************************
 ***** DIIS acceleration of SCF iterations *****
 ***********************************************

 C1-DIIS algorithm; max error vectors =    3

 Automatic occupation of symmetries with  10 electrons.

 Iter     Total energy    Error norm  Delta(E)    SCF occupation
 -----------------------------------------------------------------------------

***  INFO  GETGAB: GABSRXXX not found on AOPROPER. Regenerating.

   Ex-sr + Ec-sr                         -7.3316870966
 + EJsr = sr Coulomb energy              27.7937979742
 = Total E(srDFT)                        20.4621108776


 Corrections needed for correct CI energy evaluation:
 - 0.5 Tr(Vxc-sr Dcore)                   5.0663086393
 -     Tr(Vxc-sr Dval)                    0.0000000000
 - 0.5 Tr( (Jsr+HFXFAC*Ksr) Dval )        0.0000000000
   1  Screening settings (-IFTHRS, JTDIIS, DIFDEN, times)   -5    1    F  6.00D-01  6.18D-01
@  1  -75.8203199670       1.77D+00  -7.58D+01     3   1   1   0
      Virial theorem: -V/T =      1.999276
@    MULPOP   O      -0.50; H   _1  0.25; H   _2  0.25; 
   1  Level shift: doubly occupied orbital energies shifted by -2.00D-01
 -----------------------------------------------------------------------------

   Ex-sr + Ec-sr                         -7.3494173820
 + EJsr = sr Coulomb energy              27.9558417736
 = Total E(srDFT)                        20.6064243916


 Corrections needed for correct CI energy evaluation:
 - 0.5 Tr(Vxc-sr Dcore)                   5.0786277378
 -     Tr(Vxc-sr Dval)                    0.0000000000
 - 0.5 Tr( (Jsr+HFXFAC*Ksr) Dval )        0.0000000000
   2  Screening settings (-IFTHRS, JTDIIS, DIFDEN, times)   -6    2    F  4.58D-02  4.60D-02
@  2  -75.8930693361       2.08D-01  -7.27D-02     3   1   1   0
      Virial theorem: -V/T =      2.000529
@    MULPOP   O      -0.61; H   _1  0.31; H   _2  0.31; 
   2  Level shift: doubly occupied orbital energies shifted by -5.00D-02
 -----------------------------------------------------------------------------

   Ex-sr + Ec-sr                         -7.3458959335
 + EJsr = sr Coulomb energy              27.8778673240
 = Total E(srDFT)                        20.5319713905


 Corrections needed for correct CI energy evaluation:
 - 0.5 Tr(Vxc-sr Dcore)                   5.0760695896
 -     Tr(Vxc-sr Dval)                    0.0000000000
 - 0.5 Tr( (Jsr+HFXFAC*Ksr) Dval )        0.0000000000
   3  Screening settings (-IFTHRS, JTDIIS, DIFDEN, times)   -7    3    F  4.36D-02  4.40D-02
@  3  -75.8979330916       4.54D-02  -4.86D-03     3   1   1   0
      Virial theorem: -V/T =      2.000130
@    MULPOP   O      -0.59; H   _1  0.30; H   _2  0.30; 
   3  Level shift: doubly occupied orbital energies shifted by -1.25D-02
 -----------------------------------------------------------------------------

   Ex-sr + Ec-sr                         -7.3502956200
 + EJsr = sr Coulomb energy              27.9057667196
 = Total E(srDFT)                        20.5554710996


 Corrections needed for correct CI energy evaluation:
 - 0.5 Tr(Vxc-sr Dcore)                   5.0790285902
 -     Tr(Vxc-sr Dval)                    0.0000000000
 - 0.5 Tr( (Jsr+HFXFAC*Ksr) Dval )        0.0000000000
   4  Screening settings (-IFTHRS, JTDIIS, DIFDEN, times)   -7    4    F  4.42D-02  4.40D-02
@  4  -75.8981473162       8.38D-03  -2.14D-04     3   1   1   0
      Virial theorem: -V/T =      1.999471
@    MULPOP   O      -0.60; H   _1  0.30; H   _2  0.30; 
 -----------------------------------------------------------------------------

   Ex-sr + Ec-sr                         -7.3490506058
 + EJsr = sr Coulomb energy              27.8933673571
 = Total E(srDFT)                        20.5443167513


 Corrections needed for correct CI energy evaluation:
 - 0.5 Tr(Vxc-sr Dcore)                   5.0781747292
 -     Tr(Vxc-sr Dval)                    0.0000000000
 - 0.5 Tr( (Jsr+HFXFAC*Ksr) Dval )        0.0000000000
   5  Screening settings (-IFTHRS, JTDIIS, DIFDEN, times)   -8    5    F  4.34D-02  4.40D-02
@  5  -75.8981551309       2.09D-03  -7.81D-06     3   1   1   0
      Virial theorem: -V/T =      1.999570
@    MULPOP   O      -0.60; H   _1  0.30; H   _2  0.30; 
 -----------------------------------------------------------------------------

   Ex-sr + Ec-sr                         -7.3492396185
 + EJsr = sr Coulomb energy              27.8947755655
 = Total E(srDFT)                        20.5455359470


 Corrections needed for correct CI energy evaluation:
 - 0.5 Tr(Vxc-sr Dcore)                   5.0783024358
 -     Tr(Vxc-sr Dval)                    0.0000000000
 - 0.5 Tr( (Jsr+HFXFAC*Ksr) Dval )        0.0000000000
   6  Screening settings (-IFTHRS, JTDIIS, DIFDEN, times)   -8    6    F  4.46D-02  4.50D-02
@  6  -75.8981557841       5.41D-04  -6.53D-07     3   1   1   0
      Virial theorem: -V/T =      1.999546
@    MULPOP   O      -0.60; H   _1  0.30; H   _2  0.30; 
 -----------------------------------------------------------------------------

   Ex-sr + Ec-sr                         -7.3492339388
 + EJsr = sr Coulomb energy              27.8946116084
 = Total E(srDFT)                        20.5453776697


 Corrections needed for correct CI energy evaluation:
 - 0.5 Tr(Vxc-sr Dcore)                   5.0782980828
 -     Tr(Vxc-sr Dval)                    0.0000000000
 - 0.5 Tr( (Jsr+HFXFAC*Ksr) Dval )        0.0000000000
   7  Screening settings (-IFTHRS, JTDIIS, DIFDEN, times)   -8    7    F  5.46D-02  5.50D-02
@  7  -75.8981558420       4.16D-05  -5.80D-08     3   1   1   0

@ *** DIIS converged in   7 iterations !
@     Converged SCF energy, gradient:    -75.898155842034    4.16D-05
    - total time used in SIRFCK :              0.00 seconds

 --- Writing SIRIFC interface file

 CPU and wall time for SCF :       0.881       0.902


WARNING - DFT spin density is not implemented in MP2 module and is ignored.


 ----- Output from SIRIUS MP2 module -----

 Reference: H.J.Aa.Jensen, P.Jørgensen, H.Ågren, and J.Olsen,
            J. Chem. Phys. 88, 3834 (1988); 89, 5354 (1988)

 Checking that the closed shell orbitals are canonical Hartree-Fock orbitals

    Number of electrons  :   10
    Closed shell orbitals:    3    1    1    0

 Generating Fock matrix

   Ex-sr + Ec-sr                         -7.3492339388
 + EJsr = sr Coulomb energy              27.8946116084
 = Total E(srDFT)                        20.5453776697


 Corrections needed for correct CI energy evaluation:
 - 0.5 Tr(Vxc-sr Dcore)                   5.0782980828
 -     Tr(Vxc-sr Dval)                    0.0000000000
 - 0.5 Tr( (Jsr+HFXFAC*Ksr) Dval )        0.0000000000

 Hartree-Fock electronic energy:         -84.991208619543
 Hartree-Fock total      energy:         -75.898155842034

 Hartree-Fock orbital energies, symmetry 1 ( A1 ),    3 occupied SCF orbitals

       -18.83349545    -1.11465947    -0.42597849     0.45647942

 Hartree-Fock orbital energies, symmetry 2 ( B1 ),    1 occupied SCF orbitals

        -0.36424549

 Hartree-Fock orbital energies, symmetry 3 ( B2 ),    1 occupied SCF orbitals

        -0.61533981     0.53213065

    E(LUMO) :     0.45647942   (in symmetry 1)
  - E(HOMO) :    -0.36424549   (in symmetry 2)
  --------------------------
    gap     :     0.82072491

---> (Re)generating AOTWOINT
---> and (re)generating AOSR2INT


     ************************************************************************
     ************************** Output from HERINT **************************
     ************************************************************************


 Threshold for neglecting two-electron integrals:  1.00D-12
 HERMIT - Number of two-electron integrals written:         138 ( 34.0% )
 HERMIT - Megabytes written:                              0.007


 Threshold for neglecting two-electron integrals:  1.00D-12
 HERMIT - Number of two-electron integrals written:         138 ( 34.0% )
 HERMIT - Megabytes written:                              0.007


 2-el. integral transformation level 5: Total CPU and WALL times (sec)       0.002       0.005

 MP2 move   0.000505 electrons to unoccupied HF orbitals


@   Short-range Hartree-Fock total energy        :           -75.8981558420
@   + MP2 contribution from long-range integrals :            -0.0005454956
@   = short-range MP2 second order energy        :           -75.8987013376

 *******************************************************
 MP2-SRDFT natural orbitals: Short-range self-consistent
 contributions are NOT taken into account.
 *******************************************************

 Natural orbital occupation numbers, symmetry 1 (irrep A1 )
 Sum =     6.00004105; RHF =     6.00000000; Difference =     0.00004105

         2.00000000     1.99998928     1.99980649     0.00024529

 Natural orbital occupation numbers, symmetry 2 (irrep B1 )
 Sum =     1.99999992; RHF =     2.00000000; Difference =    -0.00000008

         1.99999992

 Natural orbital occupation numbers, symmetry 3 (irrep B2 )
 Sum =     1.99995903; RHF =     2.00000000; Difference =    -0.00004097

         1.99969927     0.00025977

 Time used for MP2 natural orbitals :       0.069 CPU seconds,       0.072 wall seconds.

 CPU and wall time for MP2 :       0.069       0.072


        SIRIUS MC-srDFT optimization (SIROPT)
 ================================================


 Fock matrix screening setting for SIRCNO: IFTHRS =    9

INFO : spin density ignored in initial CI iterations.


 ----- Output from SIRIUS CI module (CICTL) -----




 2-el. integral transformation level 0: Total CPU and WALL times (sec)       0.000       0.001


 --- SIRCI.CIST1: plus combination of all degenerate
                 configurations is used as start vectors.


 (CIST1) 2 lowest diagonal elements:

 Element no. Config.no.    Active energy      Total energy

         1 :          1     -7.3750238776    -96.4422467839
         2 :          2     -5.2022116056    -94.2694345119


 Convergence threshold for CI optimization :     0.00000500


 The requested root number is now converged.


 *** CI converged in  2 iterations.


SR 0-el. energy for input .STATE    1
-------------------------------------

   SR core    Hartree energy   :          21.566748591303
 - SR valence Hartree energy   :          -0.651010863343
 + SR Exchange-correlation     :          -7.349121091655
 - SR Exchange-correlation pot.:           1.003998049072

 = Total eff. SR 0-el. energy  :          14.570614685377

CI-DFT energy for state no.    1
-------------------------------------

 SR eff. 1-el. energy          :           5.973476490453
 SR total Hartree energy       :          27.893212267485
 SR eff. total DFT energy      :          20.544091175830
 LR total CI  energy           :         -96.442312336693

 Total CI-DFT energy           :         -75.898221160863

 Decomposition of the auxiliary CI-srDFT energy:
 ELRCI        :         -96.442312336693
 EMYDFTAUX    :          39.389269463094
 ESRDV        :           5.973476490453
 POTNUC       :           9.093052777509
 

 Auxiliary CI-srDFT energy for root 1:       -60.172619160655


@ Final CI energies and residuals in symmetry 1 (irrep A1 )
@    1      -75.898221160862917       4.36D-15

   --- OUTPUT FROM SIRCNO     Keyword = FD+NO 


   Ex-sr + Ec-sr                         -7.3491168449
 + EJsr = sr Coulomb energy              27.8931724710
 = Total E(srDFT)                        20.5440556262


 Corrections needed for correct CI energy evaluation:
 - 0.5 Tr(Vxc-sr Dcore)                   4.5823430364
 -     Tr(Vxc-sr Dval)                    0.9917473182
 - 0.5 Tr( (Jsr+HFXFAC*Ksr) Dval )       -3.4887097534


 --- MACRO ITERATION  1 ---
 --------------------------

 2-el. integral transformation level 3: Total CPU and WALL times (sec)       0.001       0.001

 Fock matrix screening setting for this macro iteration: 10^( -9)

   Ex-sr + Ec-sr                         -7.3491168449
 + EJsr = sr Coulomb energy              27.8931724710
 = Total E(srDFT)                        20.5440556262


 Corrections needed for correct CI energy evaluation:
 - 0.5 Tr(Vxc-sr Dcore)                   4.5823430364
 -     Tr(Vxc-sr Dval)                    0.9917473182
 - 0.5 Tr( (Jsr+HFXFAC*Ksr) Dval )       -3.4887097534

 Total MC-srDFT energy    :           -75.898220819587721  (MACRO    1)

 - Nuclear repulsion      :             9.093052777509254
 - Inactive energy        :           -78.338156002577222
 - Active energy          :            -1.389381350839940
 - srDFT effective energy :            -5.263736243679814

 Norm of total gradient   :             0.001431373638
 -    of CI gradient      :             0.000099947721
 -    of orbital gradient :             0.001427879878
      Virial theorem: -V/T =      1.999547
@    MULPOP   O      -0.60; H   _1  0.30; H   _2  0.30; 

 Residual norm when dim(red L) =   8
 NEO root     CSF        orbital          total
    1     0.00000000     0.00000000     0.00000000 converged

 (NEONEX) NEO vector is converged.

   --- OUTPUT FROM SIRCNO     Keyword = FD+NO 


   Ex-sr + Ec-sr                         -7.3492094265
 + EJsr = sr Coulomb energy              27.8942971622
 = Total E(srDFT)                        20.5450877357


 Corrections needed for correct CI energy evaluation:
 - 0.5 Tr(Vxc-sr Dcore)                   4.5526934916
 -     Tr(Vxc-sr Dval)                    1.0511746093
 - 0.5 Tr( (Jsr+HFXFAC*Ksr) Dval )       -3.6879494065


 --- MACRO ITERATION  2 ---
 --------------------------

 2-el. integral transformation level 3: Total CPU and WALL times (sec)       0.001       0.002

 Fock matrix screening setting for this macro iteration: 10^( -9)

   Ex-sr + Ec-sr                         -7.3492094265
 + EJsr = sr Coulomb energy              27.8942971622
 = Total E(srDFT)                        20.5450877357


 Corrections needed for correct CI energy evaluation:
 - 0.5 Tr(Vxc-sr Dcore)                   4.5526934916
 -     Tr(Vxc-sr Dval)                    1.0511746093
 - 0.5 Tr( (Jsr+HFXFAC*Ksr) Dval )       -3.6879494065

 Total MC-srDFT energy    :           -75.898225590665206  (MACRO    2)

 - Nuclear repulsion      :             9.093052777509254
 - Inactive energy        :           -78.307443554220242
 - Active energy          :            -1.250544081822419
 - srDFT effective energy :            -5.433290732131798

 Norm of total gradient   :             0.001380070650
 -    of CI gradient      :             0.001379582265
 -    of orbital gradient :             0.000036712044
      Virial theorem: -V/T =      1.999542
@    MULPOP   O      -0.60; H   _1  0.30; H   _2  0.30; 

 Residual norm when dim(red L) =   8
 NEO root     CSF        orbital          total
    1     0.00000000     0.00000000     0.00000000 converged

 (NEONEX) NEO vector is converged.

   --- OUTPUT FROM SIRCNO     Keyword = FD+NO 


   Ex-sr + Ec-sr                         -7.3492148739
 + EJsr = sr Coulomb energy              27.8943515046
 = Total E(srDFT)                        20.5451366308


 Corrections needed for correct CI energy evaluation:
 - 0.5 Tr(Vxc-sr Dcore)                   4.5591841344
 -     Tr(Vxc-sr Dval)                    1.0382008386
 - 0.5 Tr( (Jsr+HFXFAC*Ksr) Dval )       -3.6467024275


 --- MACRO ITERATION  3 ---
 --------------------------

 2-el. integral transformation level 3: Total CPU and WALL times (sec)       0.001       0.002

 Fock matrix screening setting for this macro iteration: 10^( -9)

   Ex-sr + Ec-sr                         -7.3492148739
 + EJsr = sr Coulomb energy              27.8943515046
 = Total E(srDFT)                        20.5451366308


 Corrections needed for correct CI energy evaluation:
 - 0.5 Tr(Vxc-sr Dcore)                   4.5591841344
 -     Tr(Vxc-sr Dval)                    1.0382008386
 - 0.5 Tr( (Jsr+HFXFAC*Ksr) Dval )       -3.6467024275

 Total MC-srDFT energy    :           -75.898226378003358  (MACRO    3)

 - Nuclear repulsion      :             9.093052777509254
 - Inactive energy        :           -78.325329806394492
 - Active energy          :            -1.267417020808722
 - srDFT effective energy :            -5.398532328309398

 Norm of total gradient   :             0.000050889806
 -    of CI gradient      :             0.000050837882
 -    of orbital gradient :             0.000002298285
      Virial theorem: -V/T =      1.999542
@    MULPOP   O      -0.60; H   _1  0.30; H   _2  0.30; 

 Residual norm when dim(red L) =   6
 NEO root     CSF        orbital          total
    1     0.00000000     0.00000555     0.00000555 converged

 (NEONEX) NEO vector is converged.

   --- OUTPUT FROM SIRCNO     Keyword = FD+NO 


   Ex-sr + Ec-sr                         -7.3492151190
 + EJsr = sr Coulomb energy              27.8943525836
 = Total E(srDFT)                        20.5451374646


 Corrections needed for correct CI energy evaluation:
 - 0.5 Tr(Vxc-sr Dcore)                   4.5598191471
 -     Tr(Vxc-sr Dval)                    1.0369311409
 - 0.5 Tr( (Jsr+HFXFAC*Ksr) Dval )       -3.6426528712


 --- MACRO ITERATION  4 ---
 --------------------------

 2-el. integral transformation level 3: Total CPU and WALL times (sec)       0.001       0.002

 Fock matrix screening setting for this macro iteration: 10^( -9)

   Ex-sr + Ec-sr                         -7.3492151190
 + EJsr = sr Coulomb energy              27.8943525836
 = Total E(srDFT)                        20.5451374646


 Corrections needed for correct CI energy evaluation:
 - 0.5 Tr(Vxc-sr Dcore)                   4.5598191471
 -     Tr(Vxc-sr Dval)                    1.0369311409
 - 0.5 Tr( (Jsr+HFXFAC*Ksr) Dval )       -3.6426528712

 Total MC-srDFT energy    :           -75.898226381943417  (MACRO    4)

 - Nuclear repulsion      :             9.093052777509254
 - Inactive energy        :           -78.326770574762605
 - Active energy          :            -1.269390882467127
 - srDFT effective energy :            -5.395117702222952

 Norm of total gradient   :             0.000005570578
 -    of CI gradient      :             0.000000554992
 -    of orbital gradient :             0.000005542863
      Virial theorem: -V/T =      1.999542
@    MULPOP   O      -0.60; H   _1  0.30; H   _2  0.30; 

 (SIRSTP) Energy difference;
 actual, predicted and ratio:  -0.000000003940059  -0.000000003925551    1.003696
 Close to convergence, ratio set to one.

 *** Optimization control: MC-srDFT converged ***
     Number of macro iterations used            4
     Number of micro iterations used           19
     Total number of CPU seconds used         1.69

 CPU and wall time for MCSCF :       1.693       1.706


                     .----------------------------------------.
                     | --- SIRIUS OPTIMIZATION STATISTICS --- |
                     `----------------------------------------'


 
     Date and time (Linux)  : Sun Feb 10 14:01:36 2019
     Host name              : s12p32.deic.sdu.dk                      


  ITER ITMIC     EMCSCF           GRDNRM        RATIO      STPLNG
 ---------------------------------------------------------------------
    1    7    -75.898220819588   0.0014313736  0.000000   0.2235843799
    2    7    -75.898225590665   0.0013800707  0.713243   0.0422243939
    3    5    -75.898226378003   0.0000508898  1.041431   0.0041746636
    4    0    -75.898226381943   0.0000055706  1.000000   0.0000000000


  ITER  INDGCM  GCIMAX      GCINRM     INDGOM  GOBMAX      GOBNRM      GRDNRM
 ------------------------------------------------------------------------------
    1      2   -0.000100    0.000100      6    0.001256    0.001428    0.001431
    2      2   -0.001380    0.001380      4    0.000025    0.000037    0.001380
    3      2   -0.000051    0.000051      2    0.000002    0.000002    0.000051
    4      2   -0.000001    0.000001      4   -0.000004    0.000006    0.000006


  ITER ITMIC NCLIN NOLIN   TIMMAC    TIMITR    TIMMIC    TIMLIN    TIMMIC/ITMIC
 ------------------------------------------------------------------------------

    1     7     1     6      0.63      0.00      0.57      0.52      0.08
    2     7     1     6      0.55      0.00      0.50      0.45      0.07
    3     5     1     4      0.39      0.00      0.34      0.30      0.07
    4     0     0     0      0.05      0.00      0.00      0.00


 ITER         EMY                 EACTIV              EMCSCF

    1    -83.601892246257     -1.389381350840    -75.898220819588
    2    -83.740734286352     -1.250544081822    -75.898225590665
    3    -83.723862134704     -1.267417020809    -75.898226378003
    4    -83.721888276986     -1.269390882467    -75.898226381943


 ITER         DEPRED              DEACT               RATIO

    1      0.000000000000      0.000000000000      0.000000000000
    2     -0.000006689275     -0.000004771077      0.713242878896
    3     -0.000000756016     -0.000000787338      1.041430684771
    4     -0.000000003926     -0.000000003940      1.000000000000


 ITER    BETA           GAMMA             STPLNG              RTRUST

    1      0.20000000  1.00000000      0.223584379861      0.700000000000
    2      0.20000000  1.00000000      0.042224393934      0.700000000000
    3      0.20000000  1.00000000      0.004174663592      0.700000000000
    4      0.00000000  0.00000000      0.000000000000      0.700000000000


 Reduced L root no.  1
 ITER         EVAL              EVEC(1)           EVEC(2)           EVEC(3)
 ----------------------------------------------------------------------------
    1   -0.000000534074    0.999001697406   -0.044200896937   -0.005987931954
    2   -0.000000060477    0.999964343918   -0.000108376035   -0.008260869833
    3   -0.000000000314    0.999999651444   -0.000004884705   -0.000802666805
    4    0.000000000000    0.000000000000    0.000000000000    0.000000000000


                       .-----------------------------------.
                       | --- Final results from SIRIUS --- |
                       `-----------------------------------'


@    Spin multiplicity:           1
@    Spatial symmetry:            1 ( irrep  A1  in C2v )
@    Total charge of molecule:    0
@    State number:                1

@    Final MC-SRDFT energy:       -75.898226381943                 
@    Nuclear repulsion:             9.093052777509
@    Electronic energy:           -84.991279159453

@    Final gradient norm:           0.000005570578

 
     Date and time (Linux)  : Sun Feb 10 14:01:36 2019
     Host name              : s12p32.deic.sdu.dk                      

 Occupancies of natural orbitals
 -------------------------------

 Symmetry 1  ( A1 ) -- Total occupation in this symmetry is   5.999891297

   2.000000000   2.000000000   1.999891297

 Symmetry 2  ( B1 ) -- Total occupation in this symmetry is   2.000000000

   2.000000000

 Symmetry 3  ( B2 ) -- Total occupation in this symmetry is   2.000108703

   2.000000000   0.000108703

 Symmetry 4  ( A2 ) -- No occupied orbitals

File label for MO orbitals:  10Feb19   (CNOORB)

 (Only coefficients > 0.0100 are printed.)

 Molecular orbitals for symmetry species 1  (A1 )
 ------------------------------------------------

    Orbital         1        2        3        4
   1 O   :1s     0.9900  -0.2306   0.0580   0.1299
   2 O   :1s     0.0495   0.8767  -0.3840  -0.9197
   3 O   :2pz    0.0156   0.0494   0.8273  -0.7300
   4 H   :1s    -0.0120   0.1313   0.2336   0.8397

 Molecular orbitals for symmetry species 2  (B1 )
 ------------------------------------------------

    Orbital         1
   1 O   :2px    1.0000

 Molecular orbitals for symmetry species 3  (B2 )
 ------------------------------------------------

    Orbital         1        2
   1 O   :2py    0.6573  -1.0035
   2 H   :1s     0.3822   0.8896

 Printout of CI-coefficients abs greater than 0.05000 for root  1
 *** NOTE: this root is the reference state ***


  Printout of coefficients in interval   0.3162E+00 to  0.1000E+01
  ==============================================================

 Coefficient of determinant         1 is      0.99997282  9.99972824E-01
 alpha-string:  1
  beta-string:  1


  Printout of coefficients in interval   0.1000E+00 to  0.3162E+00
  ==============================================================
   ( no coefficients )


  Printout of coefficients in interval   0.5000E-01 to  0.1000E+00
  ==============================================================
   ( no coefficients )

 Norm of printed part of CI vector ..      0.99994565

  Magnitude of CI coefficients
  ============================

  ( Ranges are relative to norm of vector :  1.00E+00 )

  10- 1 to 10- 0         1    0.99994565E+00    0.99994565E+00
  10- 3 to 10- 2         1    0.54351580E-04    0.10000000E+01
  Number of coefficients less than 10^-11 times norm is             0

  Total CPU  time used in SIRIUS :   2.65 seconds
  Total wall time used in SIRIUS :   2.69 seconds

 
     Date and time (Linux)  : Sun Feb 10 14:01:36 2019
     Host name              : s12p32.deic.sdu.dk                      

 NOTE:    1 warnings have been issued.
 Check output, result, and error files for "WARNING".


                     .---------------------------------------.
                     | End of Wave Function Section (SIRIUS) |
                     `---------------------------------------'



                 .------------------------------------------------.
                 | Starting in Dynamic Property Section (RESPONS) |
                 `------------------------------------------------'


 ----------------------------------------------------------------------------------------
  RESPONSE  -  an MCSCF, MC-srDFT, DFT, SOPPA and SOPPA-srDFT response property program
 ----------------------------------------------------------------------------------------

srDFT INFO: DFT_SPINDNS set to false for singlet reference.


 -------- OUTPUT FROM RESPONSE INPUT PROCESSING --------




  Linear Response single residue calculation
 -------------------------------------------


    3 input options by user.

 Print level                                    : IPRPP  =   2
 Maximum number of iterations for eigenval.eqs. : MAXITP =  60
 Threshold for convergence of eigenvalue eqs.   : THCPP  = 1.000D-03
 Maximum iterations in optimal orbital algorithm: MAXITO =   5

      1 Excitation energies are calculated for symmetry no.    2

 TRACTL_1: Integral transformation abandoned,
 the required MO integrals are already available.

 2-el. integral transformation level 3: Total CPU and WALL times (sec)       0.000       0.000

 Sorting integrals to Dirac format: Total CPU and WALL times (sec)       0.000       0.001


 MCSCF energy         :      -75.898226381943417
 -- inactive part     :      -83.721888276985553
 --   active part     :       -1.269390882467127
 -- nuclear repulsion :        9.093052777509254


                      *************************************
                      *** MC-srDFT response calculation ***
                      *************************************

 ----------------------------------------------------------------
 ----- Linear response calculation
 ----- Symmetry of excitation/property operator(s)    2  ( B1 )
 ----------------------------------------------------------------

 Number of excitations of this symmetry            1
 Number of response properties of this symmetry    0
 Number of C6/C8 properties of this symmetry       0


 Perturbation symmetry.     KSYMOP:           2
 Perturbation spin symmetry.TRPLET:           T
 Orbital variables.         KZWOPT:           2
 Configuration variables.   KZCONF:           0
 Total number of variables. KZVAR :           2



 --- EXCITATION ENERGIES AND TRANSITION MOMENT CALCULATION (MCTDHF) ---

 Operator symmetry = 2  ( B1 ); triplet =   T


 ** RSPCTL MICROITERATION NUMBER    1

      Root  Residual tot.,    conf., and orb.    Bnorm      Eigenvalue
      ----------------------------------------------------------------
         1    1.59029D-04  0.00D+00  1.59D-04  7.08D-01    4.40304D-01

 *** THE REQUESTED    1 SOLUTION VECTORS CONVERGED

 Convergence of RSP solution vectors, threshold = 1.00D-03
 ---------------------------------------------------------------
 (dimension of paired reduced space:    2)
 RSP solution vector no.    1; norm of residual   2.25D-04

 *** RSPCTL MICROITERATIONS CONVERGED


 **************************************************************************************
 *** @ Excit. operator sym 2 & ref. state sym 1 => excited state symmetry 2  ( B1 ) ***
 **************************************************************************************



 @ Excited state no:    1 in symmetry 2  ( B1 ) - triplet excitation
 -------------------------------------------------------------------

@ Excitation energy :  0.44030357     au
@                       11.981269     eV;   96635.462     cm-1;   1156.0168     kJ / mol

@ Total energy :       -75.457923     au

 Eigenvector for state no.  1

     Response orbital operator symmetry = 2
     (only scaled elements abs greater than   10.00 % of max abs value)

      Index(r,s)      r      s        (r s) operator      (s r) operator      (r s) scaled        (s r) scaled
      ----------    -----  -----      --------------      --------------      --------------      --------------
           2         5(2)   4(1)       -0.7075441621        0.0248745112       -1.0006185500        0.0351778711

        1 elements with absolute value ≤ 1.00D-01 not printed.

 The numbers in parenthesis give the orbital symmetry.

     Configuration operator symmetry = 2
     >> NO ELEMENTS <<


 Time used in polarization propagator calculation is      0.05 CPU seconds for symmetry 2

  Total CPU  time used in RESPONSE:   0.05 seconds
  Total wall time used in RESPONSE:   0.06 seconds


                   .-------------------------------------------.
                   | End of Dynamic Property Section (RESPONS) |
                   `-------------------------------------------'

  Total CPU  time used in DALTON:   2.73 seconds
  Total wall time used in DALTON:   2.78 seconds

 
     Date and time (Linux)  : Sun Feb 10 14:01:37 2019
     Host name              : s12p32.deic.sdu.dk                      
