

     ************************************************************************
     *************** Dalton - An Electronic Structure Program ***************
     ************************************************************************

    This is output from DALTON 2013.2
   ----------------------------------------------------------------------------
    NOTE:
     
    Dalton is an experimental code for the evaluation of molecular
    properties using (MC)SCF, DFT, CI, and CC wave functions.
    The authors accept no responsibility for the performance of
    the code or for the correctness of the results.
     
    The code (in whole or part) is provided under a licence and
    is not to be reproduced for further distribution without
    the written permission of the authors or their representatives.
     
    See the home page "http://daltonprogram.org" for further information.
     
    If results obtained with this code are published,
    the appropriate citations would be both of:
     
       K. Aidas, C. Angeli, K. L. Bak, V. Bakken, R. Bast,
       L. Boman, O. Christiansen, R. Cimiraglia, S. Coriani,
       P. Dahle, E. K. Dalskov, U. Ekstroem, T. Enevoldsen,
       J. J. Eriksen, P. Ettenhuber, B. Fernandez, L. Ferrighi,
       H. Fliegl, L. Frediani, K. Hald, A. Halkier, C. Haettig,
       H. Heiberg, T. Helgaker, A. C. Hennum, H. Hettema,
       E. Hjertenaes, S. Hoest, I.-M. Hoeyvik, M. F. Iozzi,
       B. Jansik, H. J. Aa. Jensen, D. Jonsson, P. Joergensen,
       J. Kauczor, S. Kirpekar, T. Kjaergaard, W. Klopper,
       S. Knecht, R. Kobayashi, H. Koch, J. Kongsted, A. Krapp,
       K. Kristensen, A. Ligabue, O. B. Lutnaes, J. I. Melo,
       K. V. Mikkelsen, R. H. Myhre, C. Neiss, C. B. Nielsen,
       P. Norman, J. Olsen, J. M. H. Olsen, A. Osted,
       M. J. Packer, F. Pawlowski, T. B. Pedersen, P. F. Provasi,
       S. Reine, Z. Rinkevicius, T. A. Ruden, K. Ruud, V. Rybkin,
       P. Salek, C. C. M. Samson, A. Sanchez de Meras, T. Saue,
       S. P. A. Sauer, B. Schimmelpfennig, K. Sneskov,
       A. H. Steindal, K. O. Sylvester-Hvid, P. R. Taylor,
       A. M. Teale, E. I. Tellgren, D. P. Tew, A. J. Thorvaldsen,
       L. Thoegersen, O. Vahtras, M. A. Watson, D. J. D. Wilson,
       M. Ziolkowski and H. Agren,
       "The Dalton quantum chemistry program system",
       WIREs Comput. Mol. Sci. 2013. (doi: 10.1002/wcms.1172)
    
    and
    
       Dalton, a Molecular Electronic Structure Program,
       Release DALTON2013.2 (2013), see http://daltonprogram.org
   ----------------------------------------------------------------------------

    Authors in alphabetical order (major contribution(s) in parenthesis):

  Kestutis Aidas,           Vilnius University,           Lithuania   (QM/MM)
  Celestino Angeli,         University of Ferrara,        Italy       (NEVPT2)
  Keld L. Bak,              UNI-C,                        Denmark     (AOSOPPA, non-adiabatic coupling, magnetic properties)
  Vebjoern Bakken,          University of Oslo,           Norway      (DALTON; geometry optimizer, symmetry detection)
  Radovan Bast,             KTH Stockholm,                Sweden      (DALTON installation and execution frameworks)
  Linus Boman,              NTNU,                         Norway      (Cholesky decomposition and subsystems)
  Ove Christiansen,         Aarhus University,            Denmark     (CC module)
  Renzo Cimiraglia,         University of Ferrara,        Italy       (NEVPT2)
  Sonia Coriani,            University of Trieste,        Italy       (CC module, MCD in RESPONS)
  Paal Dahle,               University of Oslo,           Norway      (Parallelization)
  Erik K. Dalskov,          UNI-C,                        Denmark     (SOPPA)
  Thomas Enevoldsen,        Univ. of Southern Denmark,    Denmark     (SOPPA)
  Janus J. Eriksen,         Aarhus University,            Denmark     (PE-MP2/SOPPA, TDA)
  Berta Fernandez,          U. of Santiago de Compostela, Spain       (doublet spin, ESR in RESPONS)
  Lara Ferrighi,            Aarhus University,            Denmark     (PCM Cubic response)
  Heike Fliegl,             University of Oslo,           Norway      (CCSD(R12))
  Luca Frediani,            UiT The Arctic U. of Norway,  Norway      (PCM)
  Bin Gao,                  UiT The Arctic U. of Norway,  Norway      (Gen1Int library)
  Christof Haettig,         Ruhr-University Bochum,       Germany     (CC module)
  Kasper Hald,              Aarhus University,            Denmark     (CC module)
  Asger Halkier,            Aarhus University,            Denmark     (CC module)
  Hanne Heiberg,            University of Oslo,           Norway      (geometry analysis, selected one-electron integrals)
  Trygve Helgaker,          University of Oslo,           Norway      (DALTON; ABACUS, ERI, DFT modules, London, and much more)
  Alf Christian Hennum,     University of Oslo,           Norway      (Parity violation)
  Hinne Hettema,            University of Auckland,       New Zealand (quadratic response in RESPONS; SIRIUS supersymmetry)
  Eirik Hjertenaes,         NTNU,                         Norway      (Cholesky decomposition)
  Maria Francesca Iozzi,    University of Oslo,           Norway      (RPA)
  Brano Jansik              Technical Univ. of Ostrava    Czech Rep.  (DFT cubic response)
  Hans Joergen Aa. Jensen,  Univ. of Southern Denmark,    Denmark     (DALTON; SIRIUS, RESPONS, ABACUS modules, London, and much more)
  Dan Jonsson,              UiT The Arctic U. of Norway,  Norway      (cubic response in RESPONS module)
  Poul Joergensen,          Aarhus University,            Denmark     (RESPONS, ABACUS, and CC modules)
  Joanna Kauczor,           Linkoeping University,        Sweden      (Complex polarization propagator (CPP) module)
  Sheela Kirpekar,          Univ. of Southern Denmark,    Denmark     (Mass-velocity & Darwin integrals)
  Wim Klopper,              KIT Karlsruhe,                Germany     (R12 code in CC, SIRIUS, and ABACUS modules)
  Stefan Knecht,            ETH Zurich,                   Switzerland (Parallel CI and MCSCF)
  Rika Kobayashi,           Australian National Univ.,    Australia   (DIIS in CC, London in MCSCF)
  Henrik Koch,              NTNU,                         Norway      (CC module, Cholesky decomposition)
  Jacob Kongsted,           Univ. of Southern Denmark,    Denmark     (Polarizable embedding, QM/MM)
  Andrea Ligabue,           University of Modena,         Italy       (CTOCD, AOSOPPA)
  Ola B. Lutnaes,           University of Oslo,           Norway      (DFT Hessian)
  Juan I. Melo,             University of Buenos Aires,   Argentina   (LRESC, Relativistic Effects on NMR Shieldings)
  Kurt V. Mikkelsen,        University of Copenhagen,     Denmark     (MC-SCRF and QM/MM)
  Rolf H. Myhre,            NTNU,                         Norway      (Cholesky, subsystems and ECC2)
  Christian Neiss,          Univ. Erlangen-Nuernberg,     Germany     (CCSD(R12))
  Christian B. Nielsen,     University of Copenhagen,     Denmark     (QM/MM)
  Patrick Norman,           Linkoeping University,        Sweden      (Cubic response and complex response in RESPONS)
  Jeppe Olsen,              Aarhus University,            Denmark     (SIRIUS CI/density modules)
  Jogvan Magnus H. Olsen,   Univ. of Southern Denmark,    Denmark     (Polarizable embedding, PE library, QM/MM)
  Anders Osted,             Copenhagen University,        Denmark     (QM/MM)
  Martin J. Packer,         University of Sheffield,      UK          (SOPPA)
  Filip Pawlowski,          Kazimierz Wielki University,  Poland      (CC3)
  Thomas B. Pedersen,       University of Oslo,           Norway      (Cholesky decomposition)
  Patricio F. Provasi,      University of Northeastern,   Argentina   (Analysis of coupling constants in localized orbitals)
  Zilvinas Rinkevicius,     KTH Stockholm,                Sweden      (open-shell DFT, ESR)
  Elias Rudberg,            KTH Stockholm,                Sweden      (DFT grid and basis info)
  Torgeir A. Ruden,         University of Oslo,           Norway      (Numerical derivatives in ABACUS)
  Kenneth Ruud,             UiT The Arctic U. of Norway,  Norway      (DALTON; ABACUS magnetic properties and  much more)
  Pawel Salek,              KTH Stockholm,                Sweden      (DALTON; DFT code)
  Claire C. M. Samson       University of Karlsruhe       Germany     (Boys localization, r12 integrals in ERI)
  Alfredo Sanchez de Meras, University of Valencia,       Spain       (CC module, Cholesky decomposition)
  Trond Saue,               Paul Sabatier University,     France      (direct Fock matrix construction)
  Stephan P. A. Sauer,      University of Copenhagen,     Denmark     (SOPPA(CCSD), SOPPA prop., AOSOPPA, vibrational g-factors)
  Bernd Schimmelpfennig,    Forschungszentrum Karlsruhe,  Germany     (AMFI module)
  Kristian Sneskov,         Aarhus University,            Denmark     (QM/MM, PE-CC)
  Arnfinn H. Steindal,      UiT The Arctic U. of Norway,  Norway      (parallel QM/MM)
  K. O. Sylvester-Hvid,     University of Copenhagen,     Denmark     (MC-SCRF)
  Peter R. Taylor,          VLSCI/Univ. of Melbourne,     Australia   (Symmetry handling ABACUS, integral transformation)
  Andrew M. Teale,          University of Nottingham,     England     (DFT-AC, DFT-D)
  David P. Tew,             University of Bristol,        England     (CCSD(R12))
  Olav Vahtras,             KTH Stockholm,                Sweden      (triplet response, spin-orbit, ESR, TDDFT, open-shell DFT)
  David J. Wilson,          La Trobe University,          Australia   (DFT Hessian and DFT magnetizabilities)
  Hans Agren,               KTH Stockholm,                Sweden      (SIRIUS module, RESPONS, MC-SCRF solvation model)
 --------------------------------------------------------------------------------

     Date and time (Linux)  : Tue Mar 11 14:59:50 2014
     Host name              : donkey                                  

 * Work memory size             :    64000000 =  488.28 megabytes.

 * Directories for basis set searches:
   1) /home/bast/devel/dalton/runtest/DALTON/test/runtest_rsp_polar
   2) /home/bast/devel/dalton/runtest/build/basis


Compilation information
-----------------------

 Who compiled             | bast
 Host                     | donkey
 System                   | Linux-3.11.0-18-generic
 CMake generator          | Unix Makefiles
 Processor                | x86_64
 64-bit integers          | OFF
 MPI                      | OFF
 Fortran compiler         | /usr/bin/gfortran
 Fortran compiler version | GNU Fortran (Ubuntu/Linaro 4.6.3-1ubuntu5) 4.6.3
 C compiler               | /usr/bin/gcc
 C compiler version       | gcc (Ubuntu/Linaro 4.6.3-1ubuntu5) 4.6.3
 C++ compiler             | /usr/bin/g++
 C++ compiler version     | g++ (Ubuntu/Linaro 4.6.3-1ubuntu5) 4.6.3
 BLAS                     | -Wl,--start-group;/opt/intel/mkl/lib/intel64/libmk
                          | l_gf_lp64.so;/opt/intel/mkl/lib/intel64/libmkl_seq
                          | uential.so;/opt/intel/mkl/lib/intel64/libmkl_core.
                          | so;/usr/lib/x86_64-linux-gnu/libpthread.so;/usr/li
                          | b/x86_64-linux-gnu/libm.so;-fopenmp;-Wl,--end-grou
                          | p
 LAPACK                   | -Wl,--start-group;/opt/intel/mkl/lib/intel64/libmk
                          | l_lapack95_lp64.a;/opt/intel/mkl/lib/intel64/libmk
                          | l_gf_lp64.so;-fopenmp;-Wl,--end-group
 Static linking           | OFF
 Last Git revision        | 09775f511c2a05e42bd6bc99bfba3abdd0b3d119
 Git branch               | radovan/runtest
 Configuration time       | 2014-03-11 14:40:23.031786


   Content of the .dal input file
 ----------------------------------

**DALTON INPUT                                    
.RUN RESPONS                                      
**WAVE FUNCTIONS                                  
.HF                                               
.MP2                                              
.MCSCF                                            
*SCF INPUT                                        
.DOUBLY OCCUPIED                                  
 2 0 0 0                                          
*CONFIGURATION INPUT                              
.INACTIVE                                         
 1 0 0 0                                          
.ELECTRONS                                        
 2                                                
.CAS SPACE                                        
 2 0 0 0                                          
.SYMMET                                           
 1                                                
.SPIN MULT                                        
 1                                                
**RESPONS                                         
*LINEAR                                           
.DIPLEN                                           
.FREQUE                                           
 2                                                
0.00 0.03                                         
**END OF DALTON INPUT                             


   Content of the .mol file
 ----------------------------

BASIS                                                                          
4-31G                                                                          
Calculation of Polarizability                                                  
                                                                               
    2    2  X  Y    1 1.00D-12                                                 
        1.0   1                                                                
H           .0000000000             .0000000000            2.0969699107        
        3.0   1                                                                
Li          .0000000000             .0000000000            -.9969699107        


       *******************************************************************
       *********** Output from DALTON general input processing ***********
       *******************************************************************

 --------------------------------------------------------------------------------
   Overall default print level:    0
   Print level for DALTON.STAT:    1

    HERMIT 1- and 2-electron integral sections will be executed
    "Old" integral transformation used (limited to max 255 basis functions)
    Wave function sections will be executed (SIRIUS module)
    Dynamic molecular response properties section will be executed (RESPONSE module)
 --------------------------------------------------------------------------------


   ****************************************************************************
   *************** Output of molecule and basis set information ***************
   ****************************************************************************


    The two title cards from your ".mol" input:
    ------------------------------------------------------------------------
 1: Calculation of Polarizability                                           
 2:                                                                         
    ------------------------------------------------------------------------

  Atomic type no.    1
  --------------------
  Nuclear charge:   1.00000
  Number of symmetry independent centers:    1
  Number of basis sets to read;    2
  Basis set file used for this atomic type with Z =   1 :
     "/home/bast/devel/dalton/runtest/build/basis/4-31G"

  Atomic type no.    2
  --------------------
  Nuclear charge:   3.00000
  Number of symmetry independent centers:    1
  Number of basis sets to read;    2
  Basis set file used for this atomic type with Z =   3 :
     "/home/bast/devel/dalton/runtest/build/basis/4-31G"


                         SYMGRP: Point group information
                         -------------------------------

Point group: C2v

   * The point group was generated by:

      Reflection in the yz-plane
      Reflection in the xz-plane

   * Group multiplication table

        |  E   C2z  Oxz  Oyz
   -----+--------------------
     E  |  E   C2z  Oxz  Oyz
    C2z | C2z   E   Oyz  Oxz
    Oxz | Oxz  Oyz   E   C2z
    Oyz | Oyz  Oxz  C2z   E 

   * Character table

        |  E   C2z  Oxz  Oyz
   -----+--------------------
    A1  |   1    1    1    1
    B1  |   1   -1    1   -1
    B2  |   1   -1   -1    1
    A2  |   1    1   -1   -1

   * Direct product table

        | A1   B1   B2   A2 
   -----+--------------------
    A1  | A1   B1   B2   A2 
    B1  | B1   A1   A2   B2 
    B2  | B2   A2   A1   B1 
    A2  | A2   B2   B1   A1 


                                 Isotopic Masses
                                 ---------------

                           H           1.007825
                           Li          7.016005

                       Total mass:     8.023830 amu
                       Natural abundance:  92.486 %

 Center-of-mass coordinates (a.u.):    0.000000    0.000000   -0.608359


  Atoms and basis sets
  --------------------

  Number of atom types :    2
  Total number of atoms:    2

  Basis set used is "4-31G" from the basis set library.

  label    atoms   charge   prim   cont     basis
  ----------------------------------------------------------------------
  H           1    1.0000     4     2      [4s|2s]                                            
  Li          1    3.0000    17     9      [8s3p|3s2p]                                        
  ----------------------------------------------------------------------
  total:      2    4.0000    21    11
  ----------------------------------------------------------------------

  Threshold for neglecting AO integrals:  1.10D-11


  Cartesian Coordinates (a.u.)
  ----------------------------

  Total number of coordinates:    6
  H       :     1  x   0.0000000000    2  y   0.0000000000    3  z   2.0969699107
  Li      :     4  x   0.0000000000    5  y   0.0000000000    6  z  -0.9969699107


  Symmetry Coordinates
  --------------------

  Number of coordinates in each symmetry:     2    2    2    0

  Symmetry  A1  ( 1)

    1   H     z    3
    2   Li    z    6

  Symmetry  B1  ( 2)

    3   H     x    1
    4   Li    x    4

  Symmetry  B2  ( 3)

    5   H     y    2
    6   Li    y    5


   Interatomic separations (in Angstrom):
   --------------------------------------

            H           Li    
            ------      ------
 H     :    0.000000
 Li    :    1.637242    0.000000


  Max    interatomic separation is    1.6372 Angstrom (    3.0939 Bohr)
  between atoms    2 and    1, "Li    " and "H     ".

  Min HX interatomic separation is    1.6372 Angstrom (    3.0939 Bohr)


  Bond distances (Angstrom):
  --------------------------

                  atom 1     atom 2       distance
                  ------     ------       --------
  bond distance:  Li         H            1.637242




 Principal moments of inertia (u*A**2) and principal axes
 --------------------------------------------------------

   IA       0.000000          0.000000    0.000000    1.000000
   IB       2.362214          0.000000    1.000000    0.000000
   IC       2.362214          1.000000    0.000000    0.000000


 Rotational constants
 --------------------

 The molecule is linear.

               B =       213942.91 MHz     (    7.136367 cm-1)


@  Nuclear repulsion energy :    0.969637476220 Hartree


  Symmetry Orbitals
  -----------------

  Number of orbitals in each symmetry:           7    2    2    0


  Symmetry  A1 ( 1)

    1     H        1s         1
    2     H        1s         2
    3     Li       1s         3
    4     Li       1s         4
    5     Li       1s         5
    6     Li       2pz        8
    7     Li       2pz       11


  Symmetry  B1 ( 2)

    8     Li       2px        6
    9     Li       2px        9


  Symmetry  B2 ( 3)

   10     Li       2py        7
   11     Li       2py       10


  No orbitals in symmetry  A2 ( 4)

  Symmetries of electric field:  B1 (2)  B2 (3)  A1 (1)

  Symmetries of magnetic field:  B2 (3)  B1 (2)  A2 (4)


                     .---------------------------------------.
                     | Starting in Integral Section (HERMIT) |
                     `---------------------------------------'



     ************************************************************************
     ************************** Output from HERINT **************************
     ************************************************************************


 Threshold for neglecting two-electron integrals:  1.10D-11
 Number of two-electron integrals written:         677 ( 30.6% )
 Megabytes written:                              0.014

 >>>> Total CPU  time used in HERMIT:   0.01 seconds
 >>>> Total wall time used in HERMIT:   0.01 seconds


                        .----------------------------------.
                        | End of Integral Section (HERMIT) |
                        `----------------------------------'



                   .--------------------------------------------.
                   | Starting in Wave Function Section (SIRIUS) |
                   `--------------------------------------------'


 *** Output from Huckel module :

     Using EWMO model:          T
     Using EHT  model:          F
     Number of Huckel orbitals each symmetry:    4    1    1    0

 EWMO - Energy Weighted Maximum Overlap - is a Huckel type method,
        which normally is better than Extended Huckel Theory.
 Reference: Linderberg and Ohrn, Propagators in Quantum Chemistry (Wiley, 1973)

 Huckel EWMO eigenvalues for symmetry :  1
           -2.482706      -0.579861      -0.170222      -0.071212

 Huckel EWMO eigenvalues for symmetry :  2
           -0.130000

 Huckel EWMO eigenvalues for symmetry :  3
           -0.130000

 **********************************************************************
 *SIRIUS* a direct, restricted step, second order MCSCF program       *
 **********************************************************************

 
     Date and time (Linux)  : Tue Mar 11 14:59:50 2014
     Host name              : donkey                                  

 Title lines from ".mol" input file:
     Calculation of Polarizability                                           
                                                                             

 Print level on unit LUPRI =   2 is   0
 Print level on unit LUW4  =   2 is   5

@    MC-SCF optimization.

@    Multi-configurational response calculation.
@              Type: complete active space calculation (CAS).

@    This is a combination run starting with
@              a restricted, closed shell Hartree-Fock calculation
@              an MP2 calculation


 Initial molecular orbitals are obtained according to
 ".MOSTART EWMO  " input option

     Wave function specification
     ============================
@    For the wave function of type :      >>> MC-SCF <<<
@    Number of closed shell electrons           2
@    Number of electrons in active shells       2
@    Total charge of the molecule               0

@    Spin multiplicity and 2 M_S                1         0
     Total number of symmetries                 4
@    Reference state symmetry                   1

     Orbital specifications
     ======================
     Abelian symmetry species          All |    1    2    3    4
                                       --- |  ---  ---  ---  ---
@    Inactive orbitals                   1 |    1    0    0    0
@    Active orbitals                     2 |    2    0    0    0
     Secondary orbitals                  8 |    4    2    2    0
     Total number of orbitals           11 |    7    2    2    0
     Number of basis functions          11 |    7    2    2    0

      -- Initial occupation of symmetries is determined from user input.                      
      -- Initial occupation of symmetries is :
@    Occupied SCF orbitals               2 |    2    0    0    0

     Optimization information
     ========================
@    Number of configurations                 3
@    Number of orbital rotations             14
     ------------------------------------------
@    Total number of variables               17

     Maximum number of macro iterations      25
     Maximum number of micro iterations     600
     Threshold for MCSCF gradient      1.00D-05
     Number of initial trial vectors          1
     Number of initial CI iterations          3
     Number of simultaneous trial vectors     1

@    This calculation converges to the lowest state for the specified symmetry and spin species.

     Maximum number of NEO/NR iterations  24


 *********************************************
 ***** DIIS optimization of Hartree-Fock *****
 *********************************************

 C1-DIIS algorithm; max error vectors =    8

 Iter      Total energy        Error norm    Delta(E)  DIIS dim.
 -----------------------------------------------------------------------------
     (Precalculated two-electron integrals are transformed to P-supermatrix elements.
      Threshold for discarding integrals :  1.10D-11 )
@  1    -7.92585683519        6.75335D-01   -7.93D+00    1
      Virial theorem: -V/T =      1.960277
@      MULPOP H      -0.60; Li      0.60; 
 -----------------------------------------------------------------------------
@  2    -7.97650037571        6.69843D-02   -5.06D-02    2
      Virial theorem: -V/T =      1.997440
@      MULPOP H      -0.30; Li      0.30; 
 -----------------------------------------------------------------------------
@  3    -7.97731210238        1.09623D-02   -8.12D-04    3
      Virial theorem: -V/T =      1.998928
@      MULPOP H      -0.27; Li      0.27; 
 -----------------------------------------------------------------------------
@  4    -7.97734917280        7.84473D-04   -3.71D-05    4
      Virial theorem: -V/T =      1.998683
@      MULPOP H      -0.26; Li      0.26; 
 -----------------------------------------------------------------------------
@  5    -7.97734936895        9.81695D-05   -1.96D-07    5
      Virial theorem: -V/T =      1.998653
@      MULPOP H      -0.26; Li      0.26; 
 -----------------------------------------------------------------------------
@  6    -7.97734937077        8.94821D-06   -1.82D-09    6
      Virial theorem: -V/T =      1.998655
@      MULPOP H      -0.26; Li      0.26; 
 -----------------------------------------------------------------------------
@  7    -7.97734937080        2.46118D-06   -3.37D-11    7
      Virial theorem: -V/T =      1.998655
@      MULPOP H      -0.26; Li      0.26; 
 -----------------------------------------------------------------------------
@  8    -7.97734937081        3.15098D-07   -4.01D-12    8

@ *** DIIS converged in   8 iterations !
@     Converged SCF energy, gradient:     -7.977349370807    3.15D-07
    - total time used in SIRFCK :              0.00 seconds

 >>> Writing SIRIFC interface file <<<

 >>>> CPU and wall time for SCF :       0.006       0.006


 >>>>> Output from SIRIUS MP2 module <<<<<

 Reference: H.J.Aa.Jensen, P.Jorgensen, H.Agren, and J.Olsen,
            J. Chem. Phys. 88, 3834 (1988); 89, 5354 (1988)

 Checking that the closed shell orbitals are canonical Hartree-Fock orbitals

    Number of electrons  :    4
    Closed shell orbitals:    2    0    0    0

 Generating Fock matrix

 Hartree-Fock electronic energy:          -8.946986847027
 Hartree-Fock total      energy:          -7.977349370807

 Hartree-Fock orbital energies, symmetry 1, number of occupied SCF orbitals is    2

        -2.45291982    -0.29767363     0.01313317     0.16283007     0.25338141
         0.38379109     1.31667102

 Hartree-Fock orbital energies, symmetry 2, number of occupied SCF orbitals is    0

         0.06583937     0.24949522

 Hartree-Fock orbital energies, symmetry 3, number of occupied SCF orbitals is    0

         0.06583937     0.24949522

    E(LUMO) :     0.01313317   (in symmetry 1)
  - E(HOMO) :    -0.29767363   (in symmetry 1)
  --------------------------
    gap     :     0.31080679

 Integral transformation: Total CPU and WALL times (sec)       0.001       0.001

 MP2 move   0.017338 electrons to unoccupied HF orbitals


@   Hartree-Fock total energy   :            -7.9773493708
@   + MP2 contribution          :            -0.0128433571
@   = MP2 second order energy   :            -7.9901927279

 Natural orbital occupation numbers, symmetry 1
 Sum =     3.99765310; RHF =     4.00000000; Difference =    -0.00234690

         1.99990165     1.98310543     0.01299482     0.00132079     0.00034188
         0.00002243    -0.00003391

 Natural orbital occupation numbers, symmetry 2
 Sum =     0.00117345; RHF =     0.00000000; Difference =     0.00117345

         0.00114884     0.00002461

 Natural orbital occupation numbers, symmetry 3
 Sum =     0.00117345; RHF =     0.00000000; Difference =     0.00117345

         0.00114884     0.00002461

 Time used for MP2 natural orbitals :       0.005 CPU seconds,       0.006 wall seconds.

 >>>> CPU and wall time for MP2 :       0.005       0.006


        SIRIUS MCSCF optimization (SIROPT)
 ================================================



 <<<<< Output from SIRIUS CI module (CICTL) >>>>>




 Integral transformation: Total CPU and WALL times (sec)       0.002       0.001

 (CIST1)  3 lowest diagonal elements:

 Element no. Config.no.    Active energy      Total energy

         1 :          1     -1.0688707592     -7.9772177113
         2 :          3     -0.6235796328     -7.5319265849
         3 :          2     -0.1372370473     -7.0455839995


 Convergence threshold for CI optimization :     0.00000500


 The requested root number is now converged.


 *** CI converged in  3 iterations.



 CI energies and residuals:
    1       -7.993704636276410       1.78D-15


 Final CI energy:       -7.993704636276410

   <<< OUTPUT FROM SIRCNO >>>    Keyword = FD+NO 


 Occupations of CAS natural orbitals:

 Symmetry  1

   1.965798709   0.034201291


 <<< MACRO ITERATION  1 >>>
 --------------------------

 Integral transformation: Total CPU and WALL times (sec)       0.001       0.001

 Total MCSCF energy       :            -7.993704636276411  (MACRO    1)

 - Nuclear repulsion      :             0.969637476220371
 - Inactive energy        :            -7.877984428353690
 - Active energy          :            -1.085357684143091

 Norm of total gradient   :             0.028391657090
 -    of CI gradient      :             0.000000000000
 -    of orbital gradient :             0.028391657090
      Virial theorem: -V/T =      1.997155
@      MULPOP H      -0.24; Li      0.24; 

 Residual norm when dim(red L) =   5
 NEO root     CSF        orbital          total
    1     0.00445679     0.00314979     0.00545749 converged

 (NEONEX) NEO vector is converged.

   <<< OUTPUT FROM SIRCNO >>>    Keyword = FD+NO 


 Occupations of CAS natural orbitals:

 Symmetry  1

   1.954667595   0.045332405


 <<< MACRO ITERATION  2 >>>
 --------------------------

 Integral transformation: Total CPU and WALL times (sec)       0.001       0.001

 Total MCSCF energy       :            -7.994068098671752  (MACRO    2)

 - Nuclear repulsion      :             0.969637476220371
 - Inactive energy        :            -7.879246720074622
 - Active energy          :            -1.084458854817500

 Norm of total gradient   :             0.012923007213
 -    of CI gradient      :             0.005980052629
 -    of orbital gradient :             0.011456137482
      Virial theorem: -V/T =      1.996253
@      MULPOP H      -0.19; Li      0.19; 

 Residual norm when dim(red L) =   6
 NEO root     CSF        orbital          total
    1     0.00000000     0.00090364     0.00090364 converged

 (NEONEX) NEO vector is converged.

   <<< OUTPUT FROM SIRCNO >>>    Keyword = FD+NO 


 Occupations of CAS natural orbitals:

 Symmetry  1

   1.957586550   0.042413450


 <<< MACRO ITERATION  3 >>>
 --------------------------

 Integral transformation: Total CPU and WALL times (sec)       0.001       0.001

 Total MCSCF energy       :            -7.994129887092912  (MACRO    3)

 - Nuclear repulsion      :             0.969637476220371
 - Inactive energy        :            -7.879204375988496
 - Active energy          :            -1.084562987324786

 Norm of total gradient   :             0.000878463477
 -    of CI gradient      :             0.000224253741
 -    of orbital gradient :             0.000849357604
      Virial theorem: -V/T =      1.996702
@      MULPOP H      -0.20; Li      0.20; 

 Residual norm when dim(red L) =   8
 NEO root     CSF        orbital          total
    1     0.00000000     0.00000553     0.00000553 converged

 (NEONEX) NEO vector is converged.

   <<< OUTPUT FROM SIRCNO >>>    Keyword = FD+NO 


 Occupations of CAS natural orbitals:

 Symmetry  1

   1.957943462   0.042056538


 <<< MACRO ITERATION  4 >>>
 --------------------------

 Integral transformation: Total CPU and WALL times (sec)       0.000       0.001

 Total MCSCF energy       :            -7.994130532674148  (MACRO    4)

 - Nuclear repulsion      :             0.969637476220371
 - Inactive energy        :            -7.879190130312008
 - Active energy          :            -1.084577878582510

 Norm of total gradient   :             0.000013256351
 -    of CI gradient      :             0.000005356703
 -    of orbital gradient :             0.000012125864
      Virial theorem: -V/T =      1.996707
@      MULPOP H      -0.20; Li      0.20; 

 Residual norm when dim(red L) =   4
 NEO root     CSF        orbital          total
    1     0.00000000     0.00000230     0.00000230 converged

 (NEONEX) NEO vector is converged.

   <<< OUTPUT FROM SIRCNO >>>    Keyword = FD+NO 


 Occupations of CAS natural orbitals:

 Symmetry  1

   1.957944307   0.042055693


 <<< MACRO ITERATION  5 >>>
 --------------------------

 Integral transformation: Total CPU and WALL times (sec)       0.003       0.001

 Total MCSCF energy       :            -7.994130532714302  (MACRO    5)

 - Nuclear repulsion      :             0.969637476220371
 - Inactive energy        :            -7.879189996589238
 - Active energy          :            -1.084578012345434

 Norm of total gradient   :             0.000002298172
 -    of CI gradient      :             0.000000000200
 -    of orbital gradient :             0.000002298172
      Virial theorem: -V/T =      1.996708
@      MULPOP H      -0.20; Li      0.20; 

 (SIRSTP) Close to convergence, ratio set to one.
 Energy difference; actual and predicted:   -4.01545D-11   -4.01557D-11

 (SIRSTP) Close to convergence, ratio set to one.
 Energy difference; actual and predicted:    9.99972D-01
 Close to convergence, ratio set to one.

 *** Optimization control: MCSCF converged ***
     Number of macro iterations used            5
     Number of micro iterations used           17
     Total number of CPU seconds used         0.02

 >>>> CPU and wall time for MCSCF :       0.020       0.018


                     .----------------------------------------.
                     | >>> SIRIUS OPTIMIZATION STATISTICS <<< |
                     `----------------------------------------'


 
     Date and time (Linux)  : Tue Mar 11 14:59:50 2014
     Host name              : donkey                                  


  ITER ITMIC     EMCSCF           GRDNRM        RATIO      STPLNG
 ---------------------------------------------------------------------
    1    4     -7.993704636276   0.0283916571  0.000000   0.1365635226
    2    4     -7.994068098672   0.0129230072  0.740014   0.0299004487
    3    7     -7.994129887093   0.0008784635  1.032047   0.0046463888
    4    2     -7.994130532674   0.0000132564  1.002577   0.0000222812
    5    0     -7.994130532714   0.0000022982  1.000000   0.0000000000


  ITER  INDGCM  GCIMAX      GCINRM     INDGOM  GOBMAX      GOBNRM      GRDNRM
 ------------------------------------------------------------------------------
    1      3    0.000000    0.000000     10   -0.026946    0.028392    0.028392
    2      3    0.005685    0.005980     10    0.009902    0.011456    0.012923
    3      2   -0.000185    0.000224      2    0.000579    0.000849    0.000878
    4      3    0.000005    0.000005     10    0.000010    0.000012    0.000013
    5      2   -0.000000    0.000000     10   -0.000002    0.000002    0.000002


  ITER ITMIC NCLIN NOLIN   TIMMAC    TIMITR    TIMMIC    TIMLIN    TIMMIC/ITMIC
 ------------------------------------------------------------------------------

    1     4     1     3      0.00      0.00      0.00      0.00      0.00
    2     4     2     3      0.00      0.00      0.00      0.00      0.00
    3     7     2     5      0.01      0.00      0.00      0.00      0.00
    4     2     2     1      0.00      0.00      0.00      0.00      0.00
    5     0     0     0      0.00      0.00      0.00      0.00


 ITER         EMY                 EACTIV              EMCSCF

    1     -7.877984428354     -1.085357684143     -7.993704636276
    2     -7.879246720075     -1.084458854818     -7.994068098672
    3     -7.879204375988     -1.084562987325     -7.994129887093
    4     -7.879190130312     -1.084577878583     -7.994130532674
    5     -7.879189996589     -1.084578012345     -7.994130532714


 ITER         DEPRED              DEACT               RATIO

    1      0.000000000000      0.000000000000      0.000000000000
    2     -0.000491156182     -0.000363462395      0.740013887300
    3     -0.000059869753     -0.000061788421      1.032047375590
    4     -0.000000643922     -0.000000645581      1.002576766518
    5     -0.000000000040     -0.000000000040      1.000000000000


 ITER    BETA           GAMMA             STPLNG              RTRUST

    1      0.20000000  1.00000000      0.136563522587      0.700000000000
    2      0.20000000  1.00000000      0.029900448748      0.700000000000
    3      0.20000000  1.00000000      0.004646388794      0.700000000000
    4      0.20000000  1.00000000      0.000022281223      0.700000000000
    5      0.00000000  0.00000000      0.000000000000      0.700000000000


 Reduced L root no.  1
 ITER         EVAL              EVEC(1)           EVEC(2)           EVEC(3)
 ----------------------------------------------------------------------------
    1   -0.000039263205    0.999627216641   -0.024440600665   -0.006084634320
    2   -0.000004789409    0.999982119743   -0.000523073770   -0.005817220046
    3   -0.000000051514    0.999999568222   -0.000867607530   -0.000241607044
    4   -0.000000000003    0.999999999990   -0.000000060932   -0.000004442157
    5    0.000000000000    0.000000000000    0.000000000000    0.000000000000


                       .-----------------------------------.
                       | >>> Final results from SIRIUS <<< |
                       `-----------------------------------'


@    Spin multiplicity:           1
@    Spatial symmetry:            1
@    Total charge of molecule:    0
@    State number:                1

@    Final MCSCF energy:           -7.994130532714                 
@    Nuclear repulsion:             0.969637476220
@    Electronic energy:            -8.963768008935

@    Final gradient norm:           0.000002298172

 
     Date and time (Linux)  : Tue Mar 11 14:59:50 2014
     Host name              : donkey                                  

 Occupancies of natural orbitals
 -------------------------------

 Symmetry  1 -- Total occupation in this symmetry is   4.000000000

   2.000000000   1.957944307   0.042055693

 Symmetry  2 -- No occupied orbitals

 Symmetry  3 -- No occupied orbitals

 Symmetry  4 -- No occupied orbitals

 (Only coefficients >0.0100 are printed.)

 Molecular orbitals for symmetry species  1
 ------------------------------------------

    Orbital         1        2        3        4        5
   1 H   :1s    -0.0022  -0.3003  -0.7048  -0.0393  -0.0008
   2 H   :1s    -0.0013  -0.4029  -0.4595  -0.4282  -0.4534
   3 Li  :1s    -0.9986   0.1361  -0.1091   0.1027  -0.0150
   4 Li  :1s    -0.0294  -0.1818   0.4545   0.1796  -1.2666
   5 Li  :1s     0.0155  -0.2332   0.5481  -0.3457   1.3206
   6 Li  :2pz    0.0087  -0.1997   0.3928   0.1040   1.5745
   7 Li  :2pz   -0.0053  -0.0225   0.1351   1.0214  -1.0566

 Molecular orbitals for symmetry species  2
 ------------------------------------------

    Orbital         1        2
   1 Li  :2px    0.0101  -1.7072
   2 Li  :2px    0.9918   1.3896

 Molecular orbitals for symmetry species  3
 ------------------------------------------

    Orbital         1        2
   1 Li  :2py    0.0101  -1.7072
   2 Li  :2py    0.9918   1.3896

 Printout of CI-coefficients abs greater than 0.05000 for root  1
 *** NOTE: this root is the reference state ***

 Printout of coefficients in interval  3.1623E-01 to  1.0000E+00
 ===============================================================

  Coefficient of CSF no.         1 is      0.98943022    9.89430217E-01
  Orbital          1
  Spin coupling    2

 Printout of coefficients in interval  1.0000E-01 to  3.1623E-01
 ===============================================================

  Coefficient of CSF no.         2 is     -0.14500982   -1.45009816E-01
  Orbital          2
  Spin coupling    2

 Printout of coefficients in interval  5.0000E-02 to  1.0000E-01
 ===============================================================
   ( no coefficients )

 Norm of printed CI vector ..      1.00000000

 Magnitude of CI coefficients
 ============================
 ( Ranges are relative to norm of vector :  1.00E+00 )

  10- 1 to 10- 0         2    0.10000000E+01      1.0000000000
  Number of coefficients less than 10^-11 times norm is            1



 >>>> Total CPU  time used in SIRIUS :      0.03 seconds
 >>>> Total wall time used in SIRIUS :      0.03 seconds

 
     Date and time (Linux)  : Tue Mar 11 14:59:50 2014
     Host name              : donkey                                  


                     .---------------------------------------.
                     | End of Wave Function Section (SIRIUS) |
                     `---------------------------------------'



                 .------------------------------------------------.
                 | Starting in Dynamic Property Section (RESPONS) |
                 `------------------------------------------------'


 ------------------------------------------------------------------------------
  RESPONSE  -  an MCSCF, MC-srDFT, DFT, and SOPPA response property program
 ------------------------------------------------------------------------------


 <<<<<<<<<< OUTPUT FROM RESPONSE INPUT PROCESSING >>>>>>>>>>




 Linear Response calculation
 ---------------------------

 Print level                                    : IPRLR  =   2
 Maximum number of iterations                   : MAXITL =  60
 Threshold for relative convergence             : THCLR  = 1.000D-03
 Maximum iterations in optimal orbital algorithm: MAXITO =   5

  2 B-frequencies  0.000000D+00  3.000000D-02

    1 second order properties calculated with symmetry no.    1 and labels:

          ZDIPLEN 

    1 second order properties calculated with symmetry no.    2 and labels:

          XDIPLEN 

    1 second order properties calculated with symmetry no.    3 and labels:

          YDIPLEN 

 Old direct access AO file found, SORTA skipped.

 Integral transformation: Total CPU and WALL times (sec)       0.001       0.001


 MCSCF energy         :       -7.994130532714302
 -- inactive part     :       -7.879189996589238
 --   active part     :       -1.084578012345434
 -- nuclear repulsion :        0.969637476220371


                        **********************************
                        *** MCSCF response calculation ***
                        **********************************



 >>>>>>>>>> Linear response calculation
 >>>>>>>>>> Symmetry of excitation/property operator(s)    1

 Number of excitations of this symmetry            0
 Number of response properties of this symmetry    1
 Number of C6/C8 properties of this symmetry       0


 Perturbation symmetry.     KSYMOP:       1
 Perturbation spin symmetry.TRPLET:       F
 Orbital variables.         KZWOPT:      14
 Configuration variables.   KZCONF:       3
 Total number of variables. KZVAR :      17


 RSPLR -- linear response calculation for symmetry  1
 RSPLR -- operator label : ZDIPLEN 
 RSPLR -- operator spin  :   0
 RSPLR -- frequencies :   0.000000  0.030000
 FREQ 2    0.0000000000000000       2.99999999999999989E-002



 <<<  SOLVING SETS OF LINEAR EQUATIONS FOR LINEAR RESPONSE PROPERTIES >>>

 Operator symmetry =  1; triplet =   F


 *** THE REQUESTED    2 SOLUTION VECTORS CONVERGED

 Convergence of RSP solution vectors, threshold = 1.00D-03
 ---------------------------------------------------------------
 (dimension of paired reduced space:   20)
 RSP solution vector no.    1; norm of residual   5.21D-04
 RSP solution vector no.    2; norm of residual   6.81D-04

 *** RSPCTL MICROITERATIONS CONVERGED


           Final output of second order properties from linear response
           ------------------------------------------------------------


@ Spin symmetry of operators: singlet

 Note that minus the linear response function: - << A; B >>(omega) is printed.
 The results are of quadratic accuracy using Sellers formula.

@ FREQUENCY INDEPENDENT SECOND ORDER PROPERTIES

@ -<< ZDIPLEN  ; ZDIPLEN  >> =  2.719657344767D+01

@ FREQUENCY DEPENDENT SECOND ORDER PROPERTIES WITH FREQUENCY :

@    a.u.:  3.0000000D-02
     cm-1:  6.5842389D+03
     e.V.:  8.1634153D-01
  kJ/mol.:  7.8764988D+01
     nm  :  1.5187784D+03

@ -<< ZDIPLEN  ; ZDIPLEN  >> =  2.852014346047D+01


 Time used in linear response calculation is      0.00 CPU seconds for symmetry 1


 >>>>>>>>>> Linear response calculation
 >>>>>>>>>> Symmetry of excitation/property operator(s)    2

 Number of excitations of this symmetry            0
 Number of response properties of this symmetry    1
 Number of C6/C8 properties of this symmetry       0


 Perturbation symmetry.     KSYMOP:       2
 Perturbation spin symmetry.TRPLET:       F
 Orbital variables.         KZWOPT:       6
 Configuration variables.   KZCONF:       0
 Total number of variables. KZVAR :       6


 RSPLR -- linear response calculation for symmetry  2
 RSPLR -- operator label : XDIPLEN 
 RSPLR -- operator spin  :   0
 RSPLR -- frequencies :   0.000000  0.030000
 FREQ 2    0.0000000000000000       2.99999999999999989E-002



 <<<  SOLVING SETS OF LINEAR EQUATIONS FOR LINEAR RESPONSE PROPERTIES >>>

 Operator symmetry =  2; triplet =   F


 *** THE REQUESTED    2 SOLUTION VECTORS CONVERGED

 Convergence of RSP solution vectors, threshold = 1.00D-03
 ---------------------------------------------------------------
 (dimension of paired reduced space:   12)
 RSP solution vector no.    1; norm of residual   9.82D-08
 RSP solution vector no.    2; norm of residual   9.83D-08

 *** RSPCTL MICROITERATIONS CONVERGED


           Final output of second order properties from linear response
           ------------------------------------------------------------


@ Spin symmetry of operators: singlet

 Note that minus the linear response function: - << A; B >>(omega) is printed.
 The results are of quadratic accuracy using Sellers formula.

@ FREQUENCY INDEPENDENT SECOND ORDER PROPERTIES

@ -<< XDIPLEN  ; XDIPLEN  >> =  3.201643912929D+01

@ FREQUENCY DEPENDENT SECOND ORDER PROPERTIES WITH FREQUENCY :

@    a.u.:  3.0000000D-02
     cm-1:  6.5842389D+03
     e.V.:  8.1634153D-01
  kJ/mol.:  7.8764988D+01
     nm  :  1.5187784D+03

@ -<< XDIPLEN  ; XDIPLEN  >> =  3.321285462883D+01


 Time used in linear response calculation is      0.00 CPU seconds for symmetry 2


 >>>>>>>>>> Linear response calculation
 >>>>>>>>>> Symmetry of excitation/property operator(s)    3

 Number of excitations of this symmetry            0
 Number of response properties of this symmetry    1
 Number of C6/C8 properties of this symmetry       0


 Perturbation symmetry.     KSYMOP:       3
 Perturbation spin symmetry.TRPLET:       F
 Orbital variables.         KZWOPT:       6
 Configuration variables.   KZCONF:       0
 Total number of variables. KZVAR :       6


 RSPLR -- linear response calculation for symmetry  3
 RSPLR -- operator label : YDIPLEN 
 RSPLR -- operator spin  :   0
 RSPLR -- frequencies :   0.000000  0.030000
 FREQ 2    0.0000000000000000       2.99999999999999989E-002



 <<<  SOLVING SETS OF LINEAR EQUATIONS FOR LINEAR RESPONSE PROPERTIES >>>

 Operator symmetry =  3; triplet =   F


 *** THE REQUESTED    2 SOLUTION VECTORS CONVERGED

 Convergence of RSP solution vectors, threshold = 1.00D-03
 ---------------------------------------------------------------
 (dimension of paired reduced space:   12)
 RSP solution vector no.    1; norm of residual   9.82D-08
 RSP solution vector no.    2; norm of residual   9.83D-08

 *** RSPCTL MICROITERATIONS CONVERGED


           Final output of second order properties from linear response
           ------------------------------------------------------------


@ Spin symmetry of operators: singlet

 Note that minus the linear response function: - << A; B >>(omega) is printed.
 The results are of quadratic accuracy using Sellers formula.

@ FREQUENCY INDEPENDENT SECOND ORDER PROPERTIES

@ -<< YDIPLEN  ; YDIPLEN  >> =  3.201643912929D+01

@ FREQUENCY DEPENDENT SECOND ORDER PROPERTIES WITH FREQUENCY :

@    a.u.:  3.0000000D-02
     cm-1:  6.5842389D+03
     e.V.:  8.1634153D-01
  kJ/mol.:  7.8764988D+01
     nm  :  1.5187784D+03

@ -<< YDIPLEN  ; YDIPLEN  >> =  3.321285462883D+01


 Time used in linear response calculation is      0.00 CPU seconds for symmetry 3

 >>>> Total CPU  time used in RESPONSE:   0.01 seconds
 >>>> Total wall time used in RESPONSE:   0.01 seconds


                   .-------------------------------------------.
                   | End of Dynamic Property Section (RESPONS) |
                   `-------------------------------------------'

 >>>> Total CPU  time used in DALTON:   0.06 seconds
 >>>> Total wall time used in DALTON:   0.06 seconds

 
     Date and time (Linux)  : Tue Mar 11 14:59:50 2014
     Host name              : donkey                                  
