

     ************************************************************************
     *************** Dalton - An Electronic Structure Program ***************
     ************************************************************************

    This is output from DALTON (Release Dalton2013 patch 0)
   ----------------------------------------------------------------------------
    NOTE:
     
    Dalton is an experimental code for the evaluation of molecular
    properties using (MC)SCF, DFT, CI, and CC wave functions.
    The authors accept no responsibility for the performance of
    the code or for the correctness of the results.
     
    The code (in whole or part) is provided under a licence and
    is not to be reproduced for further distribution without
    the written permission of the authors or their representatives.
     
    See the home page "http://daltonprogram.org" for further information.
     
    If results obtained with this code are published,
    the appropriate citations would be both of:
     
       K. Aidas, C. Angeli, K. L. Bak, V. Bakken, R. Bast,
       L. Boman, O. Christiansen, R. Cimiraglia, S. Coriani,
       P. Dahle, E. K. Dalskov, U. Ekstroem, T. Enevoldsen,
       J. J. Eriksen, P. Ettenhuber, B. Fernandez, L. Ferrighi,
       H. Fliegl, L. Frediani, K. Hald, A. Halkier, C. Haettig,
       H. Heiberg, T. Helgaker, A. C. Hennum, H. Hettema,
       E. Hjertenaes, S. Hoest, I.-M. Hoeyvik, M. F. Iozzi,
       B. Jansik, H. J. Aa. Jensen, D. Jonsson, P. Joergensen,
       J. Kauczor, S. Kirpekar, T. Kjaergaard, W. Klopper,
       S. Knecht, R. Kobayashi, H. Koch, J. Kongsted, A. Krapp,
       K. Kristensen, A. Ligabue, O. B. Lutnaes, J. I. Melo,
       K. V. Mikkelsen, R. H. Myhre, C. Neiss, C. B. Nielsen,
       P. Norman, J. Olsen, J. M. H. Olsen, A. Osted,
       M. J. Packer, F. Pawlowski, T. B. Pedersen, P. F. Provasi,
       S. Reine, Z. Rinkevicius, T. A. Ruden, K. Ruud, V. Rybkin,
       P. Salek, C. C. M. Samson, A. Sanchez de Meras, T. Saue,
       S. P. A. Sauer, B. Schimmelpfennig, K. Sneskov,
       A. H. Steindal, K. O. Sylvester-Hvid, P. R. Taylor,
       A. M. Teale, E. I. Tellgren, D. P. Tew, A. J. Thorvaldsen,
       L. Thoegersen, O. Vahtras, M. A. Watson, D. J. D. Wilson,
       M. Ziolkowski and H. Agren.
       The Dalton quantum chemistry program system.
       WIREs Comput. Mol. Sci. 2013. doi: 10.1002/wcms.1172
    
    and
    
       Dalton, a Molecular Electronic Structure Program,
       Release DALTON2013.0 (2013), see http://daltonprogram.org
   ----------------------------------------------------------------------------

    Authors in alphabetical order (major contribution(s) in parenthesis):

  Kestutis Aidas,           Vilnius University,           Lithuania   (QM/MM)
  Celestino Angeli,         University of Ferrara,        Italy       (NEVPT2)
  Keld L. Bak,              UNI-C,                        Denmark     (AOSOPPA, non-adiabatic coupling, magnetic properties)
  Vebjoern Bakken,          University of Oslo,           Norway      (DALTON; geometry optimizer, symmetry detection)
  Radovan Bast,             KTH Stockholm                 Sweden      (DALTON installation and execution frameworks)
  Linus Boman,              NTNU,                         Norway      (Cholesky decomposition and subsystems)
  Ove Christiansen,         Aarhus University,            Denmark     (CC module)
  Renzo Cimiraglia,         University of Ferrara,        Italy       (NEVPT2)
  Sonia Coriani,            University of Trieste,        Italy       (CC module, MCD in RESPONS)
  Paal Dahle,               University of Oslo,           Norway      (Parallelization)
  Erik K. Dalskov,          UNI-C,                        Denmark     (SOPPA)
  Thomas Enevoldsen,        Univ. of Southern Denmark,    Denmark     (SOPPA)
  Janus J. Eriksen,         Aarhus University,            Denmark     (PE-MP2/SOPPA, TDA)
  Berta Fernandez,          U. of Santiago de Compostela, Spain       (doublet spin, ESR in RESPONS)
  Lara Ferrighi,            Aarhus University,            Denmark     (PCM Cubic response)
  Heike Fliegl,             University of Oslo,           Norway      (CCSD(R12))
  Luca Frediani,            UiT The Arctic U. of Norway,  Norway      (PCM)
  Bin Gao,                  UiT The Arctic U. of Norway,  Norway      (Gen1Int library)
  Christof Haettig,         Ruhr-University Bochum,       Germany     (CC module)
  Kasper Hald,              Aarhus University,            Denmark     (CC module)
  Asger Halkier,            Aarhus University,            Denmark     (CC module)
  Hanne Heiberg,            University of Oslo,           Norway      (geometry analysis, selected one-electron integrals)
  Trygve Helgaker,          University of Oslo,           Norway      (DALTON; ABACUS, ERI, DFT modules, London, and much more)
  Alf Christian Hennum,     University of Oslo,           Norway      (Parity violation)
  Hinne Hettema,            University of Auckland,       New Zealand (quadratic response in RESPONS; SIRIUS supersymmetry)
  Eirik Hjertenaes,         NTNU,                         Norway      (Cholesky decomposition)
  Maria Francesca Iozzi,    University of Oslo,           Norway      (RPA)
  Brano Jansik              Technical Univ. of Ostrava    Czech Rep.  (DFT cubic response)
  Hans Joergen Aa. Jensen,  Univ. of Southern Denmark,    Denmark     (DALTON; SIRIUS, RESPONS, ABACUS modules, London, and much more)
  Dan Jonsson,              UiT The Arctic U. of Norway,  Norway      (cubic response in RESPONS module)
  Poul Joergensen,          Aarhus University,            Denmark     (RESPONS, ABACUS, and CC modules)
  Joanna Kauczor,           Linkoeping University,        Sweden      (Complex polarization propagator (CPP) module)
  Sheela Kirpekar,          Univ. of Southern Denmark,    Denmark     (Mass-velocity & Darwin integrals)
  Wim Klopper,              KIT Karlsruhe,                Germany     (R12 code in CC, SIRIUS, and ABACUS modules)
  Stefan Knecht,            ETH Zurich,                   Switzerland (Parallel CI and MCSCF)
  Rika Kobayashi,           Australian National Univ.,    Australia   (DIIS in CC, London in MCSCF)
  Henrik Koch,              NTNU,                         Norway      (CC module, Cholesky decomposition)
  Jacob Kongsted,           Univ. of Southern Denmark,    Denmark     (Polarizable embedding, QM/MM)
  Andrea Ligabue,           University of Modena,         Italy       (CTOCD, AOSOPPA)
  Ola B. Lutnaes,           University of Oslo,           Norway      (DFT Hessian)
  Juan I. Melo,             University of Buenos Aires,   Argentina   (LRESC, Relativistic Effects on NMR Shieldings)
  Kurt V. Mikkelsen,        University of Copenhagen,     Denmark     (MC-SCRF and QM/MM)
  Rolf H. Myhre,            NTNU,                         Norway      (Cholesky, subsystems and ECC2)
  Christian Neiss,          Univ. Erlangen-Nuernberg,     Germany     (CCSD(R12))
  Christian B. Nielsen,     University of Copenhagen,     Denmark     (QM/MM)
  Patrick Norman,           Linkoeping University,        Sweden      (Cubic response and complex response in RESPONS)
  Jeppe Olsen,              Aarhus University,            Denmark     (SIRIUS CI/density modules)
  Jogvan Magnus H. Olsen,   Univ. of Southern Denmark,    Denmark     (Polarizable embedding, PE library, QM/MM)
  Anders Osted,             Copenhagen University,        Denmark     (QM/MM)
  Martin J. Packer,         University of Sheffield,      UK          (SOPPA)
  Filip Pawlowski,          Kazimierz Wielki University   Poland      (CC3)
  Thomas B. Pedersen,       University of Oslo,           Norway      (Cholesky decomposition)
  Patricio F. Provasi,      University of Northeastern,   Argentina   (Analysis of coupling constants in localized orbitals)
  Zilvinas Rinkevicius,     KTH Stockholm,                Sweden      (open-shell DFT, ESR)
  Elias Rudberg,            KTH Stockholm,                Sweden      (DFT grid and basis info)
  Torgeir A. Ruden,         University of Oslo,           Norway      (Numerical derivatives in ABACUS)
  Kenneth Ruud,             UiT The Arctic U. of Norway,  Norway      (DALTON; ABACUS magnetic properties and  much more)
  Pawel Salek,              KTH Stockholm,                Sweden      (DALTON; DFT code)
  Claire C. M. Samson       University of Karlsruhe       Germany     (Boys localization, r12 integrals in ERI)
  Alfredo Sanchez de Meras, University of Valencia,       Spain       (CC module, Cholesky decomposition)
  Trond Saue,               Paul Sabatier University,     France      (direct Fock matrix construction)
  Stephan P. A. Sauer,      University of Copenhagen,     Denmark     (SOPPA(CCSD), SOPPA prop., AOSOPPA, vibrational g-factors)
  Bernd Schimmelpfennig,    Forschungszentrum Karlsruhe,  Germany     (AMFI module)
  Kristian Sneskov,         Aarhus University,            Denmark     (QM/MM, PE-CC)
  Arnfinn H. Steindal,      UiT The Arctic U. of Norway,  Norway      (parallel QM/MM)
  K. O. Sylvester-Hvid,     University of Copenhagen,     Denmark     (MC-SCRF)
  Peter R. Taylor,          VLSCI/Univ. of Melbourne,     Australia   (Symmetry handling ABACUS, integral transformation)
  Andrew M. Teale,          University of Nottingham,     England     (DFT-AC, DFT-D)
  David P. Tew,             University of Bristol,        England     (CCSD(R12))
  Olav Vahtras,             KTH Stockholm,                Sweden      (triplet response, spin-orbit, ESR, TDDFT, open-shell DFT)
  David J. Wilson,          La Trobe University,          Australia   (DFT Hessian and DFT magnetizabilities)
  Hans Agren,               KTH Stockholm,                Sweden      (SIRIUS module, RESPONS, MC-SCRF solvation model)
 --------------------------------------------------------------------------------

     Date and time (Linux)  : Sun Sep  8 21:08:12 2013
     Host name              : lpqlx131.ups-tlse.fr                    

 * Work memory size             :    64000000 =  488.28 megabytes.

 * Directories for basis set searches:
   1) /home/bast/DALTON-2013.0-Source/build/test_cc2_r12_aux_bh_a3
   2) /home/bast/DALTON-2013.0-Source/build/basis


Compilation information
-----------------------

 Who compiled             | bast
 Host                     | lpqlx131.ups-tlse.fr
 System                   | Linux-3.8.5-201.fc18.x86_64
 CMake generator          | Unix Makefiles
 Processor                | x86_64
 64-bit integers          | OFF
 MPI                      | OFF
 Fortran compiler         | /usr/bin/gfortran
 Fortran compiler version | GNU Fortran (GCC) 4.7.2 20121109 (Red Hat 4.7.2-8)
 C compiler               | /usr/bin/gcc
 C compiler version       | gcc (GCC) 4.7.2 20121109 (Red Hat 4.7.2-8)
 C++ compiler             | /usr/bin/g++
 C++ compiler version     | g++ (GCC) 4.7.2 20121109 (Red Hat 4.7.2-8)
 Static linking           | OFF
 Last Git revision        | f34203295a86316e27f9e7b44f9b6769c4a046c0
 Configuration time       | 2013-09-08 20:31:27.952056


   Content of the .dal input file
 ----------------------------------

**DALTON INPUT                                    
.RUN WAVE FUNCTION                                
.DIRECT                                           
*MOLBAS                                           
.R12AUX                                           
**INTEGRALS                                       
.R12                                              
**WAVE FUNCTION                                   
.CC                                               
*ORBITAL INPUT                                    
.NOSUPSYM                                         
.MOSTART                                          
 H1DIAG                                           
*SCF INPUT                                        
.THRESH                                           
 1.0D-12                                          
*CC INPUT                                         
.CC2                                              
.PRINT                                            
 3                                                
.FREEZE                                           
  1 0                                             
.THRENR                                           
 1.0D-12                                          
.MAX IT                                           
 300                                              
*CCEXCI                                           
.THREXC                                           
 1.D-10                                           
.NCCEXCI                                          
 8                                                
*R12 INPUT                                        
.NO HYB                                           
.CC2                                              
 3B                                               
**END OF DALTON INPUT                             


   Content of the .mol file
 ----------------------------

BASIS                                                                          
Ahlrichs-VTZ Ahlrichs-VTZ                                                      
BH                                                                             
                                                                               
    4    0            0.10D-14                                                 
 1      5.    1    3    3    2    1                                            
B        0.0000000000000     0.0000000000000     0.0000000000000               
 1      1.    1                                                                
H        0.0000000000000     0.0000000000000     2.3288983083247               
 2      5.0   1                                                                
B        0.0000000000000     0.0000000000000     0.0000000000000               
 2      1.0   1                                                                
H        0.0000000000000     0.0000000000000     2.3288983083247               


       *******************************************************************
       *********** Output from DALTON general input processing ***********
       *******************************************************************

 --------------------------------------------------------------------------------
   Overall default print level:    0
   Print level for DALTON.STAT:    1

    AO-direct calculation (in sections where implemented)
    HERMIT 1- and 2-electron integral sections will be executed
    "Old" integral transformation used (limited to max 255 basis functions)
    Wave function sections will be executed (SIRIUS module)
 --------------------------------------------------------------------------------


 Changes of defaults for *MOLBAS:
 --------------------------------

 Print level in molecule setup (READIN):    1

 .R12AUX: Reading auxiliary basis sets from .mol file for R12



   ****************************************************************************
   *************** Output of molecule and basis set information ***************
   ****************************************************************************


    The two title cards from your ".mol" input:
    ------------------------------------------------------------------------
 1: BH                                                                      
 2:                                                                         
    ------------------------------------------------------------------------

  Atomic type no.    1
  --------------------
  Nuclear charge:   5.00000
  Number of symmetry independent centers:    1
  Number of basis sets to read;    1
  Basis set file used for this atomic type with Z =   5 :
     "/home/bast/DALTON-2013.0-Source/build/basis/Ahlrichs-VTZ"

  Atomic type no.    2
  --------------------
  Nuclear charge:   1.00000
  Number of symmetry independent centers:    1
  Number of basis sets to read;    1
  Basis set file used for this atomic type with Z =   1 :
     "/home/bast/DALTON-2013.0-Source/build/basis/Ahlrichs-VTZ"

  Atomic type no.    3
  --------------------
  Nuclear charge:   5.00000
  Number of symmetry independent centers:    1
  This is an auxiliary basis for R12, MBSI:    2
  Basis set file used for this atomic type with Z =   5 :
     "/home/bast/DALTON-2013.0-Source/build/basis/Ahlrichs-VTZ"

  Atomic type no.    4
  --------------------
  Nuclear charge:   1.00000
  Number of symmetry independent centers:    1
  This is an auxiliary basis for R12, MBSI:    2
  Basis set file used for this atomic type with Z =   1 :
     "/home/bast/DALTON-2013.0-Source/build/basis/Ahlrichs-VTZ"


                         SYMGRP: Point group information
                         -------------------------------

Point group: C1 


                                 Isotopic Masses
                                 ---------------

                           B          11.009305
                           H           1.007825
                           B           0.000000
                           H           0.000000

                       Total mass:    12.017130 amu
                       Natural abundance:   0.000 %

 Center-of-mass coordinates (a.u.):    0.000000    0.000000    0.195315


  Atoms and basis sets
  --------------------

  Number of atom types :    4
  Total number of atoms:    4

  Basis set 1 refers to the basis "Ahlrichs-VTZ" from the basis set library.

  Basis set 2 refers to the basis "Ahlrichs-VTZ" from the basis set library.

  label  basis   atoms  charge   prim  cont     basis
  ------------------------------------------------------------------------------
  B        1       1    5.0000    28    15      [10s6p|6s3p]                                       
  H        1       1    1.0000     5     3      [5s|3s]                                            
  B        2       1    0.0000    28    15      [10s6p|6s3p]                                       
  H        2       1    0.0000     5     3      [5s|3s]                                            
  ------------------------------------------------------------------------------
  total:           4    6.0000    66    36
  ------------------------------------------------------------------------------

  Threshold for neglecting AO integrals:  1.00D-15


  Cartesian Coordinates (a.u.)
  ----------------------------

  Total number of coordinates:   12
  B       :     1  x   0.0000000000    2  y   0.0000000000    3  z   0.0000000000
  H       :     4  x   0.0000000000    5  y   0.0000000000    6  z   2.3288983083
  B       :     7  x   0.0000000000    8  y   0.0000000000    9  z   0.0000000000
  H       :    10  x   0.0000000000   11  y   0.0000000000   12  z   2.3288983083


   Interatomic separations (in Angstrom):
   --------------------------------------

            B           H           B           H     
            ------      ------      ------      ------
 B     :    0.000000
 H     :    1.232400    0.000000
 B     :    0.000000    1.232400    0.000000
 H     :    1.232400    0.000000    1.232400    0.000000


  Max    interatomic separation is    1.2324 Angstrom (    2.3289 Bohr)
  between atoms    2 and    1, "H     " and "B     ".

  Min HX interatomic separation is    0.0000 Angstrom (    0.0000 Bohr)

  Min YX interatomic separation is    0.0000 Angstrom (    0.0000 Bohr)

WARNING: Number of short HX and YX bond lengths:    1    1
WARNING: If not intentional, maybe your coordinates were in Angstrom,
WARNING: but "Angstrom" was not specified in .mol file


  Bond distances (Angstrom):
  --------------------------

                  atom 1     atom 2       distance
                  ------     ------       --------
  bond distance:  H          B            1.232400


  Bond angles (degrees):
  ----------------------

                  atom 1     atom 2     atom 3         angle
                  ------     ------     ------         -----
     No angles found




 Principal moments of inertia (u*A**2) and principal axes
 --------------------------------------------------------

   IA       0.000000          0.000000    0.000000    1.000000
   IB       1.402321          0.000000    1.000000    0.000000
   IC       1.402321          1.000000    0.000000    0.000000


 Rotational constants
 --------------------

 The molecule is linear.

               B =       360387.41 MHz     (   12.021230 cm-1)


@  Nuclear repulsion energy :    2.146937881370 Hartree

  Number of main orbitals in each symmetry:          18
  Number of auxiliary functions in each symmetry:    18

  Number of floating/multiple basis set orbitals :    2


                     .---------------------------------------.
                     | Starting in Integral Section (HERMIT) |
                     `---------------------------------------'



    *************************************************************************
    ****************** Output from HERMIT input processing ******************
    *************************************************************************


 Default print level:        1

 * Nuclear model: Point charge

 Calculation of one-electron Hamiltonian integrals.

 The following one-electron property integrals are calculated as requested:
          - overlap integrals
          - Cartesian multipole moment integrals of orders 2 and lower

 Center of mass  (bohr):      0.000000000000      0.000000000000      0.195314683089
 Operator center (bohr):      0.000000000000      0.000000000000      0.000000000000
 Gauge origin    (bohr):      0.000000000000      0.000000000000      0.000000000000
 Dipole origin   (bohr):      0.000000000000      0.000000000000      0.000000000000


     ************************************************************************
     ************************** Output from HERINT **************************
     ************************************************************************

 >>>> Total CPU  time used in HERMIT:   0.03 seconds
 >>>> Total wall time used in HERMIT:   0.03 seconds


                        .----------------------------------.
                        | End of Integral Section (HERMIT) |
                        `----------------------------------'



                   .--------------------------------------------.
                   | Starting in Wave Function Section (SIRIUS) |
                   `--------------------------------------------'

 NCCEXCI for singlet:           8

 >>>> Detected R12 input:
 Direct Fock matrix formation switched on!
 Scale factors for CC excitations manifolds:
 for bra states (projection manifold):   1.0000000000000000     
 for ket states (operator manifold)  :   1.0000000000000000     

 **********************************************************************
 *SIRIUS* a direct, restricted step, second order MCSCF program       *
 **********************************************************************

 
     Date and time (Linux)  : Sun Sep  8 21:08:12 2013
     Host name              : lpqlx131.ups-tlse.fr                    

 Title lines from ".mol" input file:
     BH                                                                      
                                                                             

 Print level on unit LUPRI =   2 is   0
 Print level on unit LUW4  =   2 is   5

@    (Integral direct) CC calculation.

@    This is a combination run starting with
@              a restricted, closed shell Hartree-Fock calculation

 Fock matrices are calculated directly without use of integrals on disk.

 Initial molecular orbitals are obtained according to
 ".MOSTART H1DIAG" input option

     Wave function specification
     ============================

     For the specification of the Coupled Cluster: see later.

@    For the wave function of type :      >>> CC <<<
@    Number of closed shell electrons           6
@    Number of electrons in active shells       0
@    Total charge of the molecule               0

@    Spin multiplicity and 2 M_S                1         0
     Total number of symmetries                 1
@    Reference state symmetry                   1

     Orbital specifications
     ======================
     Abelian symmetry species          All |    1
                                       --- |  ---
@    Occupied SCF orbitals               3 |    3
     Secondary orbitals                 15 |   15
     Total number of orbitals           18 |   18
     Number of basis functions          36 |   36

     Optimization information
     ========================
@    Number of configurations                 1
@    Number of orbital rotations             45
     ------------------------------------------
@    Total number of variables               46

     Maximum number of Fock   iterations      0
     Maximum number of DIIS   iterations     60
     Maximum number of QC-SCF iterations     60
     Threshold for SCF convergence     1.00D-12


 Changes of defaults for CC:
 ---------------------------


 -This is a direct atomic orbital integral based
  calculation for coupled cluster wave function

 -Implicit frozen core calculation
 -Excitation energies calculated
  


 >>>>> DIIS optimization of Hartree-Fock <<<<<

 C1-DIIS algorithm; max error vectors =   10

 Iter      Total energy        Error norm    Delta(E)  DIIS dim.
 -----------------------------------------------------------------------------
   1  Screening settings (-IFTHRS, DIFDEN)   -7    T
@  1    -22.3535825750        6.65287D+00   -2.24D+01    1
      Virial theorem: -V/T =      1.643673
@      MULPOP B      -0.90; H       0.90; 
 -----------------------------------------------------------------------------
   2  Screening settings (-IFTHRS, DIFDEN)   -7    T
@  2    -24.4963667390        1.62767D+00   -2.14D+00    2
      Virial theorem: -V/T =      2.065617
@      MULPOP B       0.51; H      -0.51; 
 -----------------------------------------------------------------------------
   3  Screening settings (-IFTHRS, DIFDEN)   -7    T
@  3    -25.1039606088        3.15721D-01   -6.08D-01    3
      Virial theorem: -V/T =      1.997316
@      MULPOP B       0.03; H      -0.03; 
 -----------------------------------------------------------------------------
   4  Screening settings (-IFTHRS, DIFDEN)   -7    T
@  4    -25.1180088805        8.58034D-02   -1.40D-02    4
      Virial theorem: -V/T =      1.999348
@      MULPOP B       0.08; H      -0.08; 
 -----------------------------------------------------------------------------
   5  Screening settings (-IFTHRS, DIFDEN)   -9    F
@  5    -25.1195518811        1.08973D-02   -1.54D-03    5
      Virial theorem: -V/T =      2.000137
@      MULPOP B       0.10; H      -0.10; 
 -----------------------------------------------------------------------------
   6  Screening settings (-IFTHRS, DIFDEN)   -9    T
@  6    -25.1195863491        1.51885D-03   -3.45D-05    6
      Virial theorem: -V/T =      2.000127
@      MULPOP B       0.10; H      -0.10; 
 -----------------------------------------------------------------------------
   7  Screening settings (-IFTHRS, DIFDEN)   -9    T
@  7    -25.1195868705        3.09857D-04   -5.21D-07    7
      Virial theorem: -V/T =      2.000144
@      MULPOP B       0.10; H      -0.10; 
 -----------------------------------------------------------------------------
   8  Screening settings (-IFTHRS, DIFDEN)  -11    F
@  8    -25.1195868948        4.75805D-05   -2.43D-08    8
      Virial theorem: -V/T =      2.000155
@      MULPOP B       0.10; H      -0.10; 
 -----------------------------------------------------------------------------
   9  Screening settings (-IFTHRS, DIFDEN)  -11    T
@  9    -25.1195868955        3.97632D-06   -6.55D-10    9
      Virial theorem: -V/T =      2.000155
@      MULPOP B       0.10; H      -0.10; 
 -----------------------------------------------------------------------------
  10  Screening settings (-IFTHRS, DIFDEN)  -13    F
@ 10    -25.1195868955        2.98740D-07   -3.60D-12   10
      Virial theorem: -V/T =      2.000155
@      MULPOP B       0.10; H      -0.10; 
 -----------------------------------------------------------------------------
  11  Screening settings (-IFTHRS, DIFDEN)  -13    T
@ 11    -25.1195868955        4.24264D-08   -7.11D-15   10
      Virial theorem: -V/T =      2.000155
@      MULPOP B       0.10; H      -0.10; 
 -----------------------------------------------------------------------------
  12  Screening settings (-IFTHRS, DIFDEN)  -15    F
@ 12    -25.1195868955        2.11565D-09   -7.11D-15   10
      Virial theorem: -V/T =      2.000155
@      MULPOP B       0.10; H      -0.10; 
 -----------------------------------------------------------------------------
  13  Screening settings (-IFTHRS, DIFDEN)  -18    F
@ 13    -25.1195868955        2.48900D-10    7.11D-15   10
      Virial theorem: -V/T =      2.000155
@      MULPOP B       0.10; H      -0.10; 
 -----------------------------------------------------------------------------
  14  Screening settings (-IFTHRS, DIFDEN)  -18    T
@ 14    -25.1195868955        2.17637D-11   -7.11D-15   10
      Virial theorem: -V/T =      2.000155
@      MULPOP B       0.10; H      -0.10; 
 -----------------------------------------------------------------------------
  15  Screening settings (-IFTHRS, DIFDEN)  -18    T
@ 15    -25.1195868955        2.86397D-12   -7.11D-15   10
      Virial theorem: -V/T =      2.000155
@      MULPOP B       0.10; H      -0.10; 
 -----------------------------------------------------------------------------
  16  Screening settings (-IFTHRS, DIFDEN)  -18    T
@ 16    -25.1195868955        1.57726D-13    7.11D-15   10

@ *** DIIS converged in  16 iterations !
@     Converged SCF energy, gradient:    -25.119586895472    1.58D-13
    - total time used in SIRFCK :              0.00 seconds


 *** SCF orbital energy analysis ***

 Only the five lowest virtual orbital energies printed in each symmetry.

 Number of electrons :    6
 Orbital occupations :    3

 Sym       Hartree-Fock orbital energies

  1     -7.69107686    -0.65383587    -0.34398410     0.04297197     0.04297197
         0.19694241     0.22974817     0.27160039

    E(LUMO) :     0.04297197 au (symmetry 1)
  - E(HOMO) :    -0.34398410 au (symmetry 1)
  ------------------------------------------
    gap     :     0.38695606 au

 >>> Writing SIRIFC interface file <<<

  Canonical primary and secondary basis sets
  ISYM       NORB1 MBAS1       NORB2 MBAS2
     1          18    18          18    18

 Computation of exchange matrix done [6]

 AUXILIARY BASIS LOW EIGENVALUES
 ISYM         EIGENVALUE
   1      0.004365940336

 >>>> CPU and wall time for SCF :       0.101       0.102


                       .-----------------------------------.
                       | >>> Final results from SIRIUS <<< |
                       `-----------------------------------'


@    Spin multiplicity:           1
@    Spatial symmetry:            1
@    Total charge of molecule:    0

@    Final HF energy:             -25.119586895472                 
@    Nuclear repulsion:             2.146937881370
@    Electronic energy:           -27.266524776842

@    Final gradient norm:           0.000000000000

 
     Date and time (Linux)  : Sun Sep  8 21:08:12 2013
     Host name              : lpqlx131.ups-tlse.fr                    

 (Only coefficients >0.0100 are printed.)

 Molecular orbitals for symmetry species  1
 ------------------------------------------

    Orbital         1        2        3        4        5
   1 B   :1s    -0.3153  -0.0520   0.0397   0.0000   0.0000
   2 B   :1s    -0.4363  -0.0921   0.0727   0.0000   0.0000
   3 B   :1s    -0.3499  -0.1273   0.0963   0.0000   0.0000
   4 B   :1s    -0.0387   0.1024  -0.0742   0.0000   0.0000
   5 B   :1s     0.0125   0.4199  -0.3552   0.0000   0.0000
   6 B   :1s    -0.0036   0.1369  -0.4961   0.0000   0.0000
   7 B   :2px    0.0000   0.0000   0.0000   0.2763   0.0000
   8 B   :2py    0.0000   0.0000   0.0000   0.0000  -0.2763
   9 B   :2pz    0.0032  -0.1597  -0.3013   0.0000   0.0000
  10 B   :2px    0.0000   0.0000   0.0000  -0.2137   0.0000
  11 B   :2py    0.0000   0.0000   0.0000   0.0000   0.2137
  12 B   :2pz    0.0028   0.0862   0.2229   0.0000   0.0000
  13 B   :2px    0.0000   0.0000   0.0000  -0.6961   0.0000
  14 B   :2py    0.0000   0.0000   0.0000   0.0000   0.6961
  15 B   :2pz   -0.0014  -0.0052   0.1030   0.0000   0.0000
  16 H   :1s    -0.0002   0.1607   0.0978   0.0000   0.0000
  17 H   :1s    -0.0021   0.2870   0.2345   0.0000   0.0000
  18 H   :1s     0.0014   0.0995   0.2096   0.0000   0.0000



 >>>> Total CPU  time used in SIRIUS :      0.10 seconds
 >>>> Total wall time used in SIRIUS :      0.11 seconds

 
     Date and time (Linux)  : Sun Sep  8 21:08:12 2013
     Host name              : lpqlx131.ups-tlse.fr                    


                     .---------------------------------------.
                     | End of Wave Function Section (SIRIUS) |
                     `---------------------------------------'



                    .------------------------------------------.
                    | Starting in Coupled Cluster Section (CC) |
                    `------------------------------------------'

  

 *******************************************************************************
 *******************************************************************************
 *                                                                             *
 *                                                                             *
 *                    START OF COUPLED CLUSTER CALCULATION                     *
 *                                                                             *
 *                                                                             *
 *******************************************************************************
 *******************************************************************************


  I am freezing!
  >> output from FNDMN3 <<
  NUMBER OF ELEMENTS OBTAINED IN FNDMN3            1
  FROM FNDMN3 : 
    PLACES OF LOWEST ELEMENTS 
     1 :      1
  MIN AND MAX IN SELECTED SUPSPACE   -7.6910768610747784       -7.6910768610747784     
 Freezing HF-orbital   1 of symmetry   1 and with orbital energy   -7.6911
 In total frozen-core per symmetry-class:  1
 


 CCR12 ANSATZ =   3

 CCR12 APPROX =  10


  I am freezing!
 Freezing HF-orbital   1 of symmetry   1 and with orbital energy   -7.6911
 In total frozen-core per symmetry-class:  1
 
   NRHF   :       2
   NRHFS  :       3
   NORB1  :      18
   NORB2  :      18

 Number of primary orbitals             :           18
 Number of secondary orbitals           :           18
 Total number of orbitals               :           36
 Total number of basis functions        :           36
 Number of (i|p') integrals             :           72
 Number of (i|u') integrals             :           72
 Number of (Ip'|1/r12|jL) integrals     :           72
 Number of (ip'|1/r12|jq') integrals    :         2628
 Number of (ip'|r12|jq') integrals      :         2628
 Number of (ip'|[T1,r12]|jq') integrals :         5184
 Threshold for R12 contributions            =  0.00000    
 Threshold for singular value decomposition = 0.100000E-11

 The B matrix is transformed into an orthogonal basis
 and inverted by diagonalization

 ******************************************************************************
 The MP2-R12/A and MP2-R12/B energies are computed as described in:
 W. Klopper and C. C. M. Samson, J. Chem. Phys. 116, 6397-6410 (2002).
 ------------------------------------------------------------------------------
 Ansatz 3 is used and results are printed for approximations A and B.
 ******************************************************************************

 Core memory required by CCSD_R12 :          16360  (double words)

 Computation of (ip'|r12|jq') integrals done
 >>>  Time used in R  [6]     is   0.95 seconds
 Backtransformation of (ip'|r12|jq') integrals done
 Computation of V^aj_kl intermediate done

 >>> Time used for V^aj_kl is    0.00 seconds

 Computation of (ip'|1/r12|jq') integrals done
 >>>  Time used in 1/R[5]     is   0.42 seconds
 Computation of (ip'|r12|jq')X(p'r')(kr'|r12|lq') integrals done
 Computation of (i'p'|r12|jq') integrals done
 >>>  Time used in R  [6]     is   0.95 seconds
 Computation of (ip'|[T,r12]|jq') integrals done
 >>>  Time used in T,R[5]     is   0.62 seconds


          +-------------------------------------------------------------+
          ! MP2-R12 ansatz := (1 - V1*V2) * (1 - O1 - O2 + O1*O2) * R12 !
          +-------------------------------------------------------------+



                         +--------------------------------+
                         ! Auxiliary-basis MP2-R12 method !
                         +--------------------------------+


 SECOND-ORDER R12/B   PAIR ENERGIES:

   1   -0.013126982   -0.025172442    0.000000000   -0.000000000     2.60760         2.57940    
   2   -0.009773730   -0.016098920   -0.002949470   -0.006678955     2.29630         2.26935    
   3   -0.014728373   -0.024947338    0.000000000   -0.000000000     1.98406         1.95925    

       -0.037629085   -0.066218701   -0.002949470   -0.006678955

              MP2-R12/B   correlation energy =   -0.072897655
 Time for MP2-R12 part cpu :   2.9630000000000001     
 Time for MP2-R12 part wall:   3.2000000178813934     

  I am freezing!
  >> output from FNDMN3 <<
  NUMBER OF ELEMENTS OBTAINED IN FNDMN3            1
  FROM FNDMN3 : 
    PLACES OF LOWEST ELEMENTS 
     1 :      1
  MIN AND MAX IN SELECTED SUPSPACE   -7.6910768610747784       -7.6910768610747784     
 Freezing HF-orbital   1 of symmetry   1 and with orbital energy   -7.6911
 In total frozen-core per symmetry-class:  1
 
 Preparing R12 Ansatz 2/3 ... ONEAUX= F
   

 *******************************************************************
 *                                                                 *
 *<<<<<<<<<<                                             >>>>>>>>>>*
 *<<<<<<<<<< OUTPUT FROM COUPLED CLUSTER ENERGY PROGRAM  >>>>>>>>>>*
 *<<<<<<<<<<                                             >>>>>>>>>>*
 *                                                                 *
 *******************************************************************


             The Direct Coupled Cluster Energy Program
             -----------------------------------------


          Number of t1 amplitudes                 :        30
          Number of t2 amplitudes                 :       465
          Number of t2' amplitudes for R12 part   :        10
          Total number of amplitudes in ccsd      :       505

 Iter.  1: Coupled cluster MP2-R12/B energy :     -25.1924845508222823
     Conventional correlation energy:    -0.0407155040960490
     R12 correlation energy         :    -0.0321821512539868
     Total correlation energy       :    -0.0728976553500358


       Iteration no.:  1
       -----------------

       Time used in   RHS - TOTAL  :       0.20 seconds
       Norm^2 of omega1 after ccvec:        0.1583570108D-03
       Norm^2 of omega2 after ccvec:        0.1911403201D-28
       Norm^2 of Omegar12  in NXTAM:        0.3759657372D-27
 Iter.  1: Coupled cluster CC2-R12/B energy :     -25.1924658871026814
     Conventional correlation energy:    -0.0406968403764516
     R12 correlation energy         :    -0.0321821512539842
     Total correlation energy       :    -0.0728789916304358


       Iteration no.:  2
       -----------------

       Time used in   RHS - TOTAL  :       0.20 seconds
       Norm^2 of omega1 after ccvec:        0.6110999372D-05
       Norm^2 of omega2 after ccvec:        0.8121094091D-05
       Norm^2 of Omegar12  in NXTAM:        0.2717382599D-06
 Iter.  2: Coupled cluster CC2-R12/B energy :     -25.1927784917149502
     Conventional correlation energy:    -0.0409334491362863
     R12 correlation energy         :    -0.0322581471064169
     Total correlation energy       :    -0.0731915962427031


       Iteration no.:  3
       -----------------

       Time used in   RHS - TOTAL  :       0.20 seconds
       Norm^2 of omega1 after ccvec:        0.2707951860D-06
       Norm^2 of omega2 after ccvec:        0.6280170761D-07
       Norm^2 of Omegar12  in NXTAM:        0.8663782160D-08
 Iter.  3: Coupled cluster CC2-R12/B energy :     -25.1928123030159767
     Conventional correlation energy:    -0.0409519893498889
     R12 correlation energy         :    -0.0322734181938434
     Total correlation energy       :    -0.0732254075437322


       Iteration no.:  4
       -----------------

       Time used in   RHS - TOTAL  :       0.20 seconds
       Norm^2 of omega1 after ccvec:        0.7420450642D-08
       Norm^2 of omega2 after ccvec:        0.5724606127D-08
       Norm^2 of Omegar12  in NXTAM:        0.2515635551D-09
 Iter.  4: Coupled cluster CC2-R12/B energy :     -25.1928103349418855
     Conventional correlation energy:    -0.0409517068442931
     R12 correlation energy         :    -0.0322717326253468
     Total correlation energy       :    -0.0732234394696398


       Iteration no.:  5
       -----------------

       Time used in   RHS - TOTAL  :       0.20 seconds
       Norm^2 of omega1 after ccvec:        0.1907835381D-09
       Norm^2 of omega2 after ccvec:        0.1344264557D-09
       Norm^2 of Omegar12  in NXTAM:        0.2175123757D-11
 Iter.  5: Coupled cluster CC2-R12/B energy :     -25.1928102462625034
     Conventional correlation energy:    -0.0409519787592636
     R12 correlation energy         :    -0.0322713720309943
     Total correlation energy       :    -0.0732233507902579


       Iteration no.:  6
       -----------------

       Time used in   RHS - TOTAL  :       0.20 seconds
       Norm^2 of omega1 after ccvec:        0.9528262817D-11
       Norm^2 of omega2 after ccvec:        0.4247551516D-11
       Norm^2 of Omegar12  in NXTAM:        0.2567777569D-12
 Iter.  6: Coupled cluster CC2-R12/B energy :     -25.1928102579143562
     Conventional correlation energy:    -0.0409521082845856
     R12 correlation energy         :    -0.0322712541575254
     Total correlation energy       :    -0.0732233624421111


       Iteration no.:  7
       -----------------

       Time used in   RHS - TOTAL  :       0.20 seconds
       Norm^2 of omega1 after ccvec:        0.2044983344D-12
       Norm^2 of omega2 after ccvec:        0.1276576959D-12
       Norm^2 of Omegar12  in NXTAM:        0.1384074489D-13
 Iter.  7: Coupled cluster CC2-R12/B energy :     -25.1928102665812865
     Conventional correlation energy:    -0.0409521033177960
     R12 correlation energy         :    -0.0322712677912444
     Total correlation energy       :    -0.0732233711090404


       Iteration no.:  8
       -----------------

       Time used in   RHS - TOTAL  :       0.20 seconds
       Norm^2 of omega1 after ccvec:        0.1023946868D-13
       Norm^2 of omega2 after ccvec:        0.3233237182D-14
       Norm^2 of Omegar12  in NXTAM:        0.6592474956D-16
 Iter.  8: Coupled cluster CC2-R12/B energy :     -25.1928102644859138
     Conventional correlation energy:    -0.0409520988640359
     R12 correlation energy         :    -0.0322712701496313
     Total correlation energy       :    -0.0732233690136673


       Iteration no.:  9
       -----------------

       Time used in   RHS - TOTAL  :       0.20 seconds
       Norm^2 of omega1 after ccvec:        0.3470823184D-15
       Norm^2 of omega2 after ccvec:        0.2684674154D-15
       Norm^2 of Omegar12  in NXTAM:        0.1652333280D-16
 Iter.  9: Coupled cluster CC2-R12/B energy :     -25.1928102641453577
     Conventional correlation energy:    -0.0409520980425739
     R12 correlation energy         :    -0.0322712706305388
     Total correlation energy       :    -0.0732233686731127


       Iteration no.: 10
       -----------------

       Time used in   RHS - TOTAL  :       0.20 seconds
       Norm^2 of omega1 after ccvec:        0.6355791972D-16
       Norm^2 of omega2 after ccvec:        0.3707755694D-16
       Norm^2 of Omegar12  in NXTAM:        0.1412369771D-17
 Iter. 10: Coupled cluster CC2-R12/B energy :     -25.1928102640729250
     Conventional correlation energy:    -0.0409520976488196
     R12 correlation energy         :    -0.0322712709518592
     Total correlation energy       :    -0.0732233686006787


       Iteration no.: 11
       -----------------

       Time used in   RHS - TOTAL  :       0.20 seconds
       Norm^2 of omega1 after ccvec:        0.1900064495D-17
       Norm^2 of omega2 after ccvec:        0.1370165888D-17
       Norm^2 of Omegar12  in NXTAM:        0.5550202640D-19
 Iter. 11: Coupled cluster CC2-R12/B energy :     -25.1928102640757459
     Conventional correlation energy:    -0.0409520975933013
     R12 correlation energy         :    -0.0322712710101996
     Total correlation energy       :    -0.0732233686035009


       Iteration no.: 12
       -----------------

       Time used in   RHS - TOTAL  :       0.20 seconds
       Norm^2 of omega1 after ccvec:        0.1235000519D-18
       Norm^2 of omega2 after ccvec:        0.6230194803D-19
       Norm^2 of Omegar12  in NXTAM:        0.1384911107D-20
 Iter. 12: Coupled cluster CC2-R12/B energy :     -25.1928102640771598
     Conventional correlation energy:    -0.0409520975980122
     R12 correlation energy         :    -0.0322712710069010
     Total correlation energy       :    -0.0732233686049132


       Iteration no.: 13
       -----------------

       Time used in   RHS - TOTAL  :       0.20 seconds
       Norm^2 of omega1 after ccvec:        0.1841229250D-20
       Norm^2 of omega2 after ccvec:        0.1315725423D-20
       Norm^2 of Omegar12  in NXTAM:        0.4983933034D-22
 Iter. 13: Coupled cluster CC2-R12/B energy :     -25.1928102640770497
     Conventional correlation energy:    -0.0409520975998028
     R12 correlation energy         :    -0.0322712710050017
     Total correlation energy       :    -0.0732233686048045


       Iteration no.: 14
       -----------------

       Time used in   RHS - TOTAL  :       0.20 seconds
       Norm^2 of omega1 after ccvec:        0.5025684326D-22
       Norm^2 of omega2 after ccvec:        0.3601016361D-22
       Norm^2 of Omegar12  in NXTAM:        0.1116961625D-23
 Iter. 14: Coupled cluster CC2-R12/B energy :     -25.1928102640769112
     Conventional correlation energy:    -0.0409520975997708
     R12 correlation energy         :    -0.0322712710048956
     Total correlation energy       :    -0.0732233686046664


 CC2-R12/B energy converged to within   0.10D-11 is          -25.192810264077
 Final 2-norm of the CC vector function:  9.28800338D-12
 R12       energy converged to within   0.10D-11 is     -0.032271271


                    +------------------------------------------+
                    ! Largest amplitudes in converged solution !
                    +------------------------------------------+



          CC_PRAM:Overall Contribution of the Different Components
          --------------------------------------------------------



          Single Excitation Contribution :               1.3693 %

          Double Excitation Contribution :              98.6307 %

          ||T1||/||T2||                  :               0.1178

          Tau1 diagnostic                :               0.0077

          Norm of Total Amplitude Vector :               0.1319


 +=============================================================================+
 | symmetry|  orbital index  |   Excitation Numbers             |   Amplitude  |
 |  Index  |   a   b   i   j |      NAI      NBJ |     NAIBJ    |              |
 +=============================================================================+
 | 1   1   |   4       1     |        4          |              |    0.011714  |
 | 1   1   |   8       1     |        8          |              |   -0.004923  |
 | 1   1   |   3       2     |       18          |              |    0.005496  |
 | 1   1   |   9       2     |       24          |              |   -0.004151  |
 +-----------------------------------------------------------------------------+
 | 1 1 1 1 |   1   1   2   2 |       16       16 |          136 |   -0.039454  |
 | 1 1 1 1 |   2   2   2   2 |       17       17 |          153 |   -0.039454  |
 | 1 1 1 1 |   7   7   2   2 |       22       22 |          253 |   -0.043281  |
 +=============================================================================+


          Norm of Printed Amplitude Vector :             0.0721

          Printed all single excitations greater than 0.003901

          Printed all double excitations greater than 0.033104





             +-------------------------------------------------------+
             ! Final results from the Coupled Cluster energy program !
             +-------------------------------------------------------+



            Total SCF   energy:                   -25.1195868955

            Total MP2-R12/B energy:               -25.1924845508

            Total CC2-R12/B energy:               -25.1928102641




                   +--------------------------------------------+
                   ! Calculating singlet intermediates for CCLR !
                   +--------------------------------------------+



       Time used in   RHS - TOTAL  :       0.20 seconds


            E-intermediates calculated 
            Fock-intermediate calculated 


   

 *******************************************************************
 *                                                                 *
 *<<<<<<<<<< OUTPUT FROM COUPLED CLUSTER LINEAR RESPONSE >>>>>>>>>>*
 *                                                                 *
 *<<<<<<<<<<     CALCULATION OF EXCITATION ENERGIES      >>>>>>>>>>*
 *                                                                 *
 *******************************************************************



                            +--------------------------+
                            !  CC2 Excitation Energies !
                            +--------------------------+


 --------------------------
 Symmetry class Nr.:     1
 Multiplicity      :     1
 --------------------------

 Length of Excitation vectors in this class is:       505
 Converging for  8 roots.
  >> output from FNDMN3 <<
  NUMBER OF ELEMENTS OBTAINED IN FNDMN3            9
  FROM FNDMN3 : 
    PLACES OF LOWEST ELEMENTS 
     1 :     16     17     18     19     20     21     22      1      2
  MIN AND MAX IN SELECTED SUPSPACE   0.38695606330869819       0.69680783579293382     
 Start vector guessed from diagonal
 ... selected element no. 16
 Start vector guessed from diagonal
 ... selected element no. 17
 Start vector guessed from diagonal
 ... selected element no. 18
 Start vector guessed from diagonal
 ... selected element no. 19
 Start vector guessed from diagonal
 ... selected element no. 20
 Start vector guessed from diagonal
 ... selected element no. 21
 Start vector guessed from diagonal
 ... selected element no. 22
 Start vector guessed from diagonal
 ... selected element no.  1



 >>>>> COUPLED CLUSTER RESPONSE SOLVER <<<<<

    Iter  #Vectors  time (min)   residual
    --------------------------------------

 REDUCED EIGENVALUES real part:

               Column   1
       1       0.14932784
       2       0.15205677
       3       0.37115990
       4       0.38583584
       5       0.39842143
       6       0.40034792
       7       0.48550905
       8       0.50001426
    ==== End of matrix output ====
  
 ROOT:  1 RESIDUAL TOT: 1.85211D-01
 ROOT:  2 RESIDUAL TOT: 1.82895D-01
 ROOT:  3 RESIDUAL TOT: 1.87561D-01
 ROOT:  4 RESIDUAL TOT: 1.90872D-01
 ROOT:  5 RESIDUAL TOT: 1.85582D-01
 ROOT:  6 RESIDUAL TOT: 1.82540D-01
 ROOT:  7 RESIDUAL TOT: 1.93553D-01
 ROOT:  8 RESIDUAL TOT: 1.78068D-01
      1       8         0.02     0.19E+00

 Lowest eigenvalues in this iteration: 

               Column   1
       1       0.14932784
       2       0.15205677
       3       0.37115990
       4       0.38583584
       5       0.39842143
       6       0.40034792
       7       0.48550905
       8       0.50001426
    ==== End of matrix output ====
 Dimension of the reduced space:    16
 >>> TIME USED IN THIS MICRO ITERATION        0.91


 REDUCED EIGENVALUES real part:

               Column   1
       1       0.12351777
       2       0.12478002
       3       0.33075339
       4       0.34924468
       5       0.36183013
       6       0.36450718
       7       0.45204206
       8       0.46388176
    ==== End of matrix output ====
  
 ROOT:  1 RESIDUAL TOT: 2.58201D-02
 ROOT:  2 RESIDUAL TOT: 3.62341D-02
 ROOT:  3 RESIDUAL TOT: 2.62539D-02
 ROOT:  4 RESIDUAL TOT: 2.80751D-02
 ROOT:  5 RESIDUAL TOT: 3.70038D-02
 ROOT:  6 RESIDUAL TOT: 4.32387D-02
 ROOT:  7 RESIDUAL TOT: 4.73788D-02
 ROOT:  8 RESIDUAL TOT: 4.18105D-02
      2       8         0.02     0.47E-01

 Lowest eigenvalues in this iteration: 

               Column   1
       1       0.12351777
       2       0.12478002
       3       0.33075339
       4       0.34924468
       5       0.36183013
       6       0.36450718
       7       0.45204206
       8       0.46388176
    ==== End of matrix output ====
 Dimension of the reduced space:    24
 >>> TIME USED IN THIS MICRO ITERATION        0.91


 REDUCED EIGENVALUES real part:

               Column   1
       1       0.12299608
       2       0.12314275
       3       0.33041590
       4       0.34851625
       5       0.36092464
       6       0.36178593
       7       0.44774711
       8       0.46024169
    ==== End of matrix output ====
  
 ROOT:  1 RESIDUAL TOT: 3.60934D-03
 ROOT:  2 RESIDUAL TOT: 9.52153D-03
 ROOT:  3 RESIDUAL TOT: 9.46834D-03
 ROOT:  4 RESIDUAL TOT: 1.33488D-02
 ROOT:  5 RESIDUAL TOT: 5.73456D-03
 ROOT:  6 RESIDUAL TOT: 2.01891D-02
 ROOT:  7 RESIDUAL TOT: 2.85349D-02
 ROOT:  8 RESIDUAL TOT: 2.81094D-02
      3       8         0.02     0.29E-01

 Lowest eigenvalues in this iteration: 

               Column   1
       1       0.12299608
       2       0.12314275
       3       0.33041590
       4       0.34851625
       5       0.36092464
       6       0.36178593
       7       0.44774711
       8       0.46024169
    ==== End of matrix output ====
 Dimension of the reduced space:    32
 >>> TIME USED IN THIS MICRO ITERATION        0.91


 REDUCED EIGENVALUES real part:

               Column   1
       1       0.12299704
       2       0.12299992
       3       0.33042852
       4       0.34845232
       5       0.36091513
       6       0.36109335
       7       0.44727474
       8       0.45895873
    ==== End of matrix output ====
  
 ROOT:  1 RESIDUAL TOT: 1.95445D-04
 ROOT:  2 RESIDUAL TOT: 1.58983D-03
 ROOT:  3 RESIDUAL TOT: 2.94961D-03
 ROOT:  4 RESIDUAL TOT: 4.05926D-03
 ROOT:  5 RESIDUAL TOT: 5.81850D-04
 ROOT:  6 RESIDUAL TOT: 1.28363D-02
 ROOT:  7 RESIDUAL TOT: 5.41845D-03
 ROOT:  8 RESIDUAL TOT: 1.19794D-01
      4       8         0.02     0.12E+00

 Lowest eigenvalues in this iteration: 

               Column   1
       1       0.12299704
       2       0.12299992
       3       0.33042852
       4       0.34845232
       5       0.36091513
       6       0.36109335
       7       0.44727474
       8       0.45895873
    ==== End of matrix output ====
 Dimension of the reduced space:    40
 >>> TIME USED IN THIS MICRO ITERATION        0.91


 REDUCED EIGENVALUES real part:

               Column   1
       1       0.12299660
       2       0.12299736
       3       0.33040153
       4       0.34843266
       5       0.36091303
       6       0.36092387
       7       0.44725226
       8       0.44751365
    ==== End of matrix output ====
  
 ROOT:  1 RESIDUAL TOT: 1.18675D-04
 ROOT:  2 RESIDUAL TOT: 1.43975D-05
 ROOT:  3 RESIDUAL TOT: 6.51430D-04
 ROOT:  4 RESIDUAL TOT: 8.18745D-04
 ROOT:  5 RESIDUAL TOT: 5.22865D-05
 ROOT:  6 RESIDUAL TOT: 2.26637D-03
 ROOT:  7 RESIDUAL TOT: 8.58247D-04
 ROOT:  8 RESIDUAL TOT: 2.12816D-02
      5       8         0.02     0.21E-01

 Lowest eigenvalues in this iteration: 

               Column   1
       1       0.12299660
       2       0.12299736
       3       0.33040153
       4       0.34843266
       5       0.36091303
       6       0.36092387
       7       0.44725226
       8       0.44751365
    ==== End of matrix output ====
 Dimension of the reduced space:    48
 >>> TIME USED IN THIS MICRO ITERATION        0.91


 REDUCED EIGENVALUES real part:

               Column   1
       1       0.12299731
       2       0.12299733
       3       0.33040343
       4       0.34843505
       5       0.36091224
       6       0.36091285
       7       0.44723586
       8       0.44725194
    ==== End of matrix output ====
  
 ROOT:  1 RESIDUAL TOT: 6.45562D-06
 ROOT:  2 RESIDUAL TOT: 5.07664D-07
 ROOT:  3 RESIDUAL TOT: 1.45895D-04
 ROOT:  4 RESIDUAL TOT: 2.13735D-04
 ROOT:  5 RESIDUAL TOT: 2.85305D-04
 ROOT:  6 RESIDUAL TOT: 6.39623D-06
 ROOT:  7 RESIDUAL TOT: 3.14890D-03
 ROOT:  8 RESIDUAL TOT: 1.79018D-04
      6       8         0.02     0.31E-02

 Lowest eigenvalues in this iteration: 

               Column   1
       1       0.12299731
       2       0.12299733
       3       0.33040343
       4       0.34843505
       5       0.36091224
       6       0.36091285
       7       0.44723586
       8       0.44725194
    ==== End of matrix output ====
 Dimension of the reduced space:    56
 >>> TIME USED IN THIS MICRO ITERATION        0.91


 REDUCED EIGENVALUES real part:

               Column   1
       1       0.12299733
       2       0.12299733
       3       0.33040408
       4       0.34843598
       5       0.36091278
       6       0.36091284
       7       0.44725149
       8       0.44725187
    ==== End of matrix output ====
  
 ROOT:  1 RESIDUAL TOT: 1.49146D-08
 ROOT:  2 RESIDUAL TOT: 2.06090D-07
 ROOT:  3 RESIDUAL TOT: 2.04009D-05
 ROOT:  4 RESIDUAL TOT: 4.71771D-05
 ROOT:  5 RESIDUAL TOT: 2.92785D-05
 ROOT:  6 RESIDUAL TOT: 7.24384D-07
 ROOT:  7 RESIDUAL TOT: 2.69860D-05
 ROOT:  8 RESIDUAL TOT: 4.91278D-04
      7       8         0.02     0.49E-03

 Lowest eigenvalues in this iteration: 

               Column   1
       1       0.12299733
       2       0.12299733
       3       0.33040408
       4       0.34843598
       5       0.36091278
       6       0.36091284
       7       0.44725149
       8       0.44725187
    ==== End of matrix output ====
 Dimension of the reduced space:    64
 >>> TIME USED IN THIS MICRO ITERATION        0.91


 REDUCED EIGENVALUES real part:

               Column   1
       1       0.12299733
       2       0.12299733
       3       0.33040389
       4       0.34843571
       5       0.36091284
       6       0.36091284
       7       0.44725148
       8       0.44725162
    ==== End of matrix output ====
  
 ROOT:  1 RESIDUAL TOT: 4.39057D-10
 ROOT:  2 RESIDUAL TOT: 6.26763D-09
 ROOT:  3 RESIDUAL TOT: 5.38228D-06
 ROOT:  4 RESIDUAL TOT: 1.09914D-05
 ROOT:  5 RESIDUAL TOT: 4.88683D-06
 ROOT:  6 RESIDUAL TOT: 7.62097D-08
 ROOT:  7 RESIDUAL TOT: 2.81569D-06
 ROOT:  8 RESIDUAL TOT: 8.80175D-05
      8       8         0.02     0.88E-04

 Lowest eigenvalues in this iteration: 

               Column   1
       1       0.12299733
       2       0.12299733
       3       0.33040389
       4       0.34843571
       5       0.36091284
       6       0.36091284
       7       0.44725148
       8       0.44725162
    ==== End of matrix output ====
 Dimension of the reduced space:    72
 >>> TIME USED IN THIS MICRO ITERATION        0.91


 REDUCED EIGENVALUES real part:

               Column   1
       1       0.12299733
       2       0.12299733
       3       0.33040393
       4       0.34843568
       5       0.36091284
       6       0.36091284
       7       0.44725149
       8       0.44725149
    ==== End of matrix output ====
  
 ROOT:  1 RESIDUAL TOT: 1.34160D-11
 ROOT:  1 HAS CONVERGED. RESIDUAL TOT: 1.34160D-11
 ROOT:  2 RESIDUAL TOT: 2.29585D-10
 ROOT:  3 RESIDUAL TOT: 1.70990D-06
 ROOT:  4 RESIDUAL TOT: 3.28102D-06
 ROOT:  5 RESIDUAL TOT: 7.13108D-07
 ROOT:  6 RESIDUAL TOT: 1.01575D-08
 ROOT:  7 RESIDUAL TOT: 1.63605D-05
 ROOT:  8 RESIDUAL TOT: 3.60566D-07
      9       8         0.02     0.16E-04

 Lowest eigenvalues in this iteration: 

               Column   1
       1       0.12299733
       2       0.12299733
       3       0.33040393
       4       0.34843568
       5       0.36091284
       6       0.36091284
       7       0.44725149
       8       0.44725149
    ==== End of matrix output ====
 Dimension of the reduced space:    79
 >>> TIME USED IN THIS MICRO ITERATION        0.92


 REDUCED EIGENVALUES real part:

               Column   1
       1       0.12299733
       2       0.12299733
       3       0.33040394
       4       0.34843570
       5       0.36091284
       6       0.36091284
       7       0.44725149
       8       0.44725150
    ==== End of matrix output ====
  
 ROOT:  1 RESIDUAL TOT: 6.22929D-12
 ROOT:  1 HAS CONVERGED. RESIDUAL TOT: 6.22929D-12
 ROOT:  2 RESIDUAL TOT: 1.28260D-11
 ROOT:  2 HAS CONVERGED. RESIDUAL TOT: 1.28260D-11
 ROOT:  3 RESIDUAL TOT: 4.21689D-07
 ROOT:  4 RESIDUAL TOT: 7.53503D-07
 ROOT:  5 RESIDUAL TOT: 6.95673D-08
 ROOT:  6 RESIDUAL TOT: 1.40480D-09
 ROOT:  7 RESIDUAL TOT: 6.05644D-08
 ROOT:  8 RESIDUAL TOT: 2.42477D-06
     10       7         0.01     0.24E-05

 Lowest eigenvalues in this iteration: 

               Column   1
       1       0.12299733
       2       0.12299733
       3       0.33040394
       4       0.34843570
       5       0.36091284
       6       0.36091284
       7       0.44725149
       8       0.44725150
    ==== End of matrix output ====
 Dimension of the reduced space:    85
 >>> TIME USED IN THIS MICRO ITERATION        0.81


 REDUCED EIGENVALUES real part:

               Column   1
       1       0.12299733
       2       0.12299733
       3       0.33040394
       4       0.34843570
       5       0.36091284
       6       0.36091284
       7       0.44725149
       8       0.44725149
    ==== End of matrix output ====
  
 ROOT:  1 RESIDUAL TOT: 2.26716D-12
 ROOT:  1 HAS CONVERGED. RESIDUAL TOT: 2.26716D-12
 ROOT:  2 RESIDUAL TOT: 1.25641D-11
 ROOT:  2 HAS CONVERGED. RESIDUAL TOT: 1.25641D-11
 ROOT:  3 RESIDUAL TOT: 7.11295D-08
 ROOT:  4 RESIDUAL TOT: 1.28846D-07
 ROOT:  5 RESIDUAL TOT: 6.53934D-09
 ROOT:  6 RESIDUAL TOT: 8.79922D-11
 ROOT:  6 HAS CONVERGED. RESIDUAL TOT: 8.79922D-11
 ROOT:  7 RESIDUAL TOT: 4.56580D-09
 ROOT:  8 RESIDUAL TOT: 3.21603D-07
     11       6         0.01     0.32E-06

 Lowest eigenvalues in this iteration: 

               Column   1
       1       0.12299733
       2       0.12299733
       3       0.33040394
       4       0.34843570
       5       0.36091284
       6       0.36091284
       7       0.44725149
       8       0.44725149
    ==== End of matrix output ====
 Dimension of the reduced space:    90
 >>> TIME USED IN THIS MICRO ITERATION        0.72


 REDUCED EIGENVALUES real part:

               Column   1
       1       0.12299733
       2       0.12299733
       3       0.33040394
       4       0.34843570
       5       0.36091284
       6       0.36091284
       7       0.44725149
       8       0.44725149
    ==== End of matrix output ====
  
 ROOT:  1 RESIDUAL TOT: 2.25046D-12
 ROOT:  1 HAS CONVERGED. RESIDUAL TOT: 2.25046D-12
 ROOT:  2 RESIDUAL TOT: 1.21416D-11
 ROOT:  2 HAS CONVERGED. RESIDUAL TOT: 1.21416D-11
 ROOT:  3 RESIDUAL TOT: 1.00351D-08
 ROOT:  4 RESIDUAL TOT: 1.90420D-08
 ROOT:  5 RESIDUAL TOT: 3.98280D-10
 ROOT:  6 RESIDUAL TOT: 6.18601D-11
 ROOT:  6 HAS CONVERGED. RESIDUAL TOT: 6.18601D-11
 ROOT:  7 RESIDUAL TOT: 3.02887D-10
 ROOT:  8 RESIDUAL TOT: 2.01680D-08
     12       5         0.01     0.20E-07

 Lowest eigenvalues in this iteration: 

               Column   1
       1       0.12299733
       2       0.12299733
       3       0.33040394
       4       0.34843570
       5       0.36091284
       6       0.36091284
       7       0.44725149
       8       0.44725149
    ==== End of matrix output ====
 Dimension of the reduced space:    95
 >>> TIME USED IN THIS MICRO ITERATION        0.62


 REDUCED EIGENVALUES real part:

               Column   1
       1       0.12299733
       2       0.12299733
       3       0.33040394
       4       0.34843570
       5       0.36091284
       6       0.36091284
       7       0.44725149
       8       0.44725149
    ==== End of matrix output ====
  
 ROOT:  1 RESIDUAL TOT: 2.30362D-12
 ROOT:  1 HAS CONVERGED. RESIDUAL TOT: 2.30362D-12
 ROOT:  2 RESIDUAL TOT: 1.19505D-11
 ROOT:  2 HAS CONVERGED. RESIDUAL TOT: 1.19505D-11
 ROOT:  3 RESIDUAL TOT: 1.50380D-09
 ROOT:  4 RESIDUAL TOT: 3.10557D-09
 ROOT:  5 RESIDUAL TOT: 1.86572D-11
 ROOT:  5 HAS CONVERGED. RESIDUAL TOT: 1.86572D-11
 ROOT:  6 RESIDUAL TOT: 5.81500D-11
 ROOT:  6 HAS CONVERGED. RESIDUAL TOT: 5.81500D-11
 ROOT:  7 RESIDUAL TOT: 2.74978D-11
 ROOT:  7 HAS CONVERGED. RESIDUAL TOT: 2.74978D-11
 ROOT:  8 RESIDUAL TOT: 1.29468D-09
     13       5         0.01     0.31E-08

 Lowest eigenvalues in this iteration: 

               Column   1
       1       0.12299733
       2       0.12299733
       3       0.33040394
       4       0.34843570
       5       0.36091284
       6       0.36091284
       7       0.44725149
       8       0.44725149
    ==== End of matrix output ====
 Dimension of the reduced space:    98
 >>> TIME USED IN THIS MICRO ITERATION        0.62


 REDUCED EIGENVALUES real part:

               Column   1
       1       0.12299733
       2       0.12299733
       3       0.33040394
       4       0.34843570
       5       0.36091284
       6       0.36091284
       7       0.44725149
       8       0.44725149
    ==== End of matrix output ====
  
 ROOT:  1 RESIDUAL TOT: 2.28713D-12
 ROOT:  1 HAS CONVERGED. RESIDUAL TOT: 2.28713D-12
 ROOT:  2 RESIDUAL TOT: 1.19505D-11
 ROOT:  2 HAS CONVERGED. RESIDUAL TOT: 1.19505D-11
 ROOT:  3 RESIDUAL TOT: 1.44543D-10
 ROOT:  4 RESIDUAL TOT: 3.19922D-10
 ROOT:  5 RESIDUAL TOT: 7.19254D-12
 ROOT:  5 HAS CONVERGED. RESIDUAL TOT: 7.19254D-12
 ROOT:  6 RESIDUAL TOT: 5.81500D-11
 ROOT:  6 HAS CONVERGED. RESIDUAL TOT: 5.81500D-11
 ROOT:  7 RESIDUAL TOT: 1.22726D-10
 ROOT:  8 RESIDUAL TOT: 2.74978D-11
 ROOT:  8 HAS CONVERGED. RESIDUAL TOT: 2.74978D-11
     14       3         0.01     0.32E-09

 Lowest eigenvalues in this iteration: 

               Column   1
       1       0.12299733
       2       0.12299733
       3       0.33040394
       4       0.34843570
       5       0.36091284
       6       0.36091284
       7       0.44725149
       8       0.44725149
    ==== End of matrix output ====
 Dimension of the reduced space:   101
 >>> TIME USED IN THIS MICRO ITERATION        0.42


 REDUCED EIGENVALUES real part:

               Column   1
       1       0.12299733
       2       0.12299733
       3       0.33040394
       4       0.34843570
       5       0.36091284
       6       0.36091284
       7       0.44725149
       8       0.44725149
    ==== End of matrix output ====
  
 ROOT:  1 RESIDUAL TOT: 2.31049D-12
 ROOT:  1 HAS CONVERGED. RESIDUAL TOT: 2.31049D-12
 ROOT:  2 RESIDUAL TOT: 1.19505D-11
 ROOT:  2 HAS CONVERGED. RESIDUAL TOT: 1.19505D-11
 ROOT:  3 RESIDUAL TOT: 1.08622D-11
 ROOT:  3 HAS CONVERGED. RESIDUAL TOT: 1.08622D-11
 ROOT:  4 RESIDUAL TOT: 2.50760D-11
 ROOT:  4 HAS CONVERGED. RESIDUAL TOT: 2.50760D-11
 ROOT:  5 RESIDUAL TOT: 6.60511D-12
 ROOT:  5 HAS CONVERGED. RESIDUAL TOT: 6.60511D-12
 ROOT:  6 RESIDUAL TOT: 5.81500D-11
 ROOT:  6 HAS CONVERGED. RESIDUAL TOT: 5.81500D-11
 ROOT:  7 RESIDUAL TOT: 1.35573D-11
 ROOT:  7 HAS CONVERGED. RESIDUAL TOT: 1.35573D-11
 ROOT:  8 RESIDUAL TOT: 2.74978D-11
 ROOT:  8 HAS CONVERGED. RESIDUAL TOT: 2.74978D-11
     15       3         0.01     0.58E-10

 Lowest eigenvalues in this iteration: 

               Column   1
       1       0.12299733
       2       0.12299733
       3       0.33040394
       4       0.34843570
       5       0.36091284
       6       0.36091284
       7       0.44725149
       8       0.44725149
    ==== End of matrix output ====
 Dimension of the reduced space:   101
 >>> TIME USED IN THIS MICRO ITERATION        0.42

    --------------------------------------
    converged in 15 iterations
    threshold:    0.10E-09


         Routine          Time (min)
         ---------------------------
         CC_TRDRV            0.19
         CCRED               0.00
         CCNEX               0.00
         ---------------------------
         Total time          0.20


 >>>> Total CPU  time used in CCEQ_SOLV:  11.81 seconds
 >>>> Total wall time used in CCEQ_SOLV:  11.90 seconds


 >>>>>>>>>>>>>>>>>>>>> <<<<<<<<<<<<<<<<<<<<<



  Final eigenvalues :
 =====================
 (convergence threshold:  1.00D-10)

    1   0.1229973315
    2   0.1229973315
    3   0.3304039409
    4   0.3484356965
    5   0.3609128413
    6   0.3609128413
    7   0.4472514901
    8   0.4472514901

 degenerate eigenvector found:  1        0.1229973315
 eigenvector was orthogonalized against  1 degenerate vectors


 degenerate eigenvector found:  2        0.1229973315
 eigenvector was orthogonalized against  1 degenerate vectors


 degenerate eigenvector found:  5        0.3609128413
 eigenvector was orthogonalized against  1 degenerate vectors


 degenerate eigenvector found:  6        0.3609128413
 eigenvector was orthogonalized against  1 degenerate vectors


 degenerate eigenvector found:  7        0.4472514901
 eigenvector was orthogonalized against  1 degenerate vectors


 degenerate eigenvector found:  8        0.4472514901
 eigenvector was orthogonalized against  1 degenerate vectors



 SYMMETRY CLASS NR.    1
 MULTIPLICITY          1


 CC2-R12/B  right excitation energies:
 ====================================
 (conversion factor used: 1 au = 27.2113957 eV)

 Excitation no.       Hartree               eV 
 --------------       -------               --
         1            0.1229973315        3.3469276448
         2            0.1229973315        3.3469276448
         3            0.3304039409        8.9907485812
         4            0.3484356965        9.4814176105
         5            0.3609128413        9.8209379906
         6            0.3609128413        9.8209379906
         7            0.4472514901       12.1703321359
         8            0.4472514901       12.1703321359


 Total excited state energies for states of symmetry/spin    1    1
 Excitation no.       Energy (Hartree) 
 ------------------------------------- 
@@    1    1           -25.069812932558335
@@    1    2           -25.069812932558335
@@    1    3           -24.862406323143084
@@    1    4           -24.844374567555274
@@    1    5           -24.831897422788551
@@    1    6           -24.831897422788508
@@    1    7           -24.745558773964902
@@    1    8           -24.745558773964884


 Analysis of the Coupled Cluster Excitation Vector Number :  1
 -------------------------------------------------------------

          Excitation Energy :                             3.3469 eV


          CC_PRAM:Overall Contribution of the Different Components
          --------------------------------------------------------



          Single Excitation Contribution :              98.6719 %

          Double Excitation Contribution :               1.3281 %

          ||T1||/||T2||                  :               8.6193

          Norm of Total Amplitude Vector :               1.0000


 +=============================================================================+
 | symmetry|  orbital index  |   Excitation Numbers             |   Amplitude  |
 |  Index  |   a   b   i   j |      NAI      NBJ |     NAIBJ    |              |
 +=============================================================================+
 | 1   1   |   2       2     |       17          |              |    0.950624  |
 | 1   1   |   5       2     |       20          |              |    0.251837  |
 +-----------------------------------------------------------------------------+
 | 1 1 1 1 |   8   2   1   1 |        8        2 |           30 |    0.028160  |
 | 1 1 1 1 |   4   2   2   1 |       19        2 |          173 |   -0.024614  |
 | 1 1 1 1 |   7   2   2   1 |       22        2 |          233 |   -0.032889  |
 | 1 1 1 1 |   8   2   2   1 |       23        2 |          255 |    0.040386  |
 | 1 1 1 1 |   5   4   2   1 |       20        4 |          194 |   -0.024228  |
 | 1 1 1 1 |   7   2   2   2 |       22       17 |          248 |    0.050120  |
 | 1 1 1 1 |   5   3   2   2 |       20       18 |          208 |   -0.019663  |
 | 1 1 1 1 |   7   5   2   2 |       22       20 |          251 |   -0.028218  |
 | 1 1 1 1 |  11   7   2   2 |       26       22 |          347 |   -0.020772  |
 +=============================================================================+


          Norm of Printed Amplitude Vector :             0.9879

          Printed all single excitations greater than 0.165556

          Printed all double excitations greater than 0.019208


 Analysis of the Coupled Cluster Excitation Vector Number :  2
 -------------------------------------------------------------

          Excitation Energy :                             3.3469 eV


          CC_PRAM:Overall Contribution of the Different Components
          --------------------------------------------------------



          Single Excitation Contribution :              98.6719 %

          Double Excitation Contribution :               1.3281 %

          ||T1||/||T2||                  :               8.6193

          Norm of Total Amplitude Vector :               1.0000


 +=============================================================================+
 | symmetry|  orbital index  |   Excitation Numbers             |   Amplitude  |
 |  Index  |   a   b   i   j |      NAI      NBJ |     NAIBJ    |              |
 +=============================================================================+
 | 1   1   |   1       2     |       16          |              |    0.950624  |
 | 1   1   |   6       2     |       21          |              |   -0.251837  |
 +-----------------------------------------------------------------------------+
 | 1 1 1 1 |   8   1   1   1 |        8        1 |           29 |    0.028160  |
 | 1 1 1 1 |   4   1   2   1 |       19        1 |          172 |   -0.024614  |
 | 1 1 1 1 |   7   1   2   1 |       22        1 |          232 |   -0.032889  |
 | 1 1 1 1 |   8   1   2   1 |       23        1 |          254 |    0.040386  |
 | 1 1 1 1 |   6   4   2   1 |       21        4 |          214 |    0.024228  |
 | 1 1 1 1 |   7   1   2   2 |       22       16 |          247 |    0.050120  |
 | 1 1 1 1 |   6   3   2   2 |       21       18 |          228 |    0.019663  |
 | 1 1 1 1 |   7   6   2   2 |       22       21 |          252 |    0.028218  |
 | 1 1 1 1 |  10   7   2   2 |       25       22 |          322 |   -0.020772  |
 +=============================================================================+


          Norm of Printed Amplitude Vector :             0.9879

          Printed all single excitations greater than 0.165556

          Printed all double excitations greater than 0.019208


 Analysis of the Coupled Cluster Excitation Vector Number :  3
 -------------------------------------------------------------

          Excitation Energy :                             8.9907 eV


          CC_PRAM:Overall Contribution of the Different Components
          --------------------------------------------------------



          Single Excitation Contribution :              97.7055 %

          Double Excitation Contribution :               2.2945 %

          ||T1||/||T2||                  :               6.5255

          Norm of Total Amplitude Vector :               0.9996


 +=============================================================================+
 | symmetry|  orbital index  |   Excitation Numbers             |   Amplitude  |
 |  Index  |   a   b   i   j |      NAI      NBJ |     NAIBJ    |              |
 +=============================================================================+
 | 1   1   |   3       2     |       18          |              |    0.568342  |
 | 1   1   |   4       2     |       19          |              |    0.787611  |
 +-----------------------------------------------------------------------------+
 | 1 1 1 1 |   8   4   2   1 |       23        4 |          257 |    0.033973  |
 | 1 1 1 1 |   4   3   2   2 |       19       18 |          189 |    0.027847  |
 | 1 1 1 1 |   7   3   2   2 |       22       18 |          249 |    0.059554  |
 | 1 1 1 1 |   4   4   2   2 |       19       19 |          190 |    0.049503  |
 | 1 1 1 1 |   7   4   2   2 |       22       19 |          250 |    0.081130  |
 +=============================================================================+


          Norm of Printed Amplitude Vector :             0.9787

          Printed all single excitations greater than 0.164743

          Printed all double excitations greater than 0.025246


 Analysis of the Coupled Cluster Excitation Vector Number :  4
 -------------------------------------------------------------

          Excitation Energy :                             9.4814 eV


          CC_PRAM:Overall Contribution of the Different Components
          --------------------------------------------------------



          Single Excitation Contribution :              97.3099 %

          Double Excitation Contribution :               2.6901 %

          ||T1||/||T2||                  :               6.0144

          Norm of Total Amplitude Vector :               0.9999


 +=============================================================================+
 | symmetry|  orbital index  |   Excitation Numbers             |   Amplitude  |
 |  Index  |   a   b   i   j |      NAI      NBJ |     NAIBJ    |              |
 +=============================================================================+
 | 1   1   |   3       2     |       18          |              |    0.798784  |
 | 1   1   |   4       2     |       19          |              |   -0.569418  |
 +-----------------------------------------------------------------------------+
 | 1 1 1 1 |   6   1   2   2 |       21       16 |          226 |    0.029844  |
 | 1 1 1 1 |   5   2   2   2 |       20       17 |          207 |   -0.029844  |
 | 1 1 1 1 |   3   3   2   2 |       18       18 |          171 |    0.044443  |
 | 1 1 1 1 |   7   3   2   2 |       22       18 |          249 |    0.097446  |
 | 1 1 1 1 |   7   4   2   2 |       22       19 |          250 |   -0.071277  |
 +=============================================================================+


          Norm of Printed Amplitude Vector :             0.9903

          Printed all single excitations greater than 0.164410

          Printed all double excitations greater than 0.027336


 Analysis of the Coupled Cluster Excitation Vector Number :  5
 -------------------------------------------------------------

          Excitation Energy :                             9.8209 eV


          CC_PRAM:Overall Contribution of the Different Components
          --------------------------------------------------------



          Single Excitation Contribution :              97.1180 %

          Double Excitation Contribution :               2.8820 %

          ||T1||/||T2||                  :               5.8050

          Norm of Total Amplitude Vector :               1.0000


 +=============================================================================+
 | symmetry|  orbital index  |   Excitation Numbers             |   Amplitude  |
 |  Index  |   a   b   i   j |      NAI      NBJ |     NAIBJ    |              |
 +=============================================================================+
 | 1   1   |   2       1     |        2          |              |    0.203913  |
 | 1   1   |   2       2     |       17          |              |   -0.269362  |
 | 1   1   |   5       2     |       20          |              |    0.919849  |
 +-----------------------------------------------------------------------------+
 | 1 1 1 1 |   2   4   2   1 |       17        4 |          140 |   -0.039719  |
 | 1 1 1 1 |   8   5   2   1 |       23        5 |          258 |    0.033602  |
 | 1 1 1 1 |   3   2   2   2 |       18       17 |          170 |   -0.034474  |
 | 1 1 1 1 |   7   2   2   2 |       22       17 |          248 |   -0.119939  |
 | 1 1 1 1 |   7   5   2   2 |       22       20 |          251 |    0.051347  |
 +=============================================================================+


          Norm of Printed Amplitude Vector :             0.9905

          Printed all single excitations greater than 0.164247

          Printed all double excitations greater than 0.028294


 Analysis of the Coupled Cluster Excitation Vector Number :  6
 -------------------------------------------------------------

          Excitation Energy :                             9.8209 eV


          CC_PRAM:Overall Contribution of the Different Components
          --------------------------------------------------------



          Single Excitation Contribution :              97.1180 %

          Double Excitation Contribution :               2.8820 %

          ||T1||/||T2||                  :               5.8050

          Norm of Total Amplitude Vector :               1.0000


 +=============================================================================+
 | symmetry|  orbital index  |   Excitation Numbers             |   Amplitude  |
 |  Index  |   a   b   i   j |      NAI      NBJ |     NAIBJ    |              |
 +=============================================================================+
 | 1   1   |   1       1     |        1          |              |   -0.203913  |
 | 1   1   |   1       2     |       16          |              |    0.269362  |
 | 1   1   |   6       2     |       21          |              |    0.919849  |
 +-----------------------------------------------------------------------------+
 | 1 1 1 1 |   1   4   2   1 |       16        4 |          124 |    0.039719  |
 | 1 1 1 1 |   8   6   2   1 |       23        6 |          259 |    0.033602  |
 | 1 1 1 1 |   3   1   2   2 |       18       16 |          169 |    0.034474  |
 | 1 1 1 1 |   7   1   2   2 |       22       16 |          247 |    0.119939  |
 | 1 1 1 1 |   7   6   2   2 |       22       21 |          252 |    0.051347  |
 +=============================================================================+


          Norm of Printed Amplitude Vector :             0.9905

          Printed all single excitations greater than 0.164247

          Printed all double excitations greater than 0.028294


 Analysis of the Coupled Cluster Excitation Vector Number :  7
 -------------------------------------------------------------

          Excitation Energy :                            12.1703 eV


          CC_PRAM:Overall Contribution of the Different Components
          --------------------------------------------------------



          Single Excitation Contribution :              98.1004 %

          Double Excitation Contribution :               1.8996 %

          ||T1||/||T2||                  :               7.1862

          Norm of Total Amplitude Vector :               1.0000


 +=============================================================================+
 | symmetry|  orbital index  |   Excitation Numbers             |   Amplitude  |
 |  Index  |   a   b   i   j |      NAI      NBJ |     NAIBJ    |              |
 +=============================================================================+
 | 1   1   |   2       1     |        2          |              |   -0.934945  |
 | 1   1   |   5       1     |        5          |              |   -0.203372  |
 | 1   1   |   5       2     |       20          |              |    0.241441  |
 +-----------------------------------------------------------------------------+
 | 1 1 1 1 |   3   2   1   1 |        3        2 |            5 |   -0.043316  |
 | 1 1 1 1 |   8   2   1   1 |        8        2 |           30 |   -0.043537  |
 | 1 1 1 1 |   3   2   2   1 |       18        2 |          155 |   -0.030439  |
 | 1 1 1 1 |   8   2   2   1 |       23        2 |          255 |   -0.043801  |
 | 1 1 1 1 |   5   4   1   1 |        5        4 |           14 |    0.027735  |
 | 1 1 1 1 |   7   5   2   1 |       22        5 |          236 |    0.030196  |
 | 1 1 1 1 |   2   8   2   1 |       17        8 |          144 |   -0.024820  |
 | 1 1 1 1 |   3   2   2   2 |       18       17 |          170 |   -0.026911  |
 | 1 1 1 1 |   4   2   2   2 |       19       17 |          188 |    0.039715  |
 | 1 1 1 1 |   7   2   2   2 |       22       17 |          248 |    0.030769  |
 | 1 1 1 1 |   8   2   2   2 |       23       17 |          270 |   -0.046731  |
 +=============================================================================+


          Norm of Printed Amplitude Vector :             0.9940

          Printed all single excitations greater than 0.165076

          Printed all double excitations greater than 0.022971


 Analysis of the Coupled Cluster Excitation Vector Number :  8
 -------------------------------------------------------------

          Excitation Energy :                            12.1703 eV


          CC_PRAM:Overall Contribution of the Different Components
          --------------------------------------------------------



          Single Excitation Contribution :              98.1004 %

          Double Excitation Contribution :               1.8996 %

          ||T1||/||T2||                  :               7.1862

          Norm of Total Amplitude Vector :               1.0000


 +=============================================================================+
 | symmetry|  orbital index  |   Excitation Numbers             |   Amplitude  |
 |  Index  |   a   b   i   j |      NAI      NBJ |     NAIBJ    |              |
 +=============================================================================+
 | 1   1   |   1       1     |        1          |              |    0.934945  |
 | 1   1   |   6       1     |        6          |              |   -0.203372  |
 | 1   1   |   6       2     |       21          |              |    0.241441  |
 +-----------------------------------------------------------------------------+
 | 1 1 1 1 |   3   1   1   1 |        3        1 |            4 |    0.043316  |
 | 1 1 1 1 |   8   1   1   1 |        8        1 |           29 |    0.043537  |
 | 1 1 1 1 |   3   1   2   1 |       18        1 |          154 |    0.030439  |
 | 1 1 1 1 |   8   1   2   1 |       23        1 |          254 |    0.043801  |
 | 1 1 1 1 |   6   4   1   1 |        6        4 |           19 |    0.027735  |
 | 1 1 1 1 |   7   6   2   1 |       22        6 |          237 |    0.030196  |
 | 1 1 1 1 |   1   8   2   1 |       16        8 |          128 |    0.024820  |
 | 1 1 1 1 |   3   1   2   2 |       18       16 |          169 |    0.026911  |
 | 1 1 1 1 |   4   1   2   2 |       19       16 |          187 |   -0.039715  |
 | 1 1 1 1 |   7   1   2   2 |       22       16 |          247 |   -0.030769  |
 | 1 1 1 1 |   8   1   2   2 |       23       16 |          269 |    0.046731  |
 +=============================================================================+


          Norm of Printed Amplitude Vector :             0.9940

          Printed all single excitations greater than 0.165076

          Printed all double excitations greater than 0.022971

 --------------------------
 Symmetry class Nr.:     1
 Multiplicity      :     3
 --------------------------

 Length of Excitation vectors in this class is:       970
 No Excitation Energies calculated in this symmetry class

 *******************************************************************

 Ground state energy is target 

 Ecorr =                    -25.19281026407691115310

 *******************************************************************
  

 *******************************************************************************
 *******************************************************************************
 *                                                                             *
 *                                                                             *
 *                   SUMMARY OF COUPLED CLUSTER CALCULATION                    *
 *                                                                             *
 *                                                                             *
 *******************************************************************************
 *******************************************************************************

                                                                                
                                                                                
            Total SCF   energy:                   -25.1195868955                
            Total MP2-R12/B energy:               -25.1924845508                
            Total CC2-R12/B energy:               -25.1928102641                
                                                                                
                                                                                
 +=============================================================================+
 |  sym. | Exci.  |        CC2-R12/B  Excitation energies            | ||T1||  |
 |(spin, |        +------------------------------------------------------------+
 | spat) |        |     Hartree    |       eV.      |     cm-1       |    %    |
 +=============================================================================+
 | ^1A   |    1   |     0.1229973  |       3.34693  |     26994.794  |  98.67  |
 | ^1A   |    2   |     0.1229973  |       3.34693  |     26994.794  |  98.67  |
 | ^1A   |    3   |     0.3304039  |       8.99075  |     72515.282  |  97.71  |
 | ^1A   |    4   |     0.3484357  |       9.48142  |     76472.795  |  97.31  |
 | ^1A   |    5   |     0.3609128  |       9.82094  |     79211.212  |  97.12  |
 | ^1A   |    6   |     0.3609128  |       9.82094  |     79211.212  |  97.12  |
 | ^1A   |    7   |     0.4472515  |      12.17033  |     98160.355  |  98.10  |
 | ^1A   |    8   |     0.4472515  |      12.17033  |     98160.355  |  98.10  |
 +=============================================================================+
                                                                                
                                                                                
     Total energies in Hartree:                                                 
             1 ^1A        -25.0698129326                                        
             2 ^1A        -25.0698129326                                        
             3 ^1A        -24.8624063231                                        
             4 ^1A        -24.8443745676                                        
             5 ^1A        -24.8318974228                                        
             6 ^1A        -24.8318974228                                        
             7 ^1A        -24.7455587740                                        
             8 ^1A        -24.7455587740                                        

  1 a.u. =        27.21138 eV.  
  1 a.u. =    219474.62934 cm-1.
  

 *******************************************************************************
 *******************************************************************************
 *                                                                             *
 *                                                                             *
 *                      END OF COUPLED CLUSTER CALCULATION                     *
 *                                                                             *
 *                                                                             *
 *******************************************************************************
 *******************************************************************************


 >>>> CPU and wall time for CC :      17.864      18.222

 
     Date and time (Linux)  : Sun Sep  8 21:08:31 2013
     Host name              : lpqlx131.ups-tlse.fr                    


                      .-------------------------------------.
                      | End of Coupled Cluster Section (CC) |
                      `-------------------------------------'

 >>>> Total CPU  time used in DALTON:  18.00 seconds
 >>>> Total wall time used in DALTON:  18.36 seconds

 
     Date and time (Linux)  : Sun Sep  8 21:08:31 2013
     Host name              : lpqlx131.ups-tlse.fr                    
