

     ************************************************************************
     *************** Dalton - An Electronic Structure Program ***************
     ************************************************************************

    This is output from DALTON (Release Dalton2013 patch 0)
   ----------------------------------------------------------------------------
    NOTE:
     
    Dalton is an experimental code for the evaluation of molecular
    properties using (MC)SCF, DFT, CI, and CC wave functions.
    The authors accept no responsibility for the performance of
    the code or for the correctness of the results.
     
    The code (in whole or part) is provided under a licence and
    is not to be reproduced for further distribution without
    the written permission of the authors or their representatives.
     
    See the home page "http://daltonprogram.org" for further information.
     
    If results obtained with this code are published,
    the appropriate citations would be both of:
     
       K. Aidas, C. Angeli, K. L. Bak, V. Bakken, R. Bast,
       L. Boman, O. Christiansen, R. Cimiraglia, S. Coriani,
       P. Dahle, E. K. Dalskov, U. Ekstroem, T. Enevoldsen,
       J. J. Eriksen, P. Ettenhuber, B. Fernandez, L. Ferrighi,
       H. Fliegl, L. Frediani, K. Hald, A. Halkier, C. Haettig,
       H. Heiberg, T. Helgaker, A. C. Hennum, H. Hettema,
       E. Hjertenaes, S. Hoest, I.-M. Hoeyvik, M. F. Iozzi,
       B. Jansik, H. J. Aa. Jensen, D. Jonsson, P. Joergensen,
       J. Kauczor, S. Kirpekar, T. Kjaergaard, W. Klopper,
       S. Knecht, R. Kobayashi, H. Koch, J. Kongsted, A. Krapp,
       K. Kristensen, A. Ligabue, O. B. Lutnaes, J. I. Melo,
       K. V. Mikkelsen, R. H. Myhre, C. Neiss, C. B. Nielsen,
       P. Norman, J. Olsen, J. M. H. Olsen, A. Osted,
       M. J. Packer, F. Pawlowski, T. B. Pedersen, P. F. Provasi,
       S. Reine, Z. Rinkevicius, T. A. Ruden, K. Ruud, V. Rybkin,
       P. Salek, C. C. M. Samson, A. Sanchez de Meras, T. Saue,
       S. P. A. Sauer, B. Schimmelpfennig, K. Sneskov,
       A. H. Steindal, K. O. Sylvester-Hvid, P. R. Taylor,
       A. M. Teale, E. I. Tellgren, D. P. Tew, A. J. Thorvaldsen,
       L. Thoegersen, O. Vahtras, M. A. Watson, D. J. D. Wilson,
       M. Ziolkowski and H. Agren.
       The Dalton quantum chemistry program system.
       WIREs Comput. Mol. Sci. 2013. doi: 10.1002/wcms.1172
    
    and
    
       Dalton, a Molecular Electronic Structure Program,
       Release DALTON2013.0 (2013), see http://daltonprogram.org
   ----------------------------------------------------------------------------

    Authors in alphabetical order (major contribution(s) in parenthesis):

  Kestutis Aidas,           Vilnius University,           Lithuania   (QM/MM)
  Celestino Angeli,         University of Ferrara,        Italy       (NEVPT2)
  Keld L. Bak,              UNI-C,                        Denmark     (AOSOPPA, non-adiabatic coupling, magnetic properties)
  Vebjoern Bakken,          University of Oslo,           Norway      (DALTON; geometry optimizer, symmetry detection)
  Radovan Bast,             KTH Stockholm                 Sweden      (DALTON installation and execution frameworks)
  Linus Boman,              NTNU,                         Norway      (Cholesky decomposition and subsystems)
  Ove Christiansen,         Aarhus University,            Denmark     (CC module)
  Renzo Cimiraglia,         University of Ferrara,        Italy       (NEVPT2)
  Sonia Coriani,            University of Trieste,        Italy       (CC module, MCD in RESPONS)
  Paal Dahle,               University of Oslo,           Norway      (Parallelization)
  Erik K. Dalskov,          UNI-C,                        Denmark     (SOPPA)
  Thomas Enevoldsen,        Univ. of Southern Denmark,    Denmark     (SOPPA)
  Janus J. Eriksen,         Aarhus University,            Denmark     (PE-MP2/SOPPA, TDA)
  Berta Fernandez,          U. of Santiago de Compostela, Spain       (doublet spin, ESR in RESPONS)
  Lara Ferrighi,            Aarhus University,            Denmark     (PCM Cubic response)
  Heike Fliegl,             University of Oslo,           Norway      (CCSD(R12))
  Luca Frediani,            UiT The Arctic U. of Norway,  Norway      (PCM)
  Bin Gao,                  UiT The Arctic U. of Norway,  Norway      (Gen1Int library)
  Christof Haettig,         Ruhr-University Bochum,       Germany     (CC module)
  Kasper Hald,              Aarhus University,            Denmark     (CC module)
  Asger Halkier,            Aarhus University,            Denmark     (CC module)
  Hanne Heiberg,            University of Oslo,           Norway      (geometry analysis, selected one-electron integrals)
  Trygve Helgaker,          University of Oslo,           Norway      (DALTON; ABACUS, ERI, DFT modules, London, and much more)
  Alf Christian Hennum,     University of Oslo,           Norway      (Parity violation)
  Hinne Hettema,            University of Auckland,       New Zealand (quadratic response in RESPONS; SIRIUS supersymmetry)
  Eirik Hjertenaes,         NTNU,                         Norway      (Cholesky decomposition)
  Maria Francesca Iozzi,    University of Oslo,           Norway      (RPA)
  Brano Jansik              Technical Univ. of Ostrava    Czech Rep.  (DFT cubic response)
  Hans Joergen Aa. Jensen,  Univ. of Southern Denmark,    Denmark     (DALTON; SIRIUS, RESPONS, ABACUS modules, London, and much more)
  Dan Jonsson,              UiT The Arctic U. of Norway,  Norway      (cubic response in RESPONS module)
  Poul Joergensen,          Aarhus University,            Denmark     (RESPONS, ABACUS, and CC modules)
  Joanna Kauczor,           Linkoeping University,        Sweden      (Complex polarization propagator (CPP) module)
  Sheela Kirpekar,          Univ. of Southern Denmark,    Denmark     (Mass-velocity & Darwin integrals)
  Wim Klopper,              KIT Karlsruhe,                Germany     (R12 code in CC, SIRIUS, and ABACUS modules)
  Stefan Knecht,            ETH Zurich,                   Switzerland (Parallel CI and MCSCF)
  Rika Kobayashi,           Australian National Univ.,    Australia   (DIIS in CC, London in MCSCF)
  Henrik Koch,              NTNU,                         Norway      (CC module, Cholesky decomposition)
  Jacob Kongsted,           Univ. of Southern Denmark,    Denmark     (Polarizable embedding, QM/MM)
  Andrea Ligabue,           University of Modena,         Italy       (CTOCD, AOSOPPA)
  Ola B. Lutnaes,           University of Oslo,           Norway      (DFT Hessian)
  Juan I. Melo,             University of Buenos Aires,   Argentina   (LRESC, Relativistic Effects on NMR Shieldings)
  Kurt V. Mikkelsen,        University of Copenhagen,     Denmark     (MC-SCRF and QM/MM)
  Rolf H. Myhre,            NTNU,                         Norway      (Cholesky, subsystems and ECC2)
  Christian Neiss,          Univ. Erlangen-Nuernberg,     Germany     (CCSD(R12))
  Christian B. Nielsen,     University of Copenhagen,     Denmark     (QM/MM)
  Patrick Norman,           Linkoeping University,        Sweden      (Cubic response and complex response in RESPONS)
  Jeppe Olsen,              Aarhus University,            Denmark     (SIRIUS CI/density modules)
  Jogvan Magnus H. Olsen,   Univ. of Southern Denmark,    Denmark     (Polarizable embedding, PE library, QM/MM)
  Anders Osted,             Copenhagen University,        Denmark     (QM/MM)
  Martin J. Packer,         University of Sheffield,      UK          (SOPPA)
  Filip Pawlowski,          Kazimierz Wielki University   Poland      (CC3)
  Thomas B. Pedersen,       University of Oslo,           Norway      (Cholesky decomposition)
  Patricio F. Provasi,      University of Northeastern,   Argentina   (Analysis of coupling constants in localized orbitals)
  Zilvinas Rinkevicius,     KTH Stockholm,                Sweden      (open-shell DFT, ESR)
  Elias Rudberg,            KTH Stockholm,                Sweden      (DFT grid and basis info)
  Torgeir A. Ruden,         University of Oslo,           Norway      (Numerical derivatives in ABACUS)
  Kenneth Ruud,             UiT The Arctic U. of Norway,  Norway      (DALTON; ABACUS magnetic properties and  much more)
  Pawel Salek,              KTH Stockholm,                Sweden      (DALTON; DFT code)
  Claire C. M. Samson       University of Karlsruhe       Germany     (Boys localization, r12 integrals in ERI)
  Alfredo Sanchez de Meras, University of Valencia,       Spain       (CC module, Cholesky decomposition)
  Trond Saue,               Paul Sabatier University,     France      (direct Fock matrix construction)
  Stephan P. A. Sauer,      University of Copenhagen,     Denmark     (SOPPA(CCSD), SOPPA prop., AOSOPPA, vibrational g-factors)
  Bernd Schimmelpfennig,    Forschungszentrum Karlsruhe,  Germany     (AMFI module)
  Kristian Sneskov,         Aarhus University,            Denmark     (QM/MM, PE-CC)
  Arnfinn H. Steindal,      UiT The Arctic U. of Norway,  Norway      (parallel QM/MM)
  K. O. Sylvester-Hvid,     University of Copenhagen,     Denmark     (MC-SCRF)
  Peter R. Taylor,          VLSCI/Univ. of Melbourne,     Australia   (Symmetry handling ABACUS, integral transformation)
  Andrew M. Teale,          University of Nottingham,     England     (DFT-AC, DFT-D)
  David P. Tew,             University of Bristol,        England     (CCSD(R12))
  Olav Vahtras,             KTH Stockholm,                Sweden      (triplet response, spin-orbit, ESR, TDDFT, open-shell DFT)
  David J. Wilson,          La Trobe University,          Australia   (DFT Hessian and DFT magnetizabilities)
  Hans Agren,               KTH Stockholm,                Sweden      (SIRIUS module, RESPONS, MC-SCRF solvation model)
 --------------------------------------------------------------------------------

     Date and time (Linux)  : Sun Sep  8 20:53:53 2013
     Host name              : lpqlx131.ups-tlse.fr                    

 * Work memory size             :    64000000 =  488.28 megabytes.

 * Directories for basis set searches:
   1) /home/bast/DALTON-2013.0-Source/build/test_dft_qr_nosym
   2) /home/bast/DALTON-2013.0-Source/build/basis


Compilation information
-----------------------

 Who compiled             | bast
 Host                     | lpqlx131.ups-tlse.fr
 System                   | Linux-3.8.5-201.fc18.x86_64
 CMake generator          | Unix Makefiles
 Processor                | x86_64
 64-bit integers          | OFF
 MPI                      | OFF
 Fortran compiler         | /usr/bin/gfortran
 Fortran compiler version | GNU Fortran (GCC) 4.7.2 20121109 (Red Hat 4.7.2-8)
 C compiler               | /usr/bin/gcc
 C compiler version       | gcc (GCC) 4.7.2 20121109 (Red Hat 4.7.2-8)
 C++ compiler             | /usr/bin/g++
 C++ compiler version     | g++ (GCC) 4.7.2 20121109 (Red Hat 4.7.2-8)
 Static linking           | OFF
 Last Git revision        | f34203295a86316e27f9e7b44f9b6769c4a046c0
 Configuration time       | 2013-09-08 20:31:27.952056


   Content of the .dal input file
 ----------------------------------

**DALTON INPUT                                    
.RUN RESPONSE                                     
.DIRECT                                           
**WAVE FUNCTIONS                                  
.DFT                                              
 LDA                                              
*SCF INPUT                                        
.THRESHOLD                                        
1e-10                                             
*DFT INPUT                                        
.GRID TYPE                                        
GC2 SSF                                           
.RADINT                                           
1e-11                                             
**RESPONSE                                        
*QUADRATIC                                        
.DIPLEN                                           
.E3TEST                                           
.BFREQ                                            
2                                                 
0 0.1                                             
**END OF DALTON INPUT                             
                                                  


   Content of the .mol file
 ----------------------------

BASIS                                                                          
aug-cc-pVDZ                                                                    
Water                                                                          
aug-cc-pVDZ basis                                                              
    2    0  X  Z                                                               
        8.    1                                                                
O      .0000   -.2249  0.0000000000                                            
        1.    2                                                                
H    -1.4523    .8996   .0000000000                                            
H     1.4523   1.0000   .0000000000                                            
                                                                               


       *******************************************************************
       *********** Output from DALTON general input processing ***********
       *******************************************************************

 --------------------------------------------------------------------------------
   Overall default print level:    0
   Print level for DALTON.STAT:    1

    AO-direct calculation (in sections where implemented)
    HERMIT 1- and 2-electron integral sections will be executed
    "Old" integral transformation used (limited to max 255 basis functions)
    Wave function sections will be executed (SIRIUS module)
    Dynamic molecular response properties section will be executed (RESPONSE module)
 --------------------------------------------------------------------------------


   ****************************************************************************
   *************** Output of molecule and basis set information ***************
   ****************************************************************************


    The two title cards from your ".mol" input:
    ------------------------------------------------------------------------
 1: Water                                                                   
 2: aug-cc-pVDZ basis                                                       
    ------------------------------------------------------------------------

  Atomic type no.    1
  --------------------
  Nuclear charge:   8.00000
  Number of symmetry independent centers:    1
  Number of basis sets to read;    2
  Basis set file used for this atomic type with Z =   8 :
     "/home/bast/DALTON-2013.0-Source/build/basis/aug-cc-pVDZ"

  Atomic type no.    2
  --------------------
  Nuclear charge:   1.00000
  Number of symmetry independent centers:    2
  Number of basis sets to read;    2
  Basis set file used for this atomic type with Z =   1 :
     "/home/bast/DALTON-2013.0-Source/build/basis/aug-cc-pVDZ"


                         SYMGRP: Point group information
                         -------------------------------

Point group: C1 


                                 Isotopic Masses
                                 ---------------

                           O          15.994915
                           H           1.007825
                           H           1.007825

                       Total mass:    18.010565 amu
                       Natural abundance:  99.730 %

 Center-of-mass coordinates (a.u.):    0.000000   -0.093434    0.000000


  Atoms and basis sets
  --------------------

  Number of atom types :    2
  Total number of atoms:    3

  Basis set used is "aug-cc-pVDZ" from the basis set library.

  label    atoms   charge   prim   cont     basis
  ----------------------------------------------------------------------
  O           1    8.0000    35    23      [10s5p2d|4s3p2d]                                   
  H           2    1.0000    11     9      [5s2p|3s2p]                                        
  ----------------------------------------------------------------------
  total:      3   10.0000    57    41
  ----------------------------------------------------------------------
  Spherical harmonic basis used.

  Threshold for neglecting AO integrals:  1.00D-12


  Cartesian Coordinates (a.u.)
  ----------------------------

  Total number of coordinates:    9
  O       :     1  x   0.0000000000    2  y  -0.2249000000    3  z   0.0000000000
  H       :     4  x  -1.4523000000    5  y   0.8996000000    6  z   0.0000000000
  H       :     7  x   1.4523000000    8  y   1.0000000000    9  z   0.0000000000


   Interatomic separations (in Angstrom):
   --------------------------------------

            O           H           H     
            ------      ------      ------
 O     :    0.000000
 H     :    0.971970    0.000000
 H     :    1.005375    1.537966    0.000000


  Max    interatomic separation is    1.5380 Angstrom (    2.9063 Bohr)
  between atoms    3 and    2, "H     " and "H     ".

  Min HX interatomic separation is    0.9720 Angstrom (    1.8368 Bohr)


  Bond distances (Angstrom):
  --------------------------

                  atom 1     atom 2       distance
                  ------     ------       --------
  bond distance:  H          O            0.971970
  bond distance:  H          O            1.005375


  Bond angles (degrees):
  ----------------------

                  atom 1     atom 2     atom 3         angle
                  ------     ------     ------         -----
  bond angle:     H          O          H            102.105




 Principal moments of inertia (u*A**2) and principal axes
 --------------------------------------------------------

   IA       0.689754          0.996640    0.081902    0.000000
   IB       1.193884         -0.081902    0.996640    0.000000
   IC       1.883637          0.000000    0.000000    1.000000


 Rotational constants
 --------------------

 The molecule is planar.

               A                   B                   C

         732694.8963         423306.7937         268299.5449 MHz
           24.440071           14.119995            8.949509 cm-1


@  Nuclear repulsion energy :    8.910364809137 Hartree


                     .---------------------------------------.
                     | Starting in Integral Section (HERMIT) |
                     `---------------------------------------'



    *************************************************************************
    ****************** Output from HERMIT input processing ******************
    *************************************************************************



     ************************************************************************
     ************************** Output from HERINT **************************
     ************************************************************************

 >>>> Total CPU  time used in HERMIT:   0.02 seconds
 >>>> Total wall time used in HERMIT:   0.02 seconds


                        .----------------------------------.
                        | End of Integral Section (HERMIT) |
                        `----------------------------------'



                   .--------------------------------------------.
                   | Starting in Wave Function Section (SIRIUS) |
                   `--------------------------------------------'



 Settings for DFT calculation:
 -----------------------------

     Default thresholds:                                       1.00D-09    1.00D-10    2.00D-12
     Default threshold for number of electrons:                1.00D-03
     DFT radial quadrature accuracy and ang. expansion order:              1.00D-11  35

 *** Output from Huckel module :

     Using EWMO model:          T
     Using EHT  model:          F
     Number of Huckel orbitals each symmetry:    7

 EWMO - Energy Weighted Maximum Overlap - is a Huckel type method,
        which normally is better than Extended Huckel Theory.
 Reference: Linderberg and Ohrn, Propagators in Quantum Chemistry (Wiley, 1973)

 Huckel EWMO eigenvalues for symmetry :  1
          -20.684498      -1.592755      -0.772289      -0.693640      -0.616200
           -0.242405      -0.178112

 **********************************************************************
 *SIRIUS* a direct, restricted step, second order MCSCF program       *
 **********************************************************************

 
     Date and time (Linux)  : Sun Sep  8 20:53:53 2013
     Host name              : lpqlx131.ups-tlse.fr                    

 Title lines from ".mol" input file:
     Water                                                                   
     aug-cc-pVDZ basis                                                       

 Print level on unit LUPRI =   2 is   0
 Print level on unit LUW4  =   2 is   5

@    Restricted, closed shell Kohn-Sham DFT calculation.

@    Time-dependent Kohn-Sham DFT calculation (TD-DFT).
 Fock matrices are calculated directly without use of integrals on disk.

 Initial molecular orbitals are obtained according to
 ".MOSTART EWMO  " input option

     Wave function specification
     ============================
@    For the wave function of type :      >>> KS-DFT <<<
@    Number of closed shell electrons          10
@    Number of electrons in active shells       0
@    Total charge of the molecule               0

@    Spin multiplicity and 2 M_S                1         0
     Total number of symmetries                 1
@    Reference state symmetry                   1
 
     This is a DFT calculation of type: LDA

     Orbital specifications
     ======================
     Abelian symmetry species          All |    1
                                       --- |  ---
@    Occupied SCF orbitals               5 |    5
     Secondary orbitals                 36 |   36
     Total number of orbitals           41 |   41
     Number of basis functions          41 |   41

     Optimization information
     ========================
@    Number of configurations                 1
@    Number of orbital rotations            180
     ------------------------------------------
@    Total number of variables              181

     Maximum number of Fock   iterations      0
     Maximum number of DIIS   iterations     60
     Maximum number of QC-SCF iterations     60
     Threshold for SCF convergence     1.00D-10
 
     This is a DFT calculation of type: LDA


 >>>>> DIIS optimization of Hartree-Fock <<<<<

 C1-DIIS algorithm; max error vectors =   10

 Iter      Total energy        Error norm    Delta(E)  DIIS dim.
 -----------------------------------------------------------------------------
   1  Screening settings (-IFTHRS, DIFDEN)   -7    F
 Postprocessing compression: from 127468 to 127420
      K-S energy, electrons, error :     -8.712433319957   9.9999995125   -4.87D-07
@  1    -75.7164873093        1.69605D+00   -7.57D+01    1
      Virial theorem: -V/T =      1.996168
@      MULPOP O      -0.51; H       0.25; H       0.26; 
 -----------------------------------------------------------------------------
   2  Screening settings (-IFTHRS, DIFDEN)   -7    F
      K-S energy, electrons, error :     -8.615251629547   9.9999996937   -3.06D-07
@  2    -75.8314161802        1.01410D+00   -1.15D-01    2
      Virial theorem: -V/T =      2.010126
@      MULPOP O      -0.03; H      -0.00; H       0.04; 
 -----------------------------------------------------------------------------
   3  Screening settings (-IFTHRS, DIFDEN)   -8    F
      K-S energy, electrons, error :     -8.856611957978   9.9999995976   -4.02D-07
@  3    -75.8598283308        6.62411D-01   -2.84D-02    3
      Virial theorem: -V/T =      1.990032
@      MULPOP O      -0.40; H       0.18; H       0.22; 
 -----------------------------------------------------------------------------
   4  Screening settings (-IFTHRS, DIFDEN)   -8    F
      K-S energy, electrons, error :     -8.688502132795   9.9999996291   -3.71D-07
@  4    -75.8797222639        1.25565D-01   -1.99D-02    4
      Virial theorem: -V/T =      2.004454
@      MULPOP O      -0.21; H       0.09; H       0.12; 
 -----------------------------------------------------------------------------
   5  Screening settings (-IFTHRS, DIFDEN)   -9    F
      K-S energy, electrons, error :     -8.713253087251   9.9999996263   -3.74D-07
@  5    -75.8804118493        6.63470D-03   -6.90D-04    5
      Virial theorem: -V/T =      2.002230
@      MULPOP O      -0.23; H       0.10; H       0.13; 
 -----------------------------------------------------------------------------
   6  Screening settings (-IFTHRS, DIFDEN)  -10    F
      K-S energy, electrons, error :     -8.714020086762   9.9999996262   -3.74D-07
@  6    -75.8804144470        4.41959D-04   -2.60D-06    6
      Virial theorem: -V/T =      2.002171
@      MULPOP O      -0.23; H       0.10; H       0.13; 
 -----------------------------------------------------------------------------
   7  Screening settings (-IFTHRS, DIFDEN)  -11    F
      K-S energy, electrons, error :     -8.714104185666   9.9999996261   -3.74D-07
@  7    -75.8804144566        6.67564D-05   -9.66D-09    7
      Virial theorem: -V/T =      2.002163
@      MULPOP O      -0.23; H       0.10; H       0.13; 
 -----------------------------------------------------------------------------
   8  Screening settings (-IFTHRS, DIFDEN)  -12    F
      K-S energy, electrons, error :     -8.714115072899   9.9999996261   -3.74D-07
@  8    -75.8804144569        1.39689D-05   -2.04D-10    8
      Virial theorem: -V/T =      2.002162
@      MULPOP O      -0.23; H       0.10; H       0.13; 
 -----------------------------------------------------------------------------
   9  Screening settings (-IFTHRS, DIFDEN)  -13    F
      K-S energy, electrons, error :     -8.714116953512   9.9999996261   -3.74D-07
@  9    -75.8804144569        1.96224D-07   -1.03D-11    9
      Virial theorem: -V/T =      2.002162
@      MULPOP O      -0.23; H       0.10; H       0.13; 
 -----------------------------------------------------------------------------
  10  Screening settings (-IFTHRS, DIFDEN)  -14    F
      K-S energy, electrons, error :     -8.714116950208   9.9999996261   -3.74D-07
@ 10    -75.8804144569        1.57397D-08   -5.83D-13   10
      Virial theorem: -V/T =      2.002162
@      MULPOP O      -0.23; H       0.10; H       0.13; 
 -----------------------------------------------------------------------------
  11  Screening settings (-IFTHRS, DIFDEN)  -16    F
      K-S energy, electrons, error :     -8.714116953019   9.9999996261   -3.74D-07
@ 11    -75.8804144569        1.34418D-09    4.97D-13   10
      Virial theorem: -V/T =      2.002162
@      MULPOP O      -0.23; H       0.10; H       0.13; 
 -----------------------------------------------------------------------------
  12  Screening settings (-IFTHRS, DIFDEN)  -16    F
      K-S energy, electrons, error :     -8.714116953104   9.9999996261   -3.74D-07
@ 12    -75.8804144569        9.20317D-11   -2.84D-14   10

@ *** DIIS converged in  12 iterations !
@     Converged SCF energy, gradient:    -75.880414456863    9.20D-11
    - total time used in SIRFCK :              0.00 seconds


 *** SCF orbital energy analysis ***

 Only the five lowest virtual orbital energies printed in each symmetry.

 Number of electrons :   10
 Orbital occupations :    5

 Sym       Kohn-Sham orbital energies

  1    -18.62657578    -0.91847818    -0.47394648    -0.34818790    -0.26859940
        -0.03777942     0.01876967     0.08921792     0.11162888     0.11799042

    E(LUMO) :    -0.03777942 au (symmetry 1)
  - E(HOMO) :    -0.26859940 au (symmetry 1)
  ------------------------------------------
    gap     :     0.23081998 au

 >>> Writing SIRIFC interface file <<<

 >>>> CPU and wall time for SCF :       9.681      10.516


                       .-----------------------------------.
                       | >>> Final results from SIRIUS <<< |
                       `-----------------------------------'


@    Spin multiplicity:           1
@    Spatial symmetry:            1
@    Total charge of molecule:    0

@    Final DFT energy:            -75.880414456863                 
@    Nuclear repulsion:             8.910364809137
@    Electronic energy:           -84.790779266000

@    Final gradient norm:           0.000000000092

 
     Date and time (Linux)  : Sun Sep  8 20:54:04 2013
     Host name              : lpqlx131.ups-tlse.fr                    

 (Only coefficients >0.0100 are printed.)

 Molecular orbitals for symmetry species  1
 ------------------------------------------

    Orbital         1        2        3        4        5        6        7
   1 O   :1s    -1.0059   0.0081   0.0001  -0.0047   0.0000   0.0102  -0.0002
   2 O   :1s    -0.0316  -0.8687  -0.0135   0.3348   0.0000   0.2940   0.0037
   3 O   :1s     0.0372   0.1259  -0.0105   0.1378  -0.0000   0.1271   0.0093
   4 O   :1s     0.0113  -0.0601  -0.0056   0.1209  -0.0000   0.2962   0.0525
   5 O   :2px    0.0002   0.0137  -0.7587   0.0121   0.0000   0.0235  -0.3210
   6 O   :2py   -0.0028  -0.1786  -0.0079  -0.7969   0.0000   0.2809  -0.0111
   7 O   :2pz   -0.0000   0.0000  -0.0000  -0.0000  -0.9196   0.0000   0.0000
   8 O   :2px   -0.0001  -0.0114   0.1826  -0.0026  -0.0000   0.0016  -0.0471
   9 O   :2py    0.0047   0.0835  -0.0004   0.0759  -0.0000   0.0306   0.0011
  10 O   :2pz    0.0000   0.0000   0.0000   0.0000   0.0101  -0.0000  -0.0000
  11 O   :2px   -0.0001  -0.0004  -0.0106   0.0010   0.0000   0.0129  -0.4249
  12 O   :2py    0.0018  -0.0128   0.0000  -0.0467  -0.0000   0.0066  -0.0108
  13 O   :2pz   -0.0000   0.0000  -0.0000  -0.0000  -0.0948   0.0000   0.0000
  14 O   :3d2-   0.0000   0.0007  -0.0241   0.0010  -0.0000  -0.0008   0.0016
  15 O   :3d1-   0.0000   0.0000  -0.0000  -0.0000  -0.0144   0.0000   0.0000
  18 O   :3d2+  -0.0003  -0.0001   0.0013   0.0124   0.0000  -0.0051   0.0003
  19 O   :3d2-   0.0001  -0.0027   0.0381   0.0008  -0.0000  -0.0003  -0.0018
  20 O   :3d1-   0.0000   0.0000   0.0000   0.0000  -0.0199  -0.0000  -0.0000
  21 O   :3d0   -0.0006  -0.0165   0.0005  -0.0047   0.0000   0.0087  -0.0000
  23 O   :3d2+   0.0005   0.0028  -0.0022   0.0204   0.0000  -0.0071   0.0003
  24 H   :1s    -0.0010  -0.3653   0.5880  -0.3414  -0.0000  -0.1183  -0.0710
  25 H   :1s    -0.0094   0.2003  -0.1553   0.0920   0.0000  -0.1953  -0.4127
  26 H   :1s    -0.0008   0.0016   0.0048  -0.0087   0.0000  -0.4165  -2.1878
  27 H   :2px    0.0008  -0.0357   0.0165  -0.0227   0.0000   0.0231   0.0120
  28 H   :2py   -0.0007   0.0197  -0.0295  -0.0073  -0.0000  -0.0124  -0.0148
  29 H   :2pz    0.0000  -0.0000  -0.0000   0.0000  -0.0277  -0.0000   0.0000
  30 H   :2px   -0.0034   0.0022   0.0161  -0.0048   0.0000   0.0348   0.0263
  31 H   :2py    0.0031  -0.0060  -0.0133  -0.0230  -0.0000  -0.0322  -0.0044
  32 H   :2pz    0.0000  -0.0000  -0.0000  -0.0000  -0.0337   0.0000   0.0000
  33 H   :1s    -0.0016  -0.3272  -0.5793  -0.3487   0.0000  -0.1551   0.0891
  34 H   :1s    -0.0083   0.1882   0.1509   0.0885   0.0000  -0.2170   0.3852
  35 H   :1s    -0.0007   0.0023  -0.0040  -0.0085   0.0000  -0.4876   2.1148
  36 H   :2px   -0.0006   0.0330   0.0170   0.0235  -0.0000  -0.0234   0.0120
  37 H   :2py   -0.0006   0.0195   0.0307  -0.0048  -0.0000  -0.0159   0.0147
  38 H   :2pz    0.0000  -0.0000  -0.0000   0.0000  -0.0264  -0.0000   0.0000
  39 H   :2px    0.0030  -0.0045   0.0156   0.0065  -0.0000  -0.0408   0.0356
  40 H   :2py    0.0031  -0.0081   0.0143  -0.0224  -0.0000  -0.0441   0.0113
  41 H   :2pz    0.0000  -0.0000  -0.0000  -0.0000  -0.0331   0.0000   0.0000



 >>>> Total CPU  time used in SIRIUS :      9.69 seconds
 >>>> Total wall time used in SIRIUS :     10.53 seconds

 
     Date and time (Linux)  : Sun Sep  8 20:54:04 2013
     Host name              : lpqlx131.ups-tlse.fr                    


                     .---------------------------------------.
                     | End of Wave Function Section (SIRIUS) |
                     `---------------------------------------'



                 .------------------------------------------------.
                 | Starting in Dynamic Property Section (RESPONS) |
                 `------------------------------------------------'


 ------------------------------------------------------------------------------
  RESPONSE  -  an MCSCF, MC-srDFT, DFT, and SOPPA response property program
 ------------------------------------------------------------------------------


 <<<<<<<<<< OUTPUT FROM RESPONSE INPUT PROCESSING >>>>>>>>>>




 Quadratic Response calculation
 ------------------------------

 First hyperpolarizability calculation : HYPCAL= T

 Spin of operator A , ISPINA=    0
 Spin of operator B , ISPINB=    0
 Spin of operator C , ISPINC=    0

  2 B-frequencies  0.000000D+00  1.000000D-01
  1 C-frequencies  0.000000D+00

 Print level                                    : IPRHYP =   2
 Maximum number of iterations in lin.rsp. solver: MAXITL =  60
 Threshold for convergence of linear resp. eq.s : THCLR  = 1.000D-03
 Maximum iterations in optimal orbital algorithm: MAXITO =   5
 Direct one-index transformation                : DIROIT= T

 Test of contributions from E3 and S3 terms.

    3 A OPERATORS OF SYMMETRY NO:    1 AND LABELS:

          XDIPLEN 
          YDIPLEN 
          ZDIPLEN 

    3 B OPERATORS OF SYMMETRY NO:    1 AND LABELS:

          XDIPLEN 
          YDIPLEN 
          ZDIPLEN 

    3 C OPERATORS OF SYMMETRY NO:    1 AND LABELS:

          XDIPLEN 
          YDIPLEN 
          ZDIPLEN 


   SCF energy         :      -75.880414456863207
 -- inactive part     :      -84.790779265999873
 -- nuclear repulsion :        8.910364809136670


                    *****************************************
                    *** DFT response calculation (TD-DFT) ***
                    *****************************************



 Linear response calculations for quadratic response
 - singlet property operator of symmetry    1


 Perturbation symmetry.     KSYMOP:       1
 Perturbation spin symmetry.TRPLET:       F
 Orbital variables.         KZWOPT:     180
 Configuration variables.   KZCONF:       0
 Total number of variables. KZVAR :     180


 QRLRVE -- linear response calculation for symmetry  1
 QRLRVE -- operator label : XDIPLEN 
 QRLRVE -- operator spin  :   0
 QRLRVE -- frequencies :  0.000000  0.100000



 <<<  SOLVING SETS OF LINEAR EQUATIONS FOR LINEAR RESPONSE PROPERTIES >>>

 Operator symmetry =  1; triplet =   F


 *** THE REQUESTED    2 SOLUTION VECTORS CONVERGED

 Convergence of RSP solution vectors, threshold = 1.00D-03
 ---------------------------------------------------------------
 (dimension of paired reduced space:   20)
 RSP solution vector no.    1; norm of residual   7.93D-05
 RSP solution vector no.    2; norm of residual   8.43D-05

 *** RSPCTL MICROITERATIONS CONVERGED

 QRLRVE: SINGLET SOLUTION FOR SYMMETRY    1    LABEL   XDIPLEN     FREQUENCY   0.000000D+00

@ QRLRVE:  << XDIPLEN  ; XDIPLEN  >> (   0.00000):     10.9165113284    

@ QRLRVE:  << YDIPLEN  ; XDIPLEN  >> (   0.00000):    0.191765707160    

@ QRLRVE:  << ZDIPLEN  ; XDIPLEN  >> (   0.00000):   -1.422778392757E-14

 QRLRVE: SINGLET SOLUTION FOR SYMMETRY    1    LABEL   XDIPLEN     FREQUENCY   0.100000D+00

@ QRLRVE:  << XDIPLEN  ; XDIPLEN  >> (   0.10000):     11.2492319959    

@ QRLRVE:  << YDIPLEN  ; XDIPLEN  >> (   0.10000):    0.205260726561    

@ QRLRVE:  << ZDIPLEN  ; XDIPLEN  >> (   0.10000):   -1.769844094012E-14


 QRLRVE -- linear response calculation for symmetry  1
 QRLRVE -- operator label : YDIPLEN 
 QRLRVE -- operator spin  :   0
 QRLRVE -- frequencies :  0.000000  0.100000



 <<<  SOLVING SETS OF LINEAR EQUATIONS FOR LINEAR RESPONSE PROPERTIES >>>

 Operator symmetry =  1; triplet =   F


 *** THE REQUESTED    2 SOLUTION VECTORS CONVERGED

 Convergence of RSP solution vectors, threshold = 1.00D-03
 ---------------------------------------------------------------
 (dimension of paired reduced space:   20)
 RSP solution vector no.    1; norm of residual   2.07D-04
 RSP solution vector no.    2; norm of residual   1.99D-04

 *** RSPCTL MICROITERATIONS CONVERGED

 QRLRVE: SINGLET SOLUTION FOR SYMMETRY    1    LABEL   YDIPLEN     FREQUENCY   0.000000D+00

@ QRLRVE:  << XDIPLEN  ; YDIPLEN  >> (   0.00000):    0.191927379371    

@ QRLRVE:  << YDIPLEN  ; YDIPLEN  >> (   0.00000):     10.2126637312    

@ QRLRVE:  << ZDIPLEN  ; YDIPLEN  >> (   0.00000):   -4.172048728794E-15

 QRLRVE: SINGLET SOLUTION FOR SYMMETRY    1    LABEL   YDIPLEN     FREQUENCY   0.100000D+00

@ QRLRVE:  << XDIPLEN  ; YDIPLEN  >> (   0.10000):    0.205427324791    

@ QRLRVE:  << YDIPLEN  ; YDIPLEN  >> (   0.10000):     10.6644689722    

@ QRLRVE:  << ZDIPLEN  ; YDIPLEN  >> (   0.10000):   -5.778188819947E-15


 QRLRVE -- linear response calculation for symmetry  1
 QRLRVE -- operator label : ZDIPLEN 
 QRLRVE -- operator spin  :   0
 QRLRVE -- frequencies :  0.000000  0.100000



 <<<  SOLVING SETS OF LINEAR EQUATIONS FOR LINEAR RESPONSE PROPERTIES >>>

 Operator symmetry =  1; triplet =   F


 *** THE REQUESTED    2 SOLUTION VECTORS CONVERGED

 Convergence of RSP solution vectors, threshold = 1.00D-03
 ---------------------------------------------------------------
 (dimension of paired reduced space:   12)
 RSP solution vector no.    1; norm of residual   3.43D-04
 RSP solution vector no.    2; norm of residual   2.63D-04

 *** RSPCTL MICROITERATIONS CONVERGED

 QRLRVE: SINGLET SOLUTION FOR SYMMETRY    1    LABEL   ZDIPLEN     FREQUENCY   0.000000D+00

@ QRLRVE:  << XDIPLEN  ; ZDIPLEN  >> (   0.00000):   -1.638172221900E-14

@ QRLRVE:  << YDIPLEN  ; ZDIPLEN  >> (   0.00000):   -1.254667101907E-14

@ QRLRVE:  << ZDIPLEN  ; ZDIPLEN  >> (   0.00000):     9.75232447930    

 QRLRVE: SINGLET SOLUTION FOR SYMMETRY    1    LABEL   ZDIPLEN     FREQUENCY   0.100000D+00

@ QRLRVE:  << XDIPLEN  ; ZDIPLEN  >> (   0.10000):   -2.032234202430E-14

@ QRLRVE:  << YDIPLEN  ; ZDIPLEN  >> (   0.10000):   -1.622840611522E-14

@ QRLRVE:  << ZDIPLEN  ; ZDIPLEN  >> (   0.10000):     10.5125939672    
 
 ======================================================================
 >>>>>>>>    L I N E A R   R E S P O N S E   F U N C T I O N   <<<<<<<<
 ======================================================================

 The -<<A;B>>(omega_b) functions from vectors generated
 in a *QUADRA calculation of <<A;B,C>>(omega_b,omega_c)

 Note: the accuracy of off-diagonal elements will be linear
 in the convergence threshold THCLR =  1.00D-03


 Perturbation symmetry.     KSYMOP:       1
 Perturbation spin symmetry.TRPLET:       F
 Orbital variables.         KZWOPT:     180
 Configuration variables.   KZCONF:       0
 Total number of variables. KZVAR :     180

@ Singlet linear response function in a.u.

@ A operator, symmetry, frequency:   XDIPLEN    1 -0.000000
@ B operator, symmetry, frequency:   XDIPLEN    1  0.000000

@ Value of linear response -<<A;B>>(omega):      10.916511328409

@ Singlet linear response function in a.u.

@ A operator, symmetry, frequency:   YDIPLEN    1 -0.000000
@ B operator, symmetry, frequency:   XDIPLEN    1  0.000000

@ Value of linear response -<<A;B>>(omega):       0.191765707160

@ Singlet linear response function in a.u.

@ A operator, symmetry, frequency:   ZDIPLEN    1 -0.000000
@ B operator, symmetry, frequency:   XDIPLEN    1  0.000000

@ Value of linear response -<<A;B>>(omega):      -0.000000000000

@ Singlet linear response function in a.u.

@ A operator, symmetry, frequency:   XDIPLEN    1 -0.100000
@ B operator, symmetry, frequency:   XDIPLEN    1  0.100000

@ Value of linear response -<<A;B>>(omega):      11.249231995937

@ Singlet linear response function in a.u.

@ A operator, symmetry, frequency:   YDIPLEN    1 -0.100000
@ B operator, symmetry, frequency:   XDIPLEN    1  0.100000

@ Value of linear response -<<A;B>>(omega):       0.205260726561

@ Singlet linear response function in a.u.

@ A operator, symmetry, frequency:   ZDIPLEN    1 -0.100000
@ B operator, symmetry, frequency:   XDIPLEN    1  0.100000

@ Value of linear response -<<A;B>>(omega):      -0.000000000000

@ Singlet linear response function in a.u.

@ A operator, symmetry, frequency:   XDIPLEN    1 -0.000000
@ B operator, symmetry, frequency:   YDIPLEN    1  0.000000

@ Value of linear response -<<A;B>>(omega):       0.191927379371

@ Singlet linear response function in a.u.

@ A operator, symmetry, frequency:   YDIPLEN    1 -0.000000
@ B operator, symmetry, frequency:   YDIPLEN    1  0.000000

@ Value of linear response -<<A;B>>(omega):      10.212663731156

@ Singlet linear response function in a.u.

@ A operator, symmetry, frequency:   ZDIPLEN    1 -0.000000
@ B operator, symmetry, frequency:   YDIPLEN    1  0.000000

@ Value of linear response -<<A;B>>(omega):      -0.000000000000

@ Singlet linear response function in a.u.

@ A operator, symmetry, frequency:   XDIPLEN    1 -0.100000
@ B operator, symmetry, frequency:   YDIPLEN    1  0.100000

@ Value of linear response -<<A;B>>(omega):       0.205427324791

@ Singlet linear response function in a.u.

@ A operator, symmetry, frequency:   YDIPLEN    1 -0.100000
@ B operator, symmetry, frequency:   YDIPLEN    1  0.100000

@ Value of linear response -<<A;B>>(omega):      10.664468972176

@ Singlet linear response function in a.u.

@ A operator, symmetry, frequency:   ZDIPLEN    1 -0.100000
@ B operator, symmetry, frequency:   YDIPLEN    1  0.100000

@ Value of linear response -<<A;B>>(omega):      -0.000000000000

@ Singlet linear response function in a.u.

@ A operator, symmetry, frequency:   XDIPLEN    1 -0.000000
@ B operator, symmetry, frequency:   ZDIPLEN    1  0.000000

@ Value of linear response -<<A;B>>(omega):      -0.000000000000

@ Singlet linear response function in a.u.

@ A operator, symmetry, frequency:   YDIPLEN    1 -0.000000
@ B operator, symmetry, frequency:   ZDIPLEN    1  0.000000

@ Value of linear response -<<A;B>>(omega):      -0.000000000000

@ Singlet linear response function in a.u.

@ A operator, symmetry, frequency:   ZDIPLEN    1 -0.000000
@ B operator, symmetry, frequency:   ZDIPLEN    1  0.000000

@ Value of linear response -<<A;B>>(omega):       9.752324479297

@ Singlet linear response function in a.u.

@ A operator, symmetry, frequency:   XDIPLEN    1 -0.100000
@ B operator, symmetry, frequency:   ZDIPLEN    1  0.100000

@ Value of linear response -<<A;B>>(omega):      -0.000000000000

@ Singlet linear response function in a.u.

@ A operator, symmetry, frequency:   YDIPLEN    1 -0.100000
@ B operator, symmetry, frequency:   ZDIPLEN    1  0.100000

@ Value of linear response -<<A;B>>(omega):      -0.000000000000

@ Singlet linear response function in a.u.

@ A operator, symmetry, frequency:   ZDIPLEN    1 -0.100000
@ B operator, symmetry, frequency:   ZDIPLEN    1  0.100000

@ Value of linear response -<<A;B>>(omega):      10.512593967168


  Results from quadratic response calculation
 --------------------------------------------

 1norm(B - C) = BMINC =   0.0000000000000000     
 DFT-QR computed in a linearly-scaling fashion.


   COU CONTRIBUTION TO HYPVAL         -0.36019116         -0.36019116

   DFT CONTRIBUTION TO HYPVAL         -0.00810942         -0.36830058
@ B-freq = 0.000000  C-freq = 0.000000     beta(X;X,X) =      0.24049377
@ B-freq = 0.000000  C-freq = 0.000000     beta(Y;X,X) =    -18.79765732
@ B-freq = 0.000000  C-freq = 0.000000     beta(Z;X,X) =      0.00000000

   COU CONTRIBUTION TO HYPVAL         -0.42106589         -0.42106589

   DFT CONTRIBUTION TO HYPVAL          0.00092263         -0.42014326
 S3TEST Case 1    :              0.00000000
 S3TEST Case 1 ZC :              0.00000000
 S3TEST Case 1 ZO :              0.00000000
 S3TEST Case 1 YC :              0.00000000
 S3TEST Case 1 YO :              0.00000000
 S3TEST Final result    :              0.00000000
 S3TEST Final result ZC :              0.00000000
 S3TEST Final result ZO :              0.00000000
 S3TEST Final result YC :              0.00000000
 S3TEST Final result YO :              0.00000000
@ B-freq = 0.100000  C-freq = 0.000000     beta(X;X,X) =      0.22352100
@ B-freq = 0.100000  C-freq = 0.000000     beta(Y;X,X) =    -21.30376015
@ B-freq = 0.100000  C-freq = 0.000000     beta(Z;X,X) =      0.00000000
@ B-freq = 0.000000  C-freq = 0.000000     beta(X;Y,X) = beta(Y,X,X)
 1norm(B - C) = BMINC =   26.401427566486610     

   COU CONTRIBUTION TO HYPVAL        -10.13427674        -10.13427674

   DFT CONTRIBUTION TO HYPVAL          2.38414046         -7.75013629
@ B-freq = 0.000000  C-freq = 0.000000     beta(X;Y,X) =    -18.79765732
@ B-freq = 0.000000  C-freq = 0.000000     beta(Y;Y,X) =     -1.21574333
@ B-freq = 0.000000  C-freq = 0.000000     beta(Z;Y,X) =      0.00000000

   COU CONTRIBUTION TO HYPVAL        -11.22913129        -11.22913129

   DFT CONTRIBUTION TO HYPVAL          2.76754615         -8.46158514
 S3TEST Case 1    :              0.00000000
 S3TEST Case 1 ZC :              0.00000000
 S3TEST Case 1 ZO :              0.00000000
 S3TEST Case 1 YC :              0.00000000
 S3TEST Case 1 YO :              0.00000000
 S3TEST Final result    :              0.00000000
 S3TEST Final result ZC :              0.00000000
 S3TEST Final result ZO :              0.00000000
 S3TEST Final result YC :              0.00000000
 S3TEST Final result YO :              0.00000000
@ B-freq = 0.100000  C-freq = 0.000000     beta(X;Y,X) =    -21.30376015
@ B-freq = 0.100000  C-freq = 0.000000     beta(Y;Y,X) =     -1.39859971
@ B-freq = 0.100000  C-freq = 0.000000     beta(Z;Y,X) =      0.00000000
@ B-freq = 0.000000  C-freq = 0.000000     beta(X;Z,X) = beta(Z,X,X)
@ B-freq = 0.000000  C-freq = 0.000000     beta(Y;Z,X) = beta(Z,Y,X)
 1norm(B - C) = BMINC =   28.542630825223892     

   COU CONTRIBUTION TO HYPVAL          0.00000000          0.00000000

   DFT CONTRIBUTION TO HYPVAL         -0.00000000          0.00000000
@ B-freq = 0.000000  C-freq = 0.000000     beta(X;Z,X) =      0.00000000
@ B-freq = 0.000000  C-freq = 0.000000     beta(Y;Z,X) =      0.00000000
@ B-freq = 0.000000  C-freq = 0.000000     beta(Z;Z,X) =      0.67576012

   COU CONTRIBUTION TO HYPVAL          0.00000000          0.00000000

   DFT CONTRIBUTION TO HYPVAL         -0.00000000          0.00000000
 S3TEST Case 1    :              0.00000000
 S3TEST Case 1 ZC :              0.00000000
 S3TEST Case 1 ZO :              0.00000000
 S3TEST Case 1 YC :              0.00000000
 S3TEST Case 1 YO :              0.00000000
 S3TEST Final result    :              0.00000000
 S3TEST Final result ZC :              0.00000000
 S3TEST Final result ZO :              0.00000000
 S3TEST Final result YC :              0.00000000
 S3TEST Final result YO :              0.00000000
@ B-freq = 0.100000  C-freq = 0.000000     beta(X;Z,X) =      0.00000000
@ B-freq = 0.100000  C-freq = 0.000000     beta(Y;Z,X) =      0.00000000
@ B-freq = 0.100000  C-freq = 0.000000     beta(Z;Z,X) =      1.04501799
@ B-freq = 0.000000  C-freq = 0.000000     beta(X;X,Y) = beta(Y,X,X)
@ B-freq = 0.000000  C-freq = 0.000000     beta(Y;X,Y) = beta(Y,Y,X)
@ B-freq = 0.000000  C-freq = 0.000000     beta(Z;X,Y) = beta(Z,Y,X)

   COU CONTRIBUTION TO HYPVAL        -11.30873056        -11.30873056

   DFT CONTRIBUTION TO HYPVAL          2.72649849         -8.58223207
 S3TEST Case 1    :              0.00000000
 S3TEST Case 1 ZC :              0.00000000
 S3TEST Case 1 ZO :              0.00000000
 S3TEST Case 1 YC :              0.00000000
 S3TEST Case 1 YO :              0.00000000
 S3TEST Final result    :              0.00000000
 S3TEST Final result ZC :              0.00000000
 S3TEST Final result ZO :              0.00000000
 S3TEST Final result YC :              0.00000000
 S3TEST Final result YO :              0.00000000
@ B-freq = 0.100000  C-freq = 0.000000     beta(X;X,Y) =    -21.05606596
@ B-freq = 0.100000  C-freq = 0.000000     beta(Y;X,Y) =     -1.39866278
@ B-freq = 0.100000  C-freq = 0.000000     beta(Z;X,Y) =      0.00000000
@ B-freq = 0.000000  C-freq = 0.000000     beta(X;Y,Y) = beta(Y,Y,X)
 1norm(B - C) = BMINC =   0.0000000000000000     

   COU CONTRIBUTION TO HYPVAL         -0.66670192         -0.66670192

   DFT CONTRIBUTION TO HYPVAL          0.14473567         -0.52196625
@ B-freq = 0.000000  C-freq = 0.000000     beta(X;Y,Y) =     -1.21574333
@ B-freq = 0.000000  C-freq = 0.000000     beta(Y;Y,Y) =     -8.23359589
@ B-freq = 0.000000  C-freq = 0.000000     beta(Z;Y,Y) =      0.00000000

   COU CONTRIBUTION TO HYPVAL         -0.78274258         -0.78274258

   DFT CONTRIBUTION TO HYPVAL          0.17811805         -0.60462453
 S3TEST Case 1    :              0.00000000
 S3TEST Case 1 ZC :              0.00000000
 S3TEST Case 1 ZO :              0.00000000
 S3TEST Case 1 YC :              0.00000000
 S3TEST Case 1 YO :              0.00000000
 S3TEST Final result    :              0.00000000
 S3TEST Final result ZC :              0.00000000
 S3TEST Final result ZO :              0.00000000
 S3TEST Final result YC :              0.00000000
 S3TEST Final result YO :              0.00000000
@ B-freq = 0.100000  C-freq = 0.000000     beta(X;Y,Y) =     -1.39866278
@ B-freq = 0.100000  C-freq = 0.000000     beta(Y;Y,Y) =    -10.33620243
@ B-freq = 0.100000  C-freq = 0.000000     beta(Z;Y,Y) =      0.00000000
@ B-freq = 0.000000  C-freq = 0.000000     beta(X;Z,Y) = beta(Z,Y,X)
@ B-freq = 0.000000  C-freq = 0.000000     beta(Y;Z,Y) = beta(Z,Y,Y)
 1norm(B - C) = BMINC =   28.763353430050618     

   COU CONTRIBUTION TO HYPVAL          0.00000000          0.00000000

   DFT CONTRIBUTION TO HYPVAL         -0.00000000          0.00000000
@ B-freq = 0.000000  C-freq = 0.000000     beta(X;Z,Y) =      0.00000000
@ B-freq = 0.000000  C-freq = 0.000000     beta(Y;Z,Y) =      0.00000000
@ B-freq = 0.000000  C-freq = 0.000000     beta(Z;Z,Y) =     -4.23722326

   COU CONTRIBUTION TO HYPVAL          0.00000000          0.00000000

   DFT CONTRIBUTION TO HYPVAL         -0.00000000          0.00000000
 S3TEST Case 1    :              0.00000000
 S3TEST Case 1 ZC :              0.00000000
 S3TEST Case 1 ZO :              0.00000000
 S3TEST Case 1 YC :              0.00000000
 S3TEST Case 1 YO :              0.00000000
 S3TEST Final result    :              0.00000000
 S3TEST Final result ZC :              0.00000000
 S3TEST Final result ZO :              0.00000000
 S3TEST Final result YC :              0.00000000
 S3TEST Final result YO :              0.00000000
@ B-freq = 0.100000  C-freq = 0.000000     beta(X;Z,Y) =      0.00000000
@ B-freq = 0.100000  C-freq = 0.000000     beta(Y;Z,Y) =      0.00000000
@ B-freq = 0.100000  C-freq = 0.000000     beta(Z;Z,Y) =    -12.95552878
@ B-freq = 0.000000  C-freq = 0.000000     beta(X;X,Z) = beta(Z,X,X)
@ B-freq = 0.000000  C-freq = 0.000000     beta(Y;X,Z) = beta(Z,Y,X)
@ B-freq = 0.000000  C-freq = 0.000000     beta(Z;X,Z) = beta(Z,Z,X)

   COU CONTRIBUTION TO HYPVAL          0.00000000          0.00000000

   DFT CONTRIBUTION TO HYPVAL         -0.00000000          0.00000000
 S3TEST Case 1    :              0.00000000
 S3TEST Case 1 ZC :              0.00000000
 S3TEST Case 1 ZO :              0.00000000
 S3TEST Case 1 YC :              0.00000000
 S3TEST Case 1 YO :              0.00000000
 S3TEST Final result    :              0.00000000
 S3TEST Final result ZC :              0.00000000
 S3TEST Final result ZO :              0.00000000
 S3TEST Final result YC :              0.00000000
 S3TEST Final result YO :              0.00000000
@ B-freq = 0.100000  C-freq = 0.000000     beta(X;X,Z) =      0.00000000
@ B-freq = 0.100000  C-freq = 0.000000     beta(Y;X,Z) =      0.00000000
@ B-freq = 0.100000  C-freq = 0.000000     beta(Z;X,Z) =      0.82541487
@ B-freq = 0.000000  C-freq = 0.000000     beta(X;Y,Z) = beta(Z,Y,X)
@ B-freq = 0.000000  C-freq = 0.000000     beta(Y;Y,Z) = beta(Z,Y,Y)
@ B-freq = 0.000000  C-freq = 0.000000     beta(Z;Y,Z) = beta(Z,Z,Y)

   COU CONTRIBUTION TO HYPVAL          0.00000000          0.00000000

   DFT CONTRIBUTION TO HYPVAL         -0.00000000          0.00000000
 S3TEST Case 1    :              0.00000000
 S3TEST Case 1 ZC :              0.00000000
 S3TEST Case 1 ZO :              0.00000000
 S3TEST Case 1 YC :              0.00000000
 S3TEST Case 1 YO :              0.00000000
 S3TEST Final result    :              0.00000000
 S3TEST Final result ZC :              0.00000000
 S3TEST Final result ZO :              0.00000000
 S3TEST Final result YC :              0.00000000
 S3TEST Final result YO :              0.00000000
@ B-freq = 0.100000  C-freq = 0.000000     beta(X;Y,Z) =      0.00000000
@ B-freq = 0.100000  C-freq = 0.000000     beta(Y;Y,Z) =      0.00000000
@ B-freq = 0.100000  C-freq = 0.000000     beta(Z;Y,Z) =     -5.07307922
@ B-freq = 0.000000  C-freq = 0.000000     beta(X;Z,Z) = beta(Z,Z,X)
@ B-freq = 0.000000  C-freq = 0.000000     beta(Y;Z,Z) = beta(Z,Z,Y)
 1norm(B - C) = BMINC =   0.0000000000000000     

   COU CONTRIBUTION TO HYPVAL         -0.09299860         -0.09299860

   DFT CONTRIBUTION TO HYPVAL         -0.04102776         -0.13402636
@ B-freq = 0.000000  C-freq = 0.000000     beta(X;Z,Z) =      0.67576012
@ B-freq = 0.000000  C-freq = 0.000000     beta(Y;Z,Z) =     -4.23722326
@ B-freq = 0.000000  C-freq = 0.000000     beta(Z;Z,Z) =     -0.00000000

   COU CONTRIBUTION TO HYPVAL         -0.12796607         -0.12796607

   DFT CONTRIBUTION TO HYPVAL         -0.04596002         -0.17392609
 S3TEST Case 1    :              0.00000000
 S3TEST Case 1 ZC :              0.00000000
 S3TEST Case 1 ZO :              0.00000000
 S3TEST Case 1 YC :              0.00000000
 S3TEST Case 1 YO :              0.00000000
 S3TEST Final result    :              0.00000000
 S3TEST Final result ZC :              0.00000000
 S3TEST Final result ZO :              0.00000000
 S3TEST Final result YC :              0.00000000
 S3TEST Final result YO :              0.00000000
@ B-freq = 0.100000  C-freq = 0.000000     beta(X;Z,Z) =      0.82541487
@ B-freq = 0.100000  C-freq = 0.000000     beta(Y;Z,Z) =     -5.07307922
@ B-freq = 0.100000  C-freq = 0.000000     beta(Z;Z,Z) =     -0.00000000

 >>>> Total CPU  time used in RESPONSE:  1 minute   8 seconds
 >>>> Total wall time used in RESPONSE:  1 minute  11 seconds


                   .-------------------------------------------.
                   | End of Dynamic Property Section (RESPONS) |
                   `-------------------------------------------'

 >>>> Total CPU  time used in DALTON:  1 minute  18 seconds
 >>>> Total wall time used in DALTON:  1 minute  22 seconds

 
     Date and time (Linux)  : Sun Sep  8 20:55:15 2013
     Host name              : lpqlx131.ups-tlse.fr                    
