

     ************************************************************************
     *************** Dalton - An Electronic Structure Program ***************
     ************************************************************************

    This is output from DALTON (Release Dalton2013 patch 0)
   ----------------------------------------------------------------------------
    NOTE:
     
    Dalton is an experimental code for the evaluation of molecular
    properties using (MC)SCF, DFT, CI, and CC wave functions.
    The authors accept no responsibility for the performance of
    the code or for the correctness of the results.
     
    The code (in whole or part) is provided under a licence and
    is not to be reproduced for further distribution without
    the written permission of the authors or their representatives.
     
    See the home page "http://daltonprogram.org" for further information.
     
    If results obtained with this code are published,
    the appropriate citations would be both of:
     
       K. Aidas, C. Angeli, K. L. Bak, V. Bakken, R. Bast,
       L. Boman, O. Christiansen, R. Cimiraglia, S. Coriani,
       P. Dahle, E. K. Dalskov, U. Ekstroem, T. Enevoldsen,
       J. J. Eriksen, P. Ettenhuber, B. Fernandez, L. Ferrighi,
       H. Fliegl, L. Frediani, K. Hald, A. Halkier, C. Haettig,
       H. Heiberg, T. Helgaker, A. C. Hennum, H. Hettema,
       E. Hjertenaes, S. Hoest, I.-M. Hoeyvik, M. F. Iozzi,
       B. Jansik, H. J. Aa. Jensen, D. Jonsson, P. Joergensen,
       J. Kauczor, S. Kirpekar, T. Kjaergaard, W. Klopper,
       S. Knecht, R. Kobayashi, H. Koch, J. Kongsted, A. Krapp,
       K. Kristensen, A. Ligabue, O. B. Lutnaes, J. I. Melo,
       K. V. Mikkelsen, R. H. Myhre, C. Neiss, C. B. Nielsen,
       P. Norman, J. Olsen, J. M. H. Olsen, A. Osted,
       M. J. Packer, F. Pawlowski, T. B. Pedersen, P. F. Provasi,
       S. Reine, Z. Rinkevicius, T. A. Ruden, K. Ruud, V. Rybkin,
       P. Salek, C. C. M. Samson, A. Sanchez de Meras, T. Saue,
       S. P. A. Sauer, B. Schimmelpfennig, K. Sneskov,
       A. H. Steindal, K. O. Sylvester-Hvid, P. R. Taylor,
       A. M. Teale, E. I. Tellgren, D. P. Tew, A. J. Thorvaldsen,
       L. Thoegersen, O. Vahtras, M. A. Watson, D. J. D. Wilson,
       M. Ziolkowski and H. Agren.
       The Dalton quantum chemistry program system.
       WIREs Comput. Mol. Sci. 2013. doi: 10.1002/wcms.1172
    
    and
    
       Dalton, a Molecular Electronic Structure Program,
       Release DALTON2013.0 (2013), see http://daltonprogram.org
   ----------------------------------------------------------------------------

    Authors in alphabetical order (major contribution(s) in parenthesis):

  Kestutis Aidas,           Vilnius University,           Lithuania   (QM/MM)
  Celestino Angeli,         University of Ferrara,        Italy       (NEVPT2)
  Keld L. Bak,              UNI-C,                        Denmark     (AOSOPPA, non-adiabatic coupling, magnetic properties)
  Vebjoern Bakken,          University of Oslo,           Norway      (DALTON; geometry optimizer, symmetry detection)
  Radovan Bast,             KTH Stockholm                 Sweden      (DALTON installation and execution frameworks)
  Linus Boman,              NTNU,                         Norway      (Cholesky decomposition and subsystems)
  Ove Christiansen,         Aarhus University,            Denmark     (CC module)
  Renzo Cimiraglia,         University of Ferrara,        Italy       (NEVPT2)
  Sonia Coriani,            University of Trieste,        Italy       (CC module, MCD in RESPONS)
  Paal Dahle,               University of Oslo,           Norway      (Parallelization)
  Erik K. Dalskov,          UNI-C,                        Denmark     (SOPPA)
  Thomas Enevoldsen,        Univ. of Southern Denmark,    Denmark     (SOPPA)
  Janus J. Eriksen,         Aarhus University,            Denmark     (PE-MP2/SOPPA, TDA)
  Berta Fernandez,          U. of Santiago de Compostela, Spain       (doublet spin, ESR in RESPONS)
  Lara Ferrighi,            Aarhus University,            Denmark     (PCM Cubic response)
  Heike Fliegl,             University of Oslo,           Norway      (CCSD(R12))
  Luca Frediani,            UiT The Arctic U. of Norway,  Norway      (PCM)
  Bin Gao,                  UiT The Arctic U. of Norway,  Norway      (Gen1Int library)
  Christof Haettig,         Ruhr-University Bochum,       Germany     (CC module)
  Kasper Hald,              Aarhus University,            Denmark     (CC module)
  Asger Halkier,            Aarhus University,            Denmark     (CC module)
  Hanne Heiberg,            University of Oslo,           Norway      (geometry analysis, selected one-electron integrals)
  Trygve Helgaker,          University of Oslo,           Norway      (DALTON; ABACUS, ERI, DFT modules, London, and much more)
  Alf Christian Hennum,     University of Oslo,           Norway      (Parity violation)
  Hinne Hettema,            University of Auckland,       New Zealand (quadratic response in RESPONS; SIRIUS supersymmetry)
  Eirik Hjertenaes,         NTNU,                         Norway      (Cholesky decomposition)
  Maria Francesca Iozzi,    University of Oslo,           Norway      (RPA)
  Brano Jansik              Technical Univ. of Ostrava    Czech Rep.  (DFT cubic response)
  Hans Joergen Aa. Jensen,  Univ. of Southern Denmark,    Denmark     (DALTON; SIRIUS, RESPONS, ABACUS modules, London, and much more)
  Dan Jonsson,              UiT The Arctic U. of Norway,  Norway      (cubic response in RESPONS module)
  Poul Joergensen,          Aarhus University,            Denmark     (RESPONS, ABACUS, and CC modules)
  Joanna Kauczor,           Linkoeping University,        Sweden      (Complex polarization propagator (CPP) module)
  Sheela Kirpekar,          Univ. of Southern Denmark,    Denmark     (Mass-velocity & Darwin integrals)
  Wim Klopper,              KIT Karlsruhe,                Germany     (R12 code in CC, SIRIUS, and ABACUS modules)
  Stefan Knecht,            ETH Zurich,                   Switzerland (Parallel CI and MCSCF)
  Rika Kobayashi,           Australian National Univ.,    Australia   (DIIS in CC, London in MCSCF)
  Henrik Koch,              NTNU,                         Norway      (CC module, Cholesky decomposition)
  Jacob Kongsted,           Univ. of Southern Denmark,    Denmark     (Polarizable embedding, QM/MM)
  Andrea Ligabue,           University of Modena,         Italy       (CTOCD, AOSOPPA)
  Ola B. Lutnaes,           University of Oslo,           Norway      (DFT Hessian)
  Juan I. Melo,             University of Buenos Aires,   Argentina   (LRESC, Relativistic Effects on NMR Shieldings)
  Kurt V. Mikkelsen,        University of Copenhagen,     Denmark     (MC-SCRF and QM/MM)
  Rolf H. Myhre,            NTNU,                         Norway      (Cholesky, subsystems and ECC2)
  Christian Neiss,          Univ. Erlangen-Nuernberg,     Germany     (CCSD(R12))
  Christian B. Nielsen,     University of Copenhagen,     Denmark     (QM/MM)
  Patrick Norman,           Linkoeping University,        Sweden      (Cubic response and complex response in RESPONS)
  Jeppe Olsen,              Aarhus University,            Denmark     (SIRIUS CI/density modules)
  Jogvan Magnus H. Olsen,   Univ. of Southern Denmark,    Denmark     (Polarizable embedding, PE library, QM/MM)
  Anders Osted,             Copenhagen University,        Denmark     (QM/MM)
  Martin J. Packer,         University of Sheffield,      UK          (SOPPA)
  Filip Pawlowski,          Kazimierz Wielki University   Poland      (CC3)
  Thomas B. Pedersen,       University of Oslo,           Norway      (Cholesky decomposition)
  Patricio F. Provasi,      University of Northeastern,   Argentina   (Analysis of coupling constants in localized orbitals)
  Zilvinas Rinkevicius,     KTH Stockholm,                Sweden      (open-shell DFT, ESR)
  Elias Rudberg,            KTH Stockholm,                Sweden      (DFT grid and basis info)
  Torgeir A. Ruden,         University of Oslo,           Norway      (Numerical derivatives in ABACUS)
  Kenneth Ruud,             UiT The Arctic U. of Norway,  Norway      (DALTON; ABACUS magnetic properties and  much more)
  Pawel Salek,              KTH Stockholm,                Sweden      (DALTON; DFT code)
  Claire C. M. Samson       University of Karlsruhe       Germany     (Boys localization, r12 integrals in ERI)
  Alfredo Sanchez de Meras, University of Valencia,       Spain       (CC module, Cholesky decomposition)
  Trond Saue,               Paul Sabatier University,     France      (direct Fock matrix construction)
  Stephan P. A. Sauer,      University of Copenhagen,     Denmark     (SOPPA(CCSD), SOPPA prop., AOSOPPA, vibrational g-factors)
  Bernd Schimmelpfennig,    Forschungszentrum Karlsruhe,  Germany     (AMFI module)
  Kristian Sneskov,         Aarhus University,            Denmark     (QM/MM, PE-CC)
  Arnfinn H. Steindal,      UiT The Arctic U. of Norway,  Norway      (parallel QM/MM)
  K. O. Sylvester-Hvid,     University of Copenhagen,     Denmark     (MC-SCRF)
  Peter R. Taylor,          VLSCI/Univ. of Melbourne,     Australia   (Symmetry handling ABACUS, integral transformation)
  Andrew M. Teale,          University of Nottingham,     England     (DFT-AC, DFT-D)
  David P. Tew,             University of Bristol,        England     (CCSD(R12))
  Olav Vahtras,             KTH Stockholm,                Sweden      (triplet response, spin-orbit, ESR, TDDFT, open-shell DFT)
  David J. Wilson,          La Trobe University,          Australia   (DFT Hessian and DFT magnetizabilities)
  Hans Agren,               KTH Stockholm,                Sweden      (SIRIUS module, RESPONS, MC-SCRF solvation model)
 --------------------------------------------------------------------------------

     Date and time (Linux)  : Sun Sep  8 21:16:18 2013
     Host name              : lpqlx131.ups-tlse.fr                    

 * Work memory size             :    64000000 =  488.28 megabytes.

 * Directories for basis set searches:
   1) /home/bast/DALTON-2013.0-Source/build/test_dpt_hbr
   2) /home/bast/DALTON-2013.0-Source/build/basis


Compilation information
-----------------------

 Who compiled             | bast
 Host                     | lpqlx131.ups-tlse.fr
 System                   | Linux-3.8.5-201.fc18.x86_64
 CMake generator          | Unix Makefiles
 Processor                | x86_64
 64-bit integers          | OFF
 MPI                      | OFF
 Fortran compiler         | /usr/bin/gfortran
 Fortran compiler version | GNU Fortran (GCC) 4.7.2 20121109 (Red Hat 4.7.2-8)
 C compiler               | /usr/bin/gcc
 C compiler version       | gcc (GCC) 4.7.2 20121109 (Red Hat 4.7.2-8)
 C++ compiler             | /usr/bin/g++
 C++ compiler version     | g++ (GCC) 4.7.2 20121109 (Red Hat 4.7.2-8)
 Static linking           | OFF
 Last Git revision        | f34203295a86316e27f9e7b44f9b6769c4a046c0
 Configuration time       | 2013-09-08 20:31:27.952056


   Content of the .dal input file
 ----------------------------------

**DALTON INPUT                                    
.RUN WAVE FUNCTIONS                               
**INTEGRAL                                        
.DIPLEN                                           
.THETA                                            
.EFGCAR                                           
.SECMOM                                           
.DARWIN                                           
.MASSVELO                                         
.DPTPOT                                           
.KINENER                                          
**WAVE FUNCTION                                   
.CC                                               
*SCF INP                                          
.THRESH                                           
 1.0D-10                                          
*CC INP                                           
.CCS                                              
.CCSD                                             
.PRINT                                            
 4                                                
.THRENR                                           
1.0D-10                                           
.THRLEQ                                           
1.0D-07                                           
.FROIMP                                           
 5 2 2 0                                          
 0 0 0 0                                          
*CCFOP                                            
.ALLONE                                           
.DPTECO                                           
.2ELDAR                                           
**END OF DALTON INPUT                             


   Content of the .mol file
 ----------------------------

BASIS                                                                          
Ahlrichs-VDZ                                                                   
First-order relativistic corrections (frozen core)                             
                                                                               
    2    2  X  Y      1.00D-15                                                 
       35.0   1                                                                
Br      0.00000000000000    0.00000000000000    0.00000000000000       *       
        1.0   1                                                                
H       0.00000000000000    0.00000000000000    2.67207254785060       *       


       *******************************************************************
       *********** Output from DALTON general input processing ***********
       *******************************************************************

 --------------------------------------------------------------------------------
   Overall default print level:    0
   Print level for DALTON.STAT:    1

    HERMIT 1- and 2-electron integral sections will be executed
    "Old" integral transformation used (limited to max 255 basis functions)
    Wave function sections will be executed (SIRIUS module)
 --------------------------------------------------------------------------------


   ****************************************************************************
   *************** Output of molecule and basis set information ***************
   ****************************************************************************


    The two title cards from your ".mol" input:
    ------------------------------------------------------------------------
 1: First-order relativistic corrections (frozen core)                      
 2:                                                                         
    ------------------------------------------------------------------------

  Atomic type no.    1
  --------------------
  Nuclear charge:  35.00000
  Number of symmetry independent centers:    1
  Number of basis sets to read;    2
  Basis set file used for this atomic type with Z =  35 :
     "/home/bast/DALTON-2013.0-Source/build/basis/Ahlrichs-VDZ"

  Atomic type no.    2
  --------------------
  Nuclear charge:   1.00000
  Number of symmetry independent centers:    1
  Number of basis sets to read;    2
  Basis set file used for this atomic type with Z =   1 :
     "/home/bast/DALTON-2013.0-Source/build/basis/Ahlrichs-VDZ"


                         SYMGRP: Point group information
                         -------------------------------

Point group: C2v

   * The point group was generated by:

      Reflection in the yz-plane
      Reflection in the xz-plane

   * Group multiplication table

        |  E   C2z  Oxz  Oyz
   -----+--------------------
     E  |  E   C2z  Oxz  Oyz
    C2z | C2z   E   Oyz  Oxz
    Oxz | Oxz  Oyz   E   C2z
    Oyz | Oyz  Oxz  C2z   E 

   * Character table

        |  E   C2z  Oxz  Oyz
   -----+--------------------
    A1  |   1    1    1    1
    B1  |   1   -1    1   -1
    B2  |   1   -1   -1    1
    A2  |   1    1   -1   -1

   * Direct product table

        | A1   B1   B2   A2 
   -----+--------------------
    A1  | A1   B1   B2   A2 
    B1  | B1   A1   A2   B2 
    B2  | B2   A2   A1   B1 
    A2  | A2   B2   B1   A1 


                                 Isotopic Masses
                                 ---------------

                           Br         78.918336
                           H           1.007825

                       Total mass:    79.926161 amu
                       Natural abundance:  50.682 %

 Center-of-mass coordinates (a.u.):    0.000000    0.000000    0.033693


  Atoms and basis sets
  --------------------

  Number of atom types :    2
  Total number of atoms:    2

  Basis set used is "Ahlrichs-VDZ" from the basis set library.

  label    atoms   charge   prim   cont     basis
  ----------------------------------------------------------------------
  Br          1   35.0000    69    27      [14s10p5d|5s4p2d]                                  
  H           1    1.0000     4     2      [4s|2s]                                            
  ----------------------------------------------------------------------
  total:      2   36.0000    73    29
  ----------------------------------------------------------------------
  Spherical harmonic basis used.

  Threshold for neglecting AO integrals:  1.00D-15


  Cartesian Coordinates (a.u.)
  ----------------------------

  Total number of coordinates:    6
  Br      :     1  x   0.0000000000    2  y   0.0000000000    3  z   0.0000000000
  H       :     4  x   0.0000000000    5  y   0.0000000000    6  z   2.6720725479


  Symmetry Coordinates
  --------------------

  Number of coordinates in each symmetry:     2    2    2    0

  Symmetry  A1  ( 1)

    1   Br    z    3
    2   H     z    6

  Symmetry  B1  ( 2)

    3   Br    x    1
    4   H     x    4

  Symmetry  B2  ( 3)

    5   Br    y    2
    6   H     y    5


   Interatomic separations (in Angstrom):
   --------------------------------------

            Br          H     
            ------      ------
 Br    :    0.000000
 H     :    1.414000    0.000000


  Max    interatomic separation is    1.4140 Angstrom (    2.6721 Bohr)
  between atoms    2 and    1, "H     " and "Br    ".

  Min HX interatomic separation is    1.4140 Angstrom (    2.6721 Bohr)


  Bond distances (Angstrom):
  --------------------------

                  atom 1     atom 2       distance
                  ------     ------       --------
  bond distance:  H          Br           1.414000




 Principal moments of inertia (u*A**2) and principal axes
 --------------------------------------------------------

   IA       0.000000          0.000000    0.000000    1.000000
   IB       1.989632          0.000000    1.000000    0.000000
   IC       1.989632          1.000000    0.000000    0.000000


 Rotational constants
 --------------------

 The molecule is linear.

               B =       254006.22 MHz     (    8.472735 cm-1)


@  Nuclear repulsion energy :   13.098446757426 Hartree


  Symmetry Orbitals
  -----------------

  Number of orbitals in each symmetry:          15    6    6    2


  Symmetry  A1 ( 1)

    1     Br       1s         1
    2     Br       1s         2
    3     Br       1s         3
    4     Br       1s         4
    5     Br       1s         5
    6     Br       2pz        8
    7     Br       2pz       11
    8     Br       2pz       14
    9     Br       2pz       17
   10     Br       3d0       20
   11     Br       3d2+      22
   12     Br       3d0       25
   13     Br       3d2+      27
   14     H        1s        28
   15     H        1s        29


  Symmetry  B1 ( 2)

   16     Br       2px        6
   17     Br       2px        9
   18     Br       2px       12
   19     Br       2px       15
   20     Br       3d1+      21
   21     Br       3d1+      26


  Symmetry  B2 ( 3)

   22     Br       2py        7
   23     Br       2py       10
   24     Br       2py       13
   25     Br       2py       16
   26     Br       3d1-      19
   27     Br       3d1-      24


  Symmetry  A2 ( 4)

   28     Br       3d2-      18
   29     Br       3d2-      23

  Symmetries of electric field:  B1 (2)  B2 (3)  A1 (1)

  Symmetries of magnetic field:  B2 (3)  B1 (2)  A2 (4)


                     .---------------------------------------.
                     | Starting in Integral Section (HERMIT) |
                     `---------------------------------------'



    *************************************************************************
    ****************** Output from HERMIT input processing ******************
    *************************************************************************


 Default print level:        1

 * Nuclear model: Point charge

 Calculation of one- and two-electron Hamiltonian integrals.

 The following one-electron property integrals are calculated as requested:
          - overlap integrals
          - dipole length integrals
          - traceless quadrupole moment integrals
          - second moment integrals
          - electronic kinetic energy
          - mass velocity integrals
          - 1-electron Darwin integrals
          - Cartesien electric field gradient integrals
          - small component potential energy for DPT

 Center of mass  (bohr):      0.000000000000      0.000000000000      0.033693367501
 Operator center (bohr):      0.000000000000      0.000000000000      0.000000000000
 Gauge origin    (bohr):      0.000000000000      0.000000000000      0.000000000000
 Dipole origin   (bohr):      0.000000000000      0.000000000000      0.000000000000


     ************************************************************************
     ************************** Output from HERINT **************************
     ************************************************************************


 Threshold for neglecting two-electron integrals:  1.00D-15
 Number of two-electron integrals written:       15100 ( 15.9% )
 Megabytes written:                              0.179

 >>>> Total CPU  time used in HERMIT:   0.07 seconds
 >>>> Total wall time used in HERMIT:   0.07 seconds


                        .----------------------------------.
                        | End of Integral Section (HERMIT) |
                        `----------------------------------'



                   .--------------------------------------------.
                   | Starting in Wave Function Section (SIRIUS) |
                   `--------------------------------------------'


 *** Output from Huckel module :

     Using EWMO model:          T
     Using EHT  model:          F
     Number of Huckel orbitals each symmetry:   10    4    4    1

 EWMO - Energy Weighted Maximum Overlap - is a Huckel type method,
        which normally is better than Extended Huckel Theory.
 Reference: Linderberg and Ohrn, Propagators in Quantum Chemistry (Wiley, 1973)

 Huckel EWMO eigenvalues for symmetry :  1
         -490.059615     -65.200224     -58.554108      -9.875059      -7.479315
           -3.220762      -3.220200      -1.134881      -0.623989      -0.185647

 Huckel EWMO eigenvalues for symmetry :  2
          -58.554100      -7.478200      -3.220200      -0.457100

 Huckel EWMO eigenvalues for symmetry :  3
          -58.554100      -7.478200      -3.220200      -0.457100

 Huckel EWMO eigenvalues for symmetry :  4
           -3.220200

 **********************************************************************
 *SIRIUS* a direct, restricted step, second order MCSCF program       *
 **********************************************************************

 
     Date and time (Linux)  : Sun Sep  8 21:16:18 2013
     Host name              : lpqlx131.ups-tlse.fr                    

 Title lines from ".mol" input file:
     First-order relativistic corrections (frozen core)                      
                                                                             

 Print level on unit LUPRI =   2 is   0
 Print level on unit LUW4  =   2 is   5

@    (Integral direct) CC calculation.

@    This is a combination run starting with
@              a restricted, closed shell Hartree-Fock calculation


 Initial molecular orbitals are obtained according to
 ".MOSTART EWMO  " input option

     Wave function specification
     ============================

     For the specification of the Coupled Cluster: see later.

@    For the wave function of type :      >>> CC <<<
@    Number of closed shell electrons          36
@    Number of electrons in active shells       0
@    Total charge of the molecule               0

@    Spin multiplicity and 2 M_S                1         0
     Total number of symmetries                 4
@    Reference state symmetry                   1

     Orbital specifications
     ======================
     Abelian symmetry species          All |    1    2    3    4
                                       --- |  ---  ---  ---  ---
     Total number of orbitals           29 |   15    6    6    2
     Number of basis functions          29 |   15    6    6    2

      ** Automatic occupation of RHF orbitals **

      -- Initial occupation of symmetries is determined from extended Huckel guess.           
      -- Initial occupation of symmetries is :
@    Occupied SCF orbitals              18 |    9    4    4    1

     Maximum number of Fock   iterations      0
     Maximum number of DIIS   iterations     60
     Maximum number of QC-SCF iterations     60
     Threshold for SCF convergence     1.00D-10


 Changes of defaults for CC:
 ---------------------------


 -Implicit frozen core calculation
 -Dipole moment calculated
 -Traceless quadrupole moment calculated
 -Electric field gradient calculated
 -Relativistic corrections to energy calculated
 -Electronic second moment of charge calculated
 -Relativistic two-electron Darwin term calculated
 -First-order DPT energy corrections calculated
  


 >>>>> DIIS optimization of Hartree-Fock <<<<<

 C1-DIIS algorithm; max error vectors =   10

 Automatic occupation of symmetries with  36 electrons.

 Iter     Total energy    Error norm  Delta(E)    SCF occupation
 -----------------------------------------------------------------------------
     (Precalculated two-electron integrals are transformed to P-supermatrix elements.
      Threshold for discarding integrals :  1.00D-15 )
@  1  -2572.62289954       6.25D-01  -2.57D+03     9   4   4   1
      Virial theorem: -V/T =      2.000266
@      MULPOP Br     -0.01; H       0.01; 
 -----------------------------------------------------------------------------
@  2  -2572.65603944       1.54D-01  -3.31D-02     9   4   4   1
      Virial theorem: -V/T =      1.999784
@      MULPOP Br     -0.09; H       0.09; 
 -----------------------------------------------------------------------------
@  3  -2572.65776966       5.98D-02  -1.73D-03     9   4   4   1
      Virial theorem: -V/T =      2.000053
@      MULPOP Br     -0.12; H       0.12; 
 -----------------------------------------------------------------------------
@  4  -2572.65797417       1.19D-02  -2.05D-04     9   4   4   1
      Virial theorem: -V/T =      1.999966
@      MULPOP Br     -0.13; H       0.13; 
 -----------------------------------------------------------------------------
@  5  -2572.65799390       1.26D-03  -1.97D-05     9   4   4   1
      Virial theorem: -V/T =      1.999977
@      MULPOP Br     -0.14; H       0.14; 
 -----------------------------------------------------------------------------
@  6  -2572.65799411       9.20D-05  -2.13D-07     9   4   4   1
      Virial theorem: -V/T =      1.999977
@      MULPOP Br     -0.14; H       0.14; 
 -----------------------------------------------------------------------------
@  7  -2572.65799411       1.11D-05  -9.16D-10     9   4   4   1
      Virial theorem: -V/T =      1.999977
@      MULPOP Br     -0.14; H       0.14; 
 -----------------------------------------------------------------------------
@  8  -2572.65799411       1.15D-06  -1.41D-11     9   4   4   1
      Virial theorem: -V/T =      1.999977
@      MULPOP Br     -0.14; H       0.14; 
 -----------------------------------------------------------------------------
@  9  -2572.65799411       1.34D-07   1.82D-12     9   4   4   1
      Virial theorem: -V/T =      1.999977
@      MULPOP Br     -0.14; H       0.14; 
 -----------------------------------------------------------------------------
@ 10  -2572.65799411       1.57D-08  -1.82D-12     9   4   4   1
      Virial theorem: -V/T =      1.999977
@      MULPOP Br     -0.14; H       0.14; 
 -----------------------------------------------------------------------------
@ 11  -2572.65799411       8.98D-10   4.55D-13     9   4   4   1
      Virial theorem: -V/T =      1.999977
@      MULPOP Br     -0.14; H       0.14; 
 -----------------------------------------------------------------------------
@ 12  -2572.65799411       6.22D-11   1.36D-12     9   4   4   1

@ *** DIIS converged in  12 iterations !
@     Converged SCF energy, gradient:  -2572.657994109615    6.22D-11
    - total time used in SIRFCK :              0.00 seconds


 *** SCF orbital energy analysis ***

 Only the five lowest virtual orbital energies printed in each symmetry.

 Number of electrons :   36
 Orbital occupations :    9    4    4    1

 Sym       Hartree-Fock orbital energies

  1   -489.97967434   -65.14733186   -58.51964768    -9.83889279    -7.45660088
        -3.19901454    -3.18380833    -1.03486646    -0.57625691     0.12693992
         0.50201459     0.56325947     0.90885226     2.96286863

  2    -58.51787239    -7.44635075    -3.19448529    -0.43203043     0.81885515
         2.94806805

  3    -58.51787239    -7.44635075    -3.19448529    -0.43203043     0.81885515
         2.94806805

  4     -3.18380833     2.96286863

    E(LUMO) :     0.12693992 au (symmetry 1)
  - E(HOMO) :    -0.43203043 au (symmetry 3)
  ------------------------------------------
    gap     :     0.55897035 au

 >>> Writing SIRIFC interface file <<<

 >>>> CPU and wall time for SCF :       0.008       0.009


                       .-----------------------------------.
                       | >>> Final results from SIRIUS <<< |
                       `-----------------------------------'


@    Spin multiplicity:           1
@    Spatial symmetry:            1
@    Total charge of molecule:    0

@    Final HF energy:           -2572.657994109615                 
@    Nuclear repulsion:            13.098446757426
@    Electronic energy:         -2585.756440867041

@    Final gradient norm:           0.000000000062

 
     Date and time (Linux)  : Sun Sep  8 21:16:18 2013
     Host name              : lpqlx131.ups-tlse.fr                    

 (Only coefficients >0.0100 are printed.)

 Molecular orbitals for symmetry species  1
 ------------------------------------------

    Orbital         5        6        7        8        9       10       11
   1 Br  :1s    -0.0012   0.0004  -0.0000   0.0439   0.0144   0.0124  -0.0313
   2 Br  :1s     0.0045  -0.0013   0.0000  -0.1225  -0.0392  -0.0328   0.0755
   3 Br  :1s    -0.0103   0.0045  -0.0000   0.5888   0.1964   0.1730  -0.4688
   4 Br  :1s     0.0022  -0.0093   0.0000  -0.7855  -0.2596  -0.2181   1.8118
   5 Br  :1s    -0.0016   0.0123  -0.0000  -0.3109  -0.2357  -0.7801  -1.9464
   6 Br  :2pz   -0.4418  -0.0025   0.0000  -0.0171   0.0911  -0.0632  -0.0207
   7 Br  :2pz    1.0788   0.0067  -0.0000   0.0520  -0.2803   0.1953   0.0640
   8 Br  :2pz    0.0149  -0.0042   0.0000  -0.0755   0.4220  -0.2569  -0.0514
   9 Br  :2pz   -0.0016   0.0099  -0.0000  -0.0377   0.3280  -0.9999  -0.4771
  10 Br  :3d0    0.0039  -0.8473   0.0000   0.0164  -0.0346  -0.0406  -0.0628
  11 Br  :3d2+   0.0000   0.0000   0.8489   0.0000   0.0000  -0.0000  -0.0000
  12 Br  :3d0    0.0016  -0.2723   0.0000  -0.0062   0.0183   0.0142   0.0440
  13 Br  :3d2+   0.0000   0.0000   0.2709   0.0000   0.0000   0.0000  -0.0000
  14 H   :1s     0.0003  -0.0155   0.0000  -0.1878   0.4003   0.2575   0.7540
  15 H   :1s     0.0008  -0.0042   0.0000  -0.0024   0.1570   1.4774  -0.0124

 Molecular orbitals for symmetry species  2
 ------------------------------------------

    Orbital         1        2        3        4        5        6
   1 Br  :2px   -0.9905   0.4421   0.0019   0.1138   0.1483   0.0013
   2 Br  :2px   -0.0244  -1.0798  -0.0051  -0.3517  -0.4821  -0.0045
   3 Br  :2px    0.0052  -0.0126   0.0021   0.5312   1.3771   0.0119
   4 Br  :2px   -0.0019   0.0004  -0.0005   0.6238  -1.1868  -0.0053
   5 Br  :3d1+  -0.0001  -0.0030   0.8481  -0.0043  -0.0059   0.7291
   6 Br  :3d1+   0.0000  -0.0015   0.2720   0.0046   0.0071  -1.0849

 Molecular orbitals for symmetry species  3
 ------------------------------------------

    Orbital         1        2        3        4        5        6
   1 Br  :2py   -0.9905   0.4421   0.0019   0.1138  -0.1483   0.0013
   2 Br  :2py   -0.0244  -1.0798  -0.0051  -0.3517   0.4821  -0.0045
   3 Br  :2py    0.0052  -0.0126   0.0021   0.5312  -1.3771   0.0119
   4 Br  :2py   -0.0019   0.0004  -0.0005   0.6238   1.1868  -0.0053
   5 Br  :3d1-  -0.0001  -0.0030   0.8481  -0.0043   0.0059   0.7291
   6 Br  :3d1-   0.0000  -0.0015   0.2720   0.0046  -0.0071  -1.0849

 Molecular orbitals for symmetry species  4
 ------------------------------------------

    Orbital         1        2
   1 Br  :3d2-   0.8489   0.7282
   2 Br  :3d2-   0.2709  -1.0852



 >>>> Total CPU  time used in SIRIUS :      0.01 seconds
 >>>> Total wall time used in SIRIUS :      0.01 seconds

 
     Date and time (Linux)  : Sun Sep  8 21:16:18 2013
     Host name              : lpqlx131.ups-tlse.fr                    


                     .---------------------------------------.
                     | End of Wave Function Section (SIRIUS) |
                     `---------------------------------------'



                    .------------------------------------------.
                    | Starting in Coupled Cluster Section (CC) |
                    `------------------------------------------'

  

 *******************************************************************************
 *******************************************************************************
 *                                                                             *
 *                                                                             *
 *                    START OF COUPLED CLUSTER CALCULATION                     *
 *                                                                             *
 *                                                                             *
 *******************************************************************************
 *******************************************************************************



 CCR12 ANSATZ =   0

 CCR12 APPROX =   0

   

 *******************************************************************
 *                                                                 *
 *<<<<<<<<<<                                             >>>>>>>>>>*
 *<<<<<<<<<< OUTPUT FROM COUPLED CLUSTER ENERGY PROGRAM  >>>>>>>>>>*
 *<<<<<<<<<<                                             >>>>>>>>>>*
 *                                                                 *
 *******************************************************************


             The Direct Coupled Cluster Energy Program
             -----------------------------------------


          Number of t1 amplitudes                 :        33
          Number of t2 amplitudes                 :      1332
          Total number of amplitudes in ccsd      :      1365



          CCS CALC. - NO WAVEFUNCTION OPTIMIZATION
   

 *******************************************************************
 *                                                                 *
 *<<<<<<<<<<<<< OUTPUT FROM COUPLED CLUSTER RESPONSE  >>>>>>>>>>>>>*
 *                                                                 *
 *<<<<<<<<<<    CALCULATION OF FIRST ORDER PROPERTIES    >>>>>>>>>>*
 *                                                                 *
 *******************************************************************



                         +-------------------------------+
                         ! Coupled Cluster model is: CCS !
                         +-------------------------------+

  


             +--------------------------------------------------------+
             !   Relaxed  CCS    First-order one-electron properties: !
             +--------------------------------------------------------+



                            +-------------------------+
                            !  Electric Dipole Moment !
                            +-------------------------+



                          Total Molecular Dipole Moment
                          -----------------------------

                 au               Debye          C m (/(10**-30)

      z      0.57604143         1.46415118         4.88388264




                          +-----------------------------+
                          !  Electric Quadrupole Moment !
                          +-----------------------------+



                        Total Molecular quadrupole moment
                        ---------------------------------

                    X              Y              Z

               Column   1     Column   2     Column   3
       1      -1.40078462     0.00000000     0.00000000
       2       0.00000000    -1.40078462     0.00000000
       3       0.00000000     0.00000000     2.80156923
    ==== End of matrix output ====


                      +-------------------------------------+
                      !  Electronic second moment of charge !
                      +-------------------------------------+

                    X              Y              Z

               Column   1     Column   2     Column   3
       1      14.67013089     0.00000000     0.00000000
       2       0.00000000    14.67013089     0.00000000
       3       0.00000000     0.00000000    19.00853336
    ==== End of matrix output ====

 Alfa**2 Invariant:                        259.733999
 Beta**2 Invariant:                         18.821736

 Isotropic Property:                        16.116265 a.u.
 Property anisotropy invariant:              4.338402 a.u.


                           +---------------------------+
                           !  Electric Field Gradients !
                           +---------------------------+



      *********************************************************************
      **************** ABACUS - Nuclear Quadrupole moments ****************
      *********************************************************************


Total non-diagonalized EFG Tensor   Br    

               Column   1     Column   2     Column   3
       1      -3.50173726     0.00000000     0.00000000
       2       0.00000000    -3.50173726     0.00000000
       3       0.00000000     0.00000000     7.00347453
    ==== End of matrix output ====

Total non-diagonalized EFG Tensor   H     

               Column   1     Column   2     Column   3
       1      -0.13986240     0.00000000     0.00000000
       2       0.00000000    -0.13986240     0.00000000
       3       0.00000000     0.00000000     0.27972480
    ==== End of matrix output ====
 String on input: "Br      "
 String on input: "Br      "
 String on input: "H       "
 String on input: "H       "

EFG Principal axis                  Br    

               Column   1     Column   2     Column   3
       1       1.00000000     0.00000000     0.00000000
       2       0.00000000     1.00000000     0.00000000
       3       0.00000000     0.00000000     1.00000000
    ==== End of matrix output ====

EFG Principal axis                  H     

               Column   1     Column   2     Column   3
       1       1.00000000     0.00000000     0.00000000
       2       0.00000000     1.00000000     0.00000000
       3       0.00000000     0.00000000     1.00000000
    ==== End of matrix output ====


                         Nuclear quadrupole moment for Br
                         --------------------------------

          Spin     :  1.5          Quadrupole moment:0.31300000
                            au           MHz        Gauss
 Br     79    Vx =      -3.501737   **********   -92.000270
 Br     79    Vy =      -3.501737   **********   -92.000270
 Br     79    Vz =       7.003475   515.063355   184.000540
                 Asymmetry constant eta:      0.000000
                 Auxiliary value au  1/T  0.480525D+00
          Spin     :  1.5          Quadrupole moment:0.26150000
                            au           MHz        Gauss
 Br     81    Vx =      -3.501737   **********   -76.862846
 Br     81    Vy =      -3.501737   **********   -76.862846
 Br     81    Vz =       7.003475   430.316509   153.725691
                 Asymmetry constant eta:      0.000000
                 Auxiliary value au  1/T  0.335406D+00


                         Nuclear quadrupole moment for H
                         -------------------------------

          Spin     :  1.0          Quadrupole moment:0.00286000
                            au           MHz        Gauss
 H       2    Vx =      -0.139862    -0.093987    -0.033576
 H       2    Vy =      -0.139862    -0.093987    -0.033576
 H       2    Vz =       0.279725     0.187975     0.067152
                 Asymmetry constant eta:      0.000000
                 Auxiliary value au  1/T  0.240008D-06


            +---------------------------------------------------------+
            !  First-order DPT corrections to the ground-state energy !
            +---------------------------------------------------------+

  
  
 One electron and reorthonormalization gradient calculation completed
 Total time used in CC_GRAD:   8.0000013113021851E-003
  
         DPTONE:    -56.095260865029
         ------ 
  
         DPTREO:     17.079554081311
         ------ 

 Number of two-electron spin-orbit integrals written:     10075 (16.0%)

 Number of two-electron spin-orbit integrals written:     23076 (15.2%)
 >>>  Time used in TWOINT     is   0.12 seconds

 Number of two-electron spin-orbit integrals written:     16788 (13.3%)
 >>>  Time used in TWOINT     is   0.12 seconds

 Number of two-electron spin-orbit integrals written:      6582 (26.1%)
  
 Two-electron first-order property calculation completed
 Total time used in CC_2EEXP:  0.38299999386072159     
  
         DPTTWO:      7.625937159970
         ------ 
  
         Total first-order DPT correction:    -31.389769623748
         --------------------------------


           +------------------------------------------------------------+
           !  Pauli relativistic corrections to the ground-state energy !
           +------------------------------------------------------------+

  
         1-elec. Darwin term:     81.455592323
         ------------------- 
  
         Mass-Velocity term:    -112.402122763
         ------------------  
  
         Mass-Velocity + 1-elec. Darwin terms:     -30.946530440
         ------------------------------------ 

 Number of two-electron spin-orbit integrals written:     10075 (16.0%)

 Number of two-electron spin-orbit integrals written:     22820 (15.1%)

 Number of two-electron spin-orbit integrals written:     16004 (12.7%)

 Number of two-electron spin-orbit integrals written:      6582 (26.1%)
  
         2-elec. Darwin term:      -0.442936957
         ------------------- 
  
         Total relativistic correction:     -31.389467397
         ----------------------------- 
  
 Two-electron first-order property calculation completed
 Total time used in CC_2EEXP:  0.10100001096725464     

 *******************************************************************

 Ground state energy is target 

 Ecorr =                  -2572.65799410961471949122

 *******************************************************************


 CCR12 ANSATZ =   0

 CCR12 APPROX =   0

   

 *******************************************************************
 *                                                                 *
 *<<<<<<<<<<                                             >>>>>>>>>>*
 *<<<<<<<<<< OUTPUT FROM COUPLED CLUSTER ENERGY PROGRAM  >>>>>>>>>>*
 *<<<<<<<<<<                                             >>>>>>>>>>*
 *                                                                 *
 *******************************************************************


             The Direct Coupled Cluster Energy Program
             -----------------------------------------


          Number of t1 amplitudes                 :        33
          Number of t2 amplitudes                 :      1332
          Total number of amplitudes in ccsd      :      1365

 Iter.  1: Coupled cluster MP2   energy :   -2572.8203676640046069
     Conventional correlation energy:    -0.1623735543898874

       Iteration no.:  1
       -----------------

       Time used in   RHS - TOTAL  :       0.02 seconds
       Norm^2 of omega1 after ccvec:        0.2931910413D-02
       Norm^2 of omega2 after ccvec:        0.5762051977D-02
 Iter.  1: Coupled cluster CCSD  energy :   -2572.8202907281506668
     Conventional correlation energy:    -0.1622966185359473

       Iteration no.:  2
       -----------------

       Time used in   RHS - TOTAL  :       0.02 seconds
       Norm^2 of omega1 after ccvec:        0.5698923069D-04
       Norm^2 of omega2 after ccvec:        0.4388033729D-03
 Iter.  2: Coupled cluster CCSD  energy :   -2572.8252051407462204
     Conventional correlation energy:    -0.1672110311315009

       Iteration no.:  3
       -----------------

       Time used in   RHS - TOTAL  :       0.02 seconds
       Norm^2 of omega1 after ccvec:        0.1702825939D-04
       Norm^2 of omega2 after ccvec:        0.3263220586D-04
 Iter.  3: Coupled cluster CCSD  energy :   -2572.8248768143039342
     Conventional correlation energy:    -0.1668827046892147

       Iteration no.:  4
       -----------------

       Time used in   RHS - TOTAL  :       0.02 seconds
       Norm^2 of omega1 after ccvec:        0.1951081195D-06
       Norm^2 of omega2 after ccvec:        0.8103808582D-06
 Iter.  4: Coupled cluster CCSD  energy :   -2572.8248635613226725
     Conventional correlation energy:    -0.1668694517079530

       Iteration no.:  5
       -----------------

       Time used in   RHS - TOTAL  :       0.02 seconds
       Norm^2 of omega1 after ccvec:        0.3395361955D-08
       Norm^2 of omega2 after ccvec:        0.1938065063D-07
 Iter.  5: Coupled cluster CCSD  energy :   -2572.8248683070332845
     Conventional correlation energy:    -0.1668741974185650

       Iteration no.:  6
       -----------------

       Time used in   RHS - TOTAL  :       0.02 seconds
       Norm^2 of omega1 after ccvec:        0.1788805955D-09
       Norm^2 of omega2 after ccvec:        0.7484611111D-09
 Iter.  6: Coupled cluster CCSD  energy :   -2572.8248672382414952
     Conventional correlation energy:    -0.1668731286267757

       Iteration no.:  7
       -----------------

       Time used in   RHS - TOTAL  :       0.02 seconds
       Norm^2 of omega1 after ccvec:        0.8481967862D-11
       Norm^2 of omega2 after ccvec:        0.2572959151D-10
 Iter.  7: Coupled cluster CCSD  energy :   -2572.8248672986437668
     Conventional correlation energy:    -0.1668731890290474

       Iteration no.:  8
       -----------------

       Time used in   RHS - TOTAL  :       0.02 seconds
       Norm^2 of omega1 after ccvec:        0.3200771920D-12
       Norm^2 of omega2 after ccvec:        0.1046729923D-11
 Iter.  8: Coupled cluster CCSD  energy :   -2572.8248672963750323
     Conventional correlation energy:    -0.1668731867603128

       Iteration no.:  9
       -----------------

       Time used in   RHS - TOTAL  :       0.02 seconds
       Norm^2 of omega1 after ccvec:        0.1305029859D-13
       Norm^2 of omega2 after ccvec:        0.5782781659D-13
 Iter.  9: Coupled cluster CCSD  energy :   -2572.8248672925292340
     Conventional correlation energy:    -0.1668731829145145

       Iteration no.: 10
       -----------------

       Time used in   RHS - TOTAL  :       0.02 seconds
       Norm^2 of omega1 after ccvec:        0.1605450517D-14
       Norm^2 of omega2 after ccvec:        0.5413152347D-14
 Iter. 10: Coupled cluster CCSD  energy :   -2572.8248672900253951
     Conventional correlation energy:    -0.1668731804106756

       Iteration no.: 11
       -----------------

       Time used in   RHS - TOTAL  :       0.02 seconds
       Norm^2 of omega1 after ccvec:        0.1189243094D-15
       Norm^2 of omega2 after ccvec:        0.3775220441D-15
 Iter. 11: Coupled cluster CCSD  energy :   -2572.8248672893223556
     Conventional correlation energy:    -0.1668731797076362

       Iteration no.: 12
       -----------------

       Time used in   RHS - TOTAL  :       0.02 seconds
       Norm^2 of omega1 after ccvec:        0.2814988062D-17
       Norm^2 of omega2 after ccvec:        0.1490128814D-16
 Iter. 12: Coupled cluster CCSD  energy :   -2572.8248672893491857
     Conventional correlation energy:    -0.1668731797344662

 CCSD  energy converged to within   0.10D-09 is        -2572.824867289349
 Final 2-norm of the CC vector function:  4.20907071D-09


                    +------------------------------------------+
                    ! Largest amplitudes in converged solution !
                    +------------------------------------------+



          CC_PRAM:Overall Contribution of the Different Components
          --------------------------------------------------------



          Single Excitation Contribution :               0.7748 %

          Double Excitation Contribution :              99.2252 %

          ||T1||/||T2||                  :               0.0884

          Tau1 diagnostic                :               0.0033

          Norm of Total Amplitude Vector :               0.1574


 +=============================================================================+
 | symmetry|  orbital index  |   Excitation Numbers             |   Amplitude  |
 |  Index  |   a   b   i   j |      NAI      NBJ |     NAIBJ    |              |
 +=============================================================================+
 | 1   1   |   6       1     |        6          |              |   -0.003350  |
 | 1   1   |   5       2     |       11          |              |   -0.003471  |
 | 1   1   |   1       3     |       13          |              |    0.005371  |
 | 1   1   |   4       3     |       16          |              |   -0.002518  |
 | 1   1   |   1       4     |       19          |              |    0.005591  |
 | 1   1   |   2       4     |       20          |              |    0.005882  |
 | 1   1   |   3       4     |       21          |              |    0.003774  |
 | 2   2   |   2       1     |       26          |              |   -0.003494  |
 | 3   3   |   2       1     |       30          |              |   -0.003494  |
 | 4   4   |   1       1     |       33          |              |   -0.003471  |
 +-----------------------------------------------------------------------------+
 | 1 1 1 1 |   1   1   4   4 |       19       19 |          190 |   -0.079512  |
 | 1 1 1 1 |   2   1   4   4 |       20       19 |          209 |   -0.028127  |
 | 1 1 1 1 |   3   1   4   4 |       21       19 |          229 |   -0.028880  |
 | 1 1 1 1 |   4   1   4   4 |       22       19 |          250 |    0.025688  |
 | 1 1 1 1 |   3   3   4   4 |       21       21 |          231 |   -0.033341  |
 | 2 2 2 2 |   1   1   2   2 |       27       27 |          378 |   -0.033926  |
 | 3 3 3 3 |   1   1   2   2 |       31       31 |          496 |   -0.033926  |
 +=============================================================================+


          Norm of Printed Amplitude Vector :             0.1104

          Printed all single excitations greater than 0.002201

          Printed all double excitations greater than 0.024903





             +-------------------------------------------------------+
             ! Final results from the Coupled Cluster energy program !
             +-------------------------------------------------------+



            Total SCF   energy:                 -2572.6579941096

            Total MP2   energy:                 -2572.8203676640

            Total CCSD  energy:                 -2572.8248672893




                   +--------------------------------------------+
                   ! Calculating singlet intermediates for CCLR !
                   +--------------------------------------------+



       Time used in   RHS - TOTAL  :       0.02 seconds


            E-intermediates calculated 
            Fock-intermediate calculated 
            Gamma-intermediate calculated 
            BF-intermediate calculated 
            C-intermediate calculated 
            D-intermediate calculated 


   

 *******************************************************************
 *                                                                 *
 *<<<<<<<<<<<<< OUTPUT FROM COUPLED CLUSTER RESPONSE  >>>>>>>>>>>>>*
 *                                                                 *
 *<<<<<<<<<<    CALCULATION OF FIRST ORDER PROPERTIES    >>>>>>>>>>*
 *                                                                 *
 *******************************************************************



                         +--------------------------------+
                         ! Coupled Cluster model is: CCSD !
                         +--------------------------------+


 Solving   1 response equations:
 L0 :
 RPA: call cceq_str
     Start vector generated from gradient
 RPA: exit cceq_str
 CCEQ_SOL: IPRLE   =               4
 CCEQ_SOL: TRIPLET =     F
 CCEQ_SOL: LINQCC  =     T
 CCEQ_SOL: NREDH   =               1
 CCEQ_SOL: MAXRED  =             200
 CCEQ_SOL: MAXLE   =              40
 CCEQ_SOL: ISIDE   =              -1
 CCEQ_SOL: ISTRVE  =               1
 CCEQ_SOL: NVEC    =               1
 CCEQ_SOL: NUPVEC  =               1
 CCEQ_SOL: NCCVAR  =            1365



 >>>>> COUPLED CLUSTER RESPONSE SOLVER <<<<<

    Iter  #Vectors  time (min)   residual
    --------------------------------------
  
 Time used in CC_LHTR :   1.4999985694885254E-002
  
  
 ROOT:  1 RESIDUAL TOT: 6.49969D-01
      1       1         0.00     0.65E+00
 Dimension of the reduced space:     2
 >>> TIME USED IN THIS MICRO ITERATION        0.01

  
 Time used in CC_LHTR :   1.5000045299530029E-002
  
  
 ROOT:  1 RESIDUAL TOT: 1.14171D-01
      2       1         0.00     0.11E+00
 Dimension of the reduced space:     3
 >>> TIME USED IN THIS MICRO ITERATION        0.02

  
 Time used in CC_LHTR :   1.3999998569488525E-002
  
  
 ROOT:  1 RESIDUAL TOT: 2.43775D-02
      3       1         0.00     0.24E-01
 Dimension of the reduced space:     4
 >>> TIME USED IN THIS MICRO ITERATION        0.01

  
 Time used in CC_LHTR :   1.4999985694885254E-002
  
  
 ROOT:  1 RESIDUAL TOT: 4.00887D-03
      4       1         0.00     0.40E-02
 Dimension of the reduced space:     5
 >>> TIME USED IN THIS MICRO ITERATION        0.02

  
 Time used in CC_LHTR :   1.3999998569488525E-002
  
  
 ROOT:  1 RESIDUAL TOT: 1.01146D-03
      5       1         0.00     0.10E-02
 Dimension of the reduced space:     6
 >>> TIME USED IN THIS MICRO ITERATION        0.01

  
 Time used in CC_LHTR :   1.4999985694885254E-002
  
  
 ROOT:  1 RESIDUAL TOT: 1.73507D-04
      6       1         0.00     0.17E-03
 Dimension of the reduced space:     7
 >>> TIME USED IN THIS MICRO ITERATION        0.02

  
 Time used in CC_LHTR :   1.5000045299530029E-002
  
  
 ROOT:  1 RESIDUAL TOT: 3.74256D-05
      7       1         0.00     0.37E-04
 Dimension of the reduced space:     8
 >>> TIME USED IN THIS MICRO ITERATION        0.02

  
 Time used in CC_LHTR :   1.3999998569488525E-002
  
  
 ROOT:  1 RESIDUAL TOT: 6.88783D-06
      8       1         0.00     0.69E-05
 Dimension of the reduced space:     9
 >>> TIME USED IN THIS MICRO ITERATION        0.01

  
 Time used in CC_LHTR :   1.4999985694885254E-002
  
  
 ROOT:  1 RESIDUAL TOT: 1.07059D-06
      9       1         0.00     0.11E-05
 Dimension of the reduced space:    10
 >>> TIME USED IN THIS MICRO ITERATION        0.02

  
 Time used in CC_LHTR :   1.3999998569488525E-002
  
  
 ROOT:  1 RESIDUAL TOT: 1.71699D-07
     10       1         0.00     0.17E-06
 Dimension of the reduced space:    11
 >>> TIME USED IN THIS MICRO ITERATION        0.02

  
 Time used in CC_LHTR :   1.4999985694885254E-002
  
  
 ROOT:  1 RESIDUAL TOT: 3.40103D-08
 ROOT:  1 HAS CONVERGED. RESIDUAL TOT: 3.40103D-08
     11       1         0.00     0.34E-07
 Dimension of the reduced space:    11
 >>> TIME USED IN THIS MICRO ITERATION        0.02

    --------------------------------------
    converged in 11 iterations
    threshold:    0.10E-06


         Routine          Time (min)
         ---------------------------
         CC_TRDRV            0.00
         CCRED               0.00
         CCNEX               0.00
         ---------------------------
         Total time          0.00


 >>>> Total CPU  time used in CCEQ_SOLV:   0.17 seconds
 >>>> Total wall time used in CCEQ_SOLV:   0.20 seconds


 >>>>>>>>>>>>>>>>>>>>> <<<<<<<<<<<<<<<<<<<<<



 Analysis of CC Response/Cauchy vector:
 --------------------------------------


          CC_PRAM:Overall Contribution of the Different Components
          --------------------------------------------------------



          Single Excitation Contribution :               0.4149 %

          Double Excitation Contribution :              99.5851 %

          ||T1||/||T2||                  :               0.0645

          Norm of Total Amplitude Vector :               0.3792


 +=============================================================================+
 | symmetry|  orbital index  |   Excitation Numbers             |   Amplitude  |
 |  Index  |   a   b   i   j |      NAI      NBJ |     NAIBJ    |              |
 +=============================================================================+
 | 1   1   |   1       3     |       13          |              |    0.010440  |
 | 1   1   |   2       4     |       20          |              |    0.010084  |
 +-----------------------------------------------------------------------------+
 | 1 1 1 1 |   1   1   4   4 |       19       19 |          190 |   -0.155428  |
 +=============================================================================+


          Norm of Printed Amplitude Vector :             0.1561

          Printed all single excitations greater than 0.010000

          Printed all double excitations greater than 0.124740
            Norm of singles part:        0.2442392332E-01
            Norm of doubles part:        0.3783869658E+00


                  Constructing right-hand-side for CCSD-kappa-0
                  ---------------------------------------------

  
 Requested density dependent quantities calculated
 Total time used in CC_DEN:   6.6999971866607666E-002
 CC_FOP> Norm of RHS vector:   1.2880407104235254E-003


                      Solving for orbital relaxation vector
                      -------------------------------------



  THIS IS OUTPUT FROM THE MCSCF AND SOPPA RESPONSE SOLVER
 ---------------------------------------------------------


 Symmetry of singlet property operator     1
 Number of operators for singlet linear response equations:     1
 Number of response frequencies:     1
 Convergence threshold:     1.00D-07

 Integral transformation: Total CPU and WALL times (sec)       0.010       0.009


 >>>>>>>>>> Symmetry of excitation/property operator    1

 Number of operators for linear response equations:     1
 Number of response frequencies:     1


 Perturbation symmetry.     KSYMOP:       1
 Perturbation spin symmetry.TRPLET:       F
 Orbital variables.         KZWOPT:      71
 Configuration variables.   KZCONF:       0
 Total number of variables. KZVAR :      71


 RSPLLE -- linear response calculation for symmetry  1
 RSPLLE -- operator no.  1 out of  1
 RSPLLE -- frequencies :  0.000000



 <<<  SOLVING SETS OF LINEAR EQUATIONS FOR LINEAR RESPONSE PROPERTIES >>>

 Operator symmetry =  1; triplet =   F


 *** THE REQUESTED    1 SOLUTION VECTORS CONVERGED

 Convergence of RSP solution vectors, threshold = 1.00D-07
 ---------------------------------------------------------------
 (dimension of paired reduced space:   18)
 RSP solution vector no.    1; norm of residual   3.07D-08

 *** RSPCTL MICROITERATIONS CONVERGED

 EIGENVECTOR NUMBER     1

     Orbital operator symmetry = 1
     (only elements abs greater than   10.00 % of max abs value)

      Index(r,s)      r      s        (r s) operator      (s r) operator
      ----------    -----  -----      --------------      --------------
          20         4(1)  11(1)       -0.0001241254        0.0001241254
          22         4(1)  13(1)       -0.0001064990        0.0001064990
          25         5(1)  10(1)       -0.0004502024        0.0004502024
          28         5(1)  13(1)        0.0008392898       -0.0008392898
          31         6(1)  10(1)       -0.0001249032        0.0001249032
          32         6(1)  11(1)       -0.0002042474        0.0002042474
          33         6(1)  12(1)       -0.0001689010        0.0001689010
          36         6(1)  15(1)       -0.0005734133        0.0005734133
          41         7(1)  14(1)       -0.0006036039        0.0006036039
          43         8(1)  10(1)        0.0002922757       -0.0002922757
          44         8(1)  11(1)        0.0006209080       -0.0006209080
          45         8(1)  12(1)       -0.0006078851        0.0006078851
          50         9(1)  11(1)        0.0002633093       -0.0002633093
          51         9(1)  12(1)       -0.0004670632        0.0004670632
          52         9(1)  13(1)        0.0002811540       -0.0002811540
          57        17(2)  20(2)       -0.0006891181        0.0006891181
          60        18(2)  21(2)       -0.0005917607        0.0005917607
          61        19(2)  20(2)       -0.0005860157        0.0005860157
          65        23(3)  26(3)        0.0006891181       -0.0006891181
          68        24(3)  27(3)       -0.0005917607        0.0005917607
          69        25(3)  26(3)        0.0005860157       -0.0005860157
          71        28(4)  29(4)       -0.0006036039        0.0006036039

       49 elements with absolute value less than 8.39D-05 not printed.

 The numbers in parenthesis give the orbital symmetry.

     Configuration operator symmetry = 1
     >> NO ELEMENTS <<


 Time used in linear response calculation is      0.01 CPU seconds for symmetry 1

 >>> Total time used in response solver is         0.02 CPU seconds.

   Equations converged to residual less than:  0.000000
  
 Norm of zeta-kappa-0:   1.2927805172553341E-005
 CCFOP: call CC_D1AO to recalc the 1e Density
  


             +--------------------------------------------------------+
             !   Relaxed CCSD    First-order one-electron properties: !
             +--------------------------------------------------------+



                            +-------------------------+
                            !  Electric Dipole Moment !
                            +-------------------------+



                          Total Molecular Dipole Moment
                          -----------------------------

                 au               Debye          C m (/(10**-30)

      z      0.52577335         1.33638248         4.45769212




                          +-----------------------------+
                          !  Electric Quadrupole Moment !
                          +-----------------------------+



                        Total Molecular quadrupole moment
                        ---------------------------------

                    X              Y              Z

               Column   1     Column   2     Column   3
       1      -1.35914464     0.00000000     0.00000000
       2       0.00000000    -1.35914464     0.00000000
       3       0.00000000     0.00000000     2.71828928
    ==== End of matrix output ====


                      +-------------------------------------+
                      !  Electronic second moment of charge !
                      +-------------------------------------+

                    X              Y              Z

               Column   1     Column   2     Column   3
       1      14.65616827     0.00000000     0.00000000
       2       0.00000000    14.65616827     0.00000000
       3       0.00000000     0.00000000    19.07785069
    ==== End of matrix output ====

 Alfa**2 Invariant:                        260.178913
 Beta**2 Invariant:                         19.551275

 Isotropic Property:                        16.130062 a.u.
 Property anisotropy invariant:              4.421682 a.u.


                           +---------------------------+
                           !  Electric Field Gradients !
                           +---------------------------+



      *********************************************************************
      **************** ABACUS - Nuclear Quadrupole moments ****************
      *********************************************************************


Total non-diagonalized EFG Tensor   Br    

               Column   1     Column   2     Column   3
       1      -3.50390970     0.00000000     0.00000000
       2       0.00000000    -3.50390970     0.00000000
       3       0.00000000     0.00000000     7.00781939
    ==== End of matrix output ====

Total non-diagonalized EFG Tensor   H     

               Column   1     Column   2     Column   3
       1      -0.13990959     0.00000000     0.00000000
       2       0.00000000    -0.13990959     0.00000000
       3       0.00000000     0.00000000     0.27981918
    ==== End of matrix output ====
 String on input: "Br      "
 String on input: "Br      "
 String on input: "H       "
 String on input: "H       "

EFG Principal axis                  Br    

               Column   1     Column   2     Column   3
       1       1.00000000     0.00000000     0.00000000
       2       0.00000000     1.00000000     0.00000000
       3       0.00000000     0.00000000     1.00000000
    ==== End of matrix output ====

EFG Principal axis                  H     

               Column   1     Column   2     Column   3
       1       1.00000000     0.00000000     0.00000000
       2       0.00000000     1.00000000     0.00000000
       3       0.00000000     0.00000000     1.00000000
    ==== End of matrix output ====


                         Nuclear quadrupole moment for Br
                         --------------------------------

          Spin     :  1.5          Quadrupole moment:0.31300000
                            au           MHz        Gauss
 Br     79    Vx =      -3.503910   **********   -92.057346
 Br     79    Vy =      -3.503910   **********   -92.057346
 Br     79    Vz =       7.007819   515.382894   184.114692
                 Asymmetry constant eta:      0.000000
                 Auxiliary value au  1/T  0.481121D+00
          Spin     :  1.5          Quadrupole moment:0.26150000
                            au           MHz        Gauss
 Br     81    Vx =      -3.503910   **********   -76.910530
 Br     81    Vy =      -3.503910   **********   -76.910530
 Br     81    Vz =       7.007819   430.583472   153.821060
                 Asymmetry constant eta:      0.000000
                 Auxiliary value au  1/T  0.335822D+00


                         Nuclear quadrupole moment for H
                         -------------------------------

          Spin     :  1.0          Quadrupole moment:0.00286000
                            au           MHz        Gauss
 H       2    Vx =      -0.139910    -0.094019    -0.033587
 H       2    Vy =      -0.139910    -0.094019    -0.033587
 H       2    Vz =       0.279819     0.188038     0.067175
                 Asymmetry constant eta:      0.000000
                 Auxiliary value au  1/T  0.240170D-06


            +---------------------------------------------------------+
            !  First-order DPT corrections to the ground-state energy !
            +---------------------------------------------------------+

  
  
 One electron and reorthonormalization gradient calculation completed
 Total time used in CC_GRAD:   4.1000008583068848E-002
  
         DPTONE:    -56.093829623730
         ------ 
  
         DPTREO:     17.082166726811
         ------ 

 Number of two-electron spin-orbit integrals written:     10075 (16.0%)

 Number of two-electron spin-orbit integrals written:     23076 (15.2%)
 >>>  Time used in TWOINT     is   0.11 seconds

 Number of two-electron spin-orbit integrals written:     16788 (13.3%)
 >>>  Time used in TWOINT     is   0.12 seconds

 Number of two-electron spin-orbit integrals written:      6582 (26.1%)
  
 Two-electron first-order property calculation completed
 Total time used in CC_2EEXP:  0.40799999237060547     
  
         DPTTWO:      7.621998799711
         ------ 
  
         Total first-order DPT correction:    -31.389664097209
         --------------------------------


           +------------------------------------------------------------+
           !  Pauli relativistic corrections to the ground-state energy !
           +------------------------------------------------------------+

  
         1-elec. Darwin term:     81.456023674
         ------------------- 
  
         Mass-Velocity term:    -112.402319656
         ------------------  
  
         Mass-Velocity + 1-elec. Darwin terms:     -30.946295982
         ------------------------------------ 

 Number of two-electron spin-orbit integrals written:     10075 (16.0%)

 Number of two-electron spin-orbit integrals written:     22820 (15.1%)

 Number of two-electron spin-orbit integrals written:     16004 (12.7%)

 Number of two-electron spin-orbit integrals written:      6582 (26.1%)
  
         2-elec. Darwin term:      -0.442869193
         ------------------- 
  
         Total relativistic correction:     -31.389165175
         ----------------------------- 
  
 Two-electron first-order property calculation completed
 Total time used in CC_2EEXP:  0.13299989700317383     

 *******************************************************************

 Ground state energy is target 

 Ecorr =                  -2572.82486728934918573941

 *******************************************************************
  

 *******************************************************************************
 *******************************************************************************
 *                                                                             *
 *                                                                             *
 *                   SUMMARY OF COUPLED CLUSTER CALCULATION                    *
 *                                                                             *
 *                                                                             *
 *******************************************************************************
 *******************************************************************************

                                                                                
            Total SCF   energy:                 -2572.6579941096                
                                                                                
                                                                                
            Total SCF   energy:                 -2572.6579941096                
            Total MP2   energy:                 -2572.8203676640                
            Total CCSD  energy:                 -2572.8248672893                
  

 *******************************************************************************
 *******************************************************************************
 *                                                                             *
 *                                                                             *
 *                      END OF COUPLED CLUSTER CALCULATION                     *
 *                                                                             *
 *                                                                             *
 *******************************************************************************
 *******************************************************************************


 >>>> CPU and wall time for CC :       1.570       1.808

 
     Date and time (Linux)  : Sun Sep  8 21:16:20 2013
     Host name              : lpqlx131.ups-tlse.fr                    


                      .-------------------------------------.
                      | End of Coupled Cluster Section (CC) |
                      `-------------------------------------'

 >>>> Total CPU  time used in DALTON:   1.66 seconds
 >>>> Total wall time used in DALTON:   1.90 seconds

 
     Date and time (Linux)  : Sun Sep  8 21:16:20 2013
     Host name              : lpqlx131.ups-tlse.fr                    
