

     ************************************************************************
     *************** Dalton - An Electronic Structure Program ***************
     ************************************************************************

    This is output from DALTON (Release Dalton2013 patch 0)
   ----------------------------------------------------------------------------
    NOTE:
     
    Dalton is an experimental code for the evaluation of molecular
    properties using (MC)SCF, DFT, CI, and CC wave functions.
    The authors accept no responsibility for the performance of
    the code or for the correctness of the results.
     
    The code (in whole or part) is provided under a licence and
    is not to be reproduced for further distribution without
    the written permission of the authors or their representatives.
     
    See the home page "http://daltonprogram.org" for further information.
     
    If results obtained with this code are published,
    the appropriate citations would be both of:
     
       K. Aidas, C. Angeli, K. L. Bak, V. Bakken, R. Bast,
       L. Boman, O. Christiansen, R. Cimiraglia, S. Coriani,
       P. Dahle, E. K. Dalskov, U. Ekstroem, T. Enevoldsen,
       J. J. Eriksen, P. Ettenhuber, B. Fernandez, L. Ferrighi,
       H. Fliegl, L. Frediani, K. Hald, A. Halkier, C. Haettig,
       H. Heiberg, T. Helgaker, A. C. Hennum, H. Hettema,
       E. Hjertenaes, S. Hoest, I.-M. Hoeyvik, M. F. Iozzi,
       B. Jansik, H. J. Aa. Jensen, D. Jonsson, P. Joergensen,
       J. Kauczor, S. Kirpekar, T. Kjaergaard, W. Klopper,
       S. Knecht, R. Kobayashi, H. Koch, J. Kongsted, A. Krapp,
       K. Kristensen, A. Ligabue, O. B. Lutnaes, J. I. Melo,
       K. V. Mikkelsen, R. H. Myhre, C. Neiss, C. B. Nielsen,
       P. Norman, J. Olsen, J. M. H. Olsen, A. Osted,
       M. J. Packer, F. Pawlowski, T. B. Pedersen, P. F. Provasi,
       S. Reine, Z. Rinkevicius, T. A. Ruden, K. Ruud, V. Rybkin,
       P. Salek, C. C. M. Samson, A. Sanchez de Meras, T. Saue,
       S. P. A. Sauer, B. Schimmelpfennig, K. Sneskov,
       A. H. Steindal, K. O. Sylvester-Hvid, P. R. Taylor,
       A. M. Teale, E. I. Tellgren, D. P. Tew, A. J. Thorvaldsen,
       L. Thoegersen, O. Vahtras, M. A. Watson, D. J. D. Wilson,
       M. Ziolkowski and H. Agren.
       The Dalton quantum chemistry program system.
       WIREs Comput. Mol. Sci. 2013. doi: 10.1002/wcms.1172
    
    and
    
       Dalton, a Molecular Electronic Structure Program,
       Release DALTON2013.0 (2013), see http://daltonprogram.org
   ----------------------------------------------------------------------------

    Authors in alphabetical order (major contribution(s) in parenthesis):

  Kestutis Aidas,           Vilnius University,           Lithuania   (QM/MM)
  Celestino Angeli,         University of Ferrara,        Italy       (NEVPT2)
  Keld L. Bak,              UNI-C,                        Denmark     (AOSOPPA, non-adiabatic coupling, magnetic properties)
  Vebjoern Bakken,          University of Oslo,           Norway      (DALTON; geometry optimizer, symmetry detection)
  Radovan Bast,             KTH Stockholm                 Sweden      (DALTON installation and execution frameworks)
  Linus Boman,              NTNU,                         Norway      (Cholesky decomposition and subsystems)
  Ove Christiansen,         Aarhus University,            Denmark     (CC module)
  Renzo Cimiraglia,         University of Ferrara,        Italy       (NEVPT2)
  Sonia Coriani,            University of Trieste,        Italy       (CC module, MCD in RESPONS)
  Paal Dahle,               University of Oslo,           Norway      (Parallelization)
  Erik K. Dalskov,          UNI-C,                        Denmark     (SOPPA)
  Thomas Enevoldsen,        Univ. of Southern Denmark,    Denmark     (SOPPA)
  Janus J. Eriksen,         Aarhus University,            Denmark     (PE-MP2/SOPPA, TDA)
  Berta Fernandez,          U. of Santiago de Compostela, Spain       (doublet spin, ESR in RESPONS)
  Lara Ferrighi,            Aarhus University,            Denmark     (PCM Cubic response)
  Heike Fliegl,             University of Oslo,           Norway      (CCSD(R12))
  Luca Frediani,            UiT The Arctic U. of Norway,  Norway      (PCM)
  Bin Gao,                  UiT The Arctic U. of Norway,  Norway      (Gen1Int library)
  Christof Haettig,         Ruhr-University Bochum,       Germany     (CC module)
  Kasper Hald,              Aarhus University,            Denmark     (CC module)
  Asger Halkier,            Aarhus University,            Denmark     (CC module)
  Hanne Heiberg,            University of Oslo,           Norway      (geometry analysis, selected one-electron integrals)
  Trygve Helgaker,          University of Oslo,           Norway      (DALTON; ABACUS, ERI, DFT modules, London, and much more)
  Alf Christian Hennum,     University of Oslo,           Norway      (Parity violation)
  Hinne Hettema,            University of Auckland,       New Zealand (quadratic response in RESPONS; SIRIUS supersymmetry)
  Eirik Hjertenaes,         NTNU,                         Norway      (Cholesky decomposition)
  Maria Francesca Iozzi,    University of Oslo,           Norway      (RPA)
  Brano Jansik              Technical Univ. of Ostrava    Czech Rep.  (DFT cubic response)
  Hans Joergen Aa. Jensen,  Univ. of Southern Denmark,    Denmark     (DALTON; SIRIUS, RESPONS, ABACUS modules, London, and much more)
  Dan Jonsson,              UiT The Arctic U. of Norway,  Norway      (cubic response in RESPONS module)
  Poul Joergensen,          Aarhus University,            Denmark     (RESPONS, ABACUS, and CC modules)
  Joanna Kauczor,           Linkoeping University,        Sweden      (Complex polarization propagator (CPP) module)
  Sheela Kirpekar,          Univ. of Southern Denmark,    Denmark     (Mass-velocity & Darwin integrals)
  Wim Klopper,              KIT Karlsruhe,                Germany     (R12 code in CC, SIRIUS, and ABACUS modules)
  Stefan Knecht,            ETH Zurich,                   Switzerland (Parallel CI and MCSCF)
  Rika Kobayashi,           Australian National Univ.,    Australia   (DIIS in CC, London in MCSCF)
  Henrik Koch,              NTNU,                         Norway      (CC module, Cholesky decomposition)
  Jacob Kongsted,           Univ. of Southern Denmark,    Denmark     (Polarizable embedding, QM/MM)
  Andrea Ligabue,           University of Modena,         Italy       (CTOCD, AOSOPPA)
  Ola B. Lutnaes,           University of Oslo,           Norway      (DFT Hessian)
  Juan I. Melo,             University of Buenos Aires,   Argentina   (LRESC, Relativistic Effects on NMR Shieldings)
  Kurt V. Mikkelsen,        University of Copenhagen,     Denmark     (MC-SCRF and QM/MM)
  Rolf H. Myhre,            NTNU,                         Norway      (Cholesky, subsystems and ECC2)
  Christian Neiss,          Univ. Erlangen-Nuernberg,     Germany     (CCSD(R12))
  Christian B. Nielsen,     University of Copenhagen,     Denmark     (QM/MM)
  Patrick Norman,           Linkoeping University,        Sweden      (Cubic response and complex response in RESPONS)
  Jeppe Olsen,              Aarhus University,            Denmark     (SIRIUS CI/density modules)
  Jogvan Magnus H. Olsen,   Univ. of Southern Denmark,    Denmark     (Polarizable embedding, PE library, QM/MM)
  Anders Osted,             Copenhagen University,        Denmark     (QM/MM)
  Martin J. Packer,         University of Sheffield,      UK          (SOPPA)
  Filip Pawlowski,          Kazimierz Wielki University   Poland      (CC3)
  Thomas B. Pedersen,       University of Oslo,           Norway      (Cholesky decomposition)
  Patricio F. Provasi,      University of Northeastern,   Argentina   (Analysis of coupling constants in localized orbitals)
  Zilvinas Rinkevicius,     KTH Stockholm,                Sweden      (open-shell DFT, ESR)
  Elias Rudberg,            KTH Stockholm,                Sweden      (DFT grid and basis info)
  Torgeir A. Ruden,         University of Oslo,           Norway      (Numerical derivatives in ABACUS)
  Kenneth Ruud,             UiT The Arctic U. of Norway,  Norway      (DALTON; ABACUS magnetic properties and  much more)
  Pawel Salek,              KTH Stockholm,                Sweden      (DALTON; DFT code)
  Claire C. M. Samson       University of Karlsruhe       Germany     (Boys localization, r12 integrals in ERI)
  Alfredo Sanchez de Meras, University of Valencia,       Spain       (CC module, Cholesky decomposition)
  Trond Saue,               Paul Sabatier University,     France      (direct Fock matrix construction)
  Stephan P. A. Sauer,      University of Copenhagen,     Denmark     (SOPPA(CCSD), SOPPA prop., AOSOPPA, vibrational g-factors)
  Bernd Schimmelpfennig,    Forschungszentrum Karlsruhe,  Germany     (AMFI module)
  Kristian Sneskov,         Aarhus University,            Denmark     (QM/MM, PE-CC)
  Arnfinn H. Steindal,      UiT The Arctic U. of Norway,  Norway      (parallel QM/MM)
  K. O. Sylvester-Hvid,     University of Copenhagen,     Denmark     (MC-SCRF)
  Peter R. Taylor,          VLSCI/Univ. of Melbourne,     Australia   (Symmetry handling ABACUS, integral transformation)
  Andrew M. Teale,          University of Nottingham,     England     (DFT-AC, DFT-D)
  David P. Tew,             University of Bristol,        England     (CCSD(R12))
  Olav Vahtras,             KTH Stockholm,                Sweden      (triplet response, spin-orbit, ESR, TDDFT, open-shell DFT)
  David J. Wilson,          La Trobe University,          Australia   (DFT Hessian and DFT magnetizabilities)
  Hans Agren,               KTH Stockholm,                Sweden      (SIRIUS module, RESPONS, MC-SCRF solvation model)
 --------------------------------------------------------------------------------

     Date and time (Linux)  : Sun Sep  8 20:42:30 2013
     Host name              : lpqlx131.ups-tlse.fr                    

 * Work memory size             :    64000000 =  488.28 megabytes.

 * Directories for basis set searches:
   1) /home/bast/DALTON-2013.0-Source/build/test_cc_rsp_twophotb
   2) /home/bast/DALTON-2013.0-Source/build/basis


Compilation information
-----------------------

 Who compiled             | bast
 Host                     | lpqlx131.ups-tlse.fr
 System                   | Linux-3.8.5-201.fc18.x86_64
 CMake generator          | Unix Makefiles
 Processor                | x86_64
 64-bit integers          | OFF
 MPI                      | OFF
 Fortran compiler         | /usr/bin/gfortran
 Fortran compiler version | GNU Fortran (GCC) 4.7.2 20121109 (Red Hat 4.7.2-8)
 C compiler               | /usr/bin/gcc
 C compiler version       | gcc (GCC) 4.7.2 20121109 (Red Hat 4.7.2-8)
 C++ compiler             | /usr/bin/g++
 C++ compiler version     | g++ (GCC) 4.7.2 20121109 (Red Hat 4.7.2-8)
 Static linking           | OFF
 Last Git revision        | f34203295a86316e27f9e7b44f9b6769c4a046c0
 Configuration time       | 2013-09-08 20:31:27.952056


   Content of the .dal input file
 ----------------------------------

**DALTON INPUT                                    
.RUN WAVE FUNCTIONS                               
**INTEGRAL                                        
.DIPLEN                                           
**WAVE FUNCTIONS                                  
.CC                                               
*SCF INPUT                                        
.THRESH                                           
 1.0d-12                                          
*CC INPUT                                         
.CC2                                              
.FIELD                                            
 0.001                                            
 XDIPLEN                                          
.NSYM                                             
 2                                                
.THRENR                                           
 1.0d-8                                           
.THRLEQ                                           
 1.0d-8                                           
*CCEXCI                                           
.NCCEXCI                                          
 0 4                                              
.THREXC                                           
 1.0d-7                                           
*CCLRSD                                           
.DIPOLE                                           
**END OF DALTON INPUT                             


   Content of the .mol file
 ----------------------------

BASIS                                                                          
6-31G**                                                                        
Hydrogen flourid                                                               
small test basis                                                               
    2    1  Y  X      1.00D-15                                                 
        9.0   1                                                                
F     0.0000000000000000  0.0000000000000000 1.76320000000000000               
        1.0   1                                                                
H     0.0000000000000000  0.0000000000000000 0.00000000000000000               


       *******************************************************************
       *********** Output from DALTON general input processing ***********
       *******************************************************************

 --------------------------------------------------------------------------------
   Overall default print level:    0
   Print level for DALTON.STAT:    1

    HERMIT 1- and 2-electron integral sections will be executed
    "Old" integral transformation used (limited to max 255 basis functions)
    Wave function sections will be executed (SIRIUS module)
 --------------------------------------------------------------------------------


   ****************************************************************************
   *************** Output of molecule and basis set information ***************
   ****************************************************************************


    The two title cards from your ".mol" input:
    ------------------------------------------------------------------------
 1: Hydrogen flourid                                                        
 2: small test basis                                                        
    ------------------------------------------------------------------------

  Atomic type no.    1
  --------------------
  Nuclear charge:   9.00000
  Number of symmetry independent centers:    1
  Number of basis sets to read;    2
  Basis set file used for this atomic type with Z =   9 :
     "/home/bast/DALTON-2013.0-Source/build/basis/6-31G**"

  Info about the basis set file: your basis has no documentation.
  Basis set: 6-31G**                                                                         

  Atomic type no.    2
  --------------------
  Nuclear charge:   1.00000
  Number of symmetry independent centers:    1
  Number of basis sets to read;    2
  Basis set file used for this atomic type with Z =   1 :
     "/home/bast/DALTON-2013.0-Source/build/basis/6-31G**"

  Info about the basis set file: your basis has no documentation.
  Basis set: 6-31G**                                                                         


                         SYMGRP: Point group information
                         -------------------------------

Point group: Cs 

   * The point group was generated by:

      Reflection in the xz-plane

   * Group multiplication table

        |  E   Oxz
   -----+----------
     E  |  E   Oxz
    Oxz | Oxz   E 

   * Character table

        |  E   Oxz
   -----+----------
    A'  |   1    1
    A"  |   1   -1

   * Direct product table

        | A'   A" 
   -----+----------
    A'  | A'   A" 
    A"  | A"   A' 


                                 Isotopic Masses
                                 ---------------

                           F          18.998403
                           H           1.007825

                       Total mass:    20.006228 amu
                       Natural abundance:  99.985 %

 Center-of-mass coordinates (a.u.):    0.000000    0.000000    1.674378


  Atoms and basis sets
  --------------------

  Number of atom types :    2
  Total number of atoms:    2

  Basis set used is "6-31G**" from the basis set library.

  label    atoms   charge   prim   cont     basis
  ----------------------------------------------------------------------
  F           1    9.0000    27    14      [10s4p1d|3s2p1d]                                   
  H           1    1.0000     7     5      [4s1p|2s1p]                                        
  ----------------------------------------------------------------------
  total:      2   10.0000    34    19
  ----------------------------------------------------------------------
  Spherical harmonic basis used.

  Threshold for neglecting AO integrals:  1.00D-15


  Cartesian Coordinates (a.u.)
  ----------------------------

  Total number of coordinates:    6
  F       :     1  x   0.0000000000    2  y   0.0000000000    3  z   1.7632000000
  H       :     4  x   0.0000000000    5  y   0.0000000000    6  z   0.0000000000


  Symmetry Coordinates
  --------------------

  Number of coordinates in each symmetry:     4    2

  Symmetry  A'  ( 1)

    1   F     x    1
    2   F     z    3
    3   H     x    4
    4   H     z    6

  Symmetry  A"  ( 2)

    5   F     y    2
    6   H     y    5


   Interatomic separations (in Angstrom):
   --------------------------------------

            F           H     
            ------      ------
 F     :    0.000000
 H     :    0.933045    0.000000


  Max    interatomic separation is    0.9330 Angstrom (    1.7632 Bohr)
  between atoms    2 and    1, "H     " and "F     ".

  Min HX interatomic separation is    0.9330 Angstrom (    1.7632 Bohr)


  Bond distances (Angstrom):
  --------------------------

                  atom 1     atom 2       distance
                  ------     ------       --------
  bond distance:  H          F            0.933045




 Principal moments of inertia (u*A**2) and principal axes
 --------------------------------------------------------

   IA       0.000000          0.000000    0.000000    1.000000
   IB       0.833187          0.000000    1.000000    0.000000
   IC       0.833187          1.000000    0.000000    0.000000


 Rotational constants
 --------------------

 The molecule is linear.

               B =       606561.40 MHz     (   20.232710 cm-1)


@  Nuclear repulsion energy :    5.104355716878 Hartree


  Symmetry Orbitals
  -----------------

  Number of orbitals in each symmetry:          14    5


  Symmetry  A' ( 1)

    1     F        1s         1
    2     F        1s         2
    3     F        1s         3
    4     F        2px        4
    5     F        2pz        6
    6     F        2px        7
    7     F        2pz        9
    8     F        3d0       12
    9     F        3d1+      13
   10     F        3d2+      14
   11     H        1s        15
   12     H        1s        16
   13     H        2px       17
   14     H        2pz       19


  Symmetry  A" ( 2)

   15     F        2py        5
   16     F        2py        8
   17     F        3d2-      10
   18     F        3d1-      11
   19     H        2py       18

  Symmetries of electric field:  A' (1)  A" (2)  A' (1)

  Symmetries of magnetic field:  A" (2)  A' (1)  A" (2)


                     .---------------------------------------.
                     | Starting in Integral Section (HERMIT) |
                     `---------------------------------------'



    *************************************************************************
    ****************** Output from HERMIT input processing ******************
    *************************************************************************


 Default print level:        1

 * Nuclear model: Point charge

 Calculation of one- and two-electron Hamiltonian integrals.

 The following one-electron property integrals are calculated as requested:
          - overlap integrals
          - dipole length integrals

 Center of mass  (bohr):      0.000000000000      0.000000000000      1.674377807231
 Operator center (bohr):      0.000000000000      0.000000000000      0.000000000000
 Gauge origin    (bohr):      0.000000000000      0.000000000000      0.000000000000
 Dipole origin   (bohr):      0.000000000000      0.000000000000      0.000000000000


     ************************************************************************
     ************************** Output from HERINT **************************
     ************************************************************************


 Threshold for neglecting two-electron integrals:  1.00D-15
 Number of two-electron integrals written:        4125 ( 22.7% )
 Megabytes written:                              0.048

 >>>> Total CPU  time used in HERMIT:   0.01 seconds
 >>>> Total wall time used in HERMIT:   0.01 seconds


                        .----------------------------------.
                        | End of Integral Section (HERMIT) |
                        `----------------------------------'



                   .--------------------------------------------.
                   | Starting in Wave Function Section (SIRIUS) |
                   `--------------------------------------------'

 NCCEXCI for singlet:           0           4

 *** Output from Huckel module :

     Using EWMO model:          T
     Using EHT  model:          F
     Number of Huckel orbitals each symmetry:    5    1

 EWMO - Energy Weighted Maximum Overlap - is a Huckel type method,
        which normally is better than Extended Huckel Theory.
 Reference: Linderberg and Ohrn, Propagators in Quantum Chemistry (Wiley, 1973)

 Huckel EWMO eigenvalues for symmetry :  1
          -26.384238      -1.721955      -0.830116      -0.730000      -0.248892

 Huckel EWMO eigenvalues for symmetry :  2
           -0.730000

 **********************************************************************
 *SIRIUS* a direct, restricted step, second order MCSCF program       *
 **********************************************************************

 
     Date and time (Linux)  : Sun Sep  8 20:42:30 2013
     Host name              : lpqlx131.ups-tlse.fr                    

 Title lines from ".mol" input file:
     Hydrogen flourid                                                        
     small test basis                                                        

 Print level on unit LUPRI =   2 is   0
 Print level on unit LUW4  =   2 is   5

@    (Integral direct) CC calculation.

@    This is a combination run starting with
@              a restricted, closed shell Hartree-Fock calculation


 Initial molecular orbitals are obtained according to
 ".MOSTART EWMO  " input option

     Wave function specification
     ============================

     For the specification of the Coupled Cluster: see later.

@    For the wave function of type :      >>> CC <<<
@    Number of closed shell electrons          10
@    Number of electrons in active shells       0
@    Total charge of the molecule               0

@    Spin multiplicity and 2 M_S                1         0
     Total number of symmetries                 2
@    Reference state symmetry                   1

     Orbital specifications
     ======================
     Abelian symmetry species          All |    1    2
                                       --- |  ---  ---
     Total number of orbitals           19 |   14    5
     Number of basis functions          19 |   14    5

      ** Automatic occupation of RHF orbitals **

      -- Initial occupation of symmetries is determined from extended Huckel guess.           
      -- Initial occupation of symmetries is :
@    Occupied SCF orbitals               5 |    4    1

     Maximum number of Fock   iterations      0
     Maximum number of DIIS   iterations     60
     Maximum number of QC-SCF iterations     60
     Threshold for SCF convergence     1.00D-12


 Changes of defaults for CC:
 ---------------------------

 -Calculation with finite fields:
    Field strength:   0.001000Field Label:  XDIPLEN 

 Electric field:      0.00100000    0.00000000    0.00000000
 Total norm:          0.00100000
Center of charge:    0.00000000    0.00000000    1.58688000
Charge correction to interaction with electric field:   -0.00000000

 -Excitation energies calculated
 -One-photon absorption strengths will be calculated
 -Oscillator strengths calculated
  


 >>>>> DIIS optimization of Hartree-Fock <<<<<

 C1-DIIS algorithm; max error vectors =   10

 Automatic occupation of symmetries with  10 electrons.

 Iter     Total energy    Error norm  Delta(E)    SCF occupation
 -----------------------------------------------------------------------------
     (Precalculated two-electron integrals are transformed to P-supermatrix elements.
      Threshold for discarding integrals :  1.00D-15 )
@  1  -99.9159496472       1.29D+00  -9.99D+01     4   1
      Virial theorem: -V/T =      1.997399
@      MULPOP F      -0.44; H       0.44; 
 -----------------------------------------------------------------------------
@  2  -100.006061881       2.26D-01  -9.01D-02     4   1
      Virial theorem: -V/T =      2.002657
@      MULPOP F      -0.38; H       0.38; 
 -----------------------------------------------------------------------------
@  3  -100.008563846       8.51D-02  -2.50D-03     4   1
      Virial theorem: -V/T =      1.999075
@      MULPOP F      -0.41; H       0.41; 
 -----------------------------------------------------------------------------
@  4  -100.008886254       2.15D-02  -3.22D-04     4   1
      Virial theorem: -V/T =      2.000623
@      MULPOP F      -0.41; H       0.41; 
 -----------------------------------------------------------------------------
@  5  -100.008918307       3.56D-03  -3.21D-05     4   1
      Virial theorem: -V/T =      2.000296
@      MULPOP F      -0.42; H       0.42; 
 -----------------------------------------------------------------------------
@  6  -100.008919840       7.37D-04  -1.53D-06     4   1
      Virial theorem: -V/T =      2.000320
@      MULPOP F      -0.42; H       0.42; 
 -----------------------------------------------------------------------------
@  7  -100.008919896       5.25D-05  -5.51D-08     4   1
      Virial theorem: -V/T =      2.000327
@      MULPOP F      -0.42; H       0.42; 
 -----------------------------------------------------------------------------
@  8  -100.008919896       4.66D-06  -2.57D-10     4   1
      Virial theorem: -V/T =      2.000326
@      MULPOP F      -0.42; H       0.42; 
 -----------------------------------------------------------------------------
@  9  -100.008919896       4.39D-07  -1.08D-12     4   1
      Virial theorem: -V/T =      2.000327
@      MULPOP F      -0.42; H       0.42; 
 -----------------------------------------------------------------------------
@ 10  -100.008919896       2.49D-08   1.42D-14     4   1
      Virial theorem: -V/T =      2.000327
@      MULPOP F      -0.42; H       0.42; 
 -----------------------------------------------------------------------------
@ 11  -100.008919896       2.56D-09  -5.68D-14     4   1
      Virial theorem: -V/T =      2.000327
@      MULPOP F      -0.42; H       0.42; 
 -----------------------------------------------------------------------------
@ 12  -100.008919896       6.66D-11   5.68D-14     4   1
      Virial theorem: -V/T =      2.000327
@      MULPOP F      -0.42; H       0.42; 
 -----------------------------------------------------------------------------
@ 13  -100.008919896       8.93D-12  -5.68D-14     4   1
      Virial theorem: -V/T =      2.000327
@      MULPOP F      -0.42; H       0.42; 
 -----------------------------------------------------------------------------
@ 14  -100.008919896       3.45D-13   0.00D+00     4   1

@ *** DIIS converged in  14 iterations !
@     Converged SCF energy, gradient:   -100.008919895850    3.45D-13
    - total time used in SIRFCK :              0.00 seconds


 *** SCF orbital energy analysis ***

 Only the five lowest virtual orbital energies printed in each symmetry.

 Number of electrons :   10
 Orbital occupations :    4    1

 Sym       Hartree-Fock orbital energies

  1    -26.27306629    -1.57292658    -0.73710501    -0.62549523     0.21639320
         1.01969778     1.48848713     1.53899963     1.89379537

  2     -0.62549523     1.48848713     1.89379537     2.15801858     3.02038759


    E(LUMO) :     0.21639320 au (symmetry 1)
  - E(HOMO) :    -0.62549523 au (symmetry 2)
  ------------------------------------------
    gap     :     0.84188843 au

 >>> Writing SIRIFC interface file <<<

 >>>> CPU and wall time for SCF :       0.006       0.007


                       .-----------------------------------.
                       | >>> Final results from SIRIUS <<< |
                       `-----------------------------------'


@    Spin multiplicity:           1
@    Spatial symmetry:            1
@    Total charge of molecule:    0

@    Final HF energy:            -100.008919895850                 
@    Nuclear repulsion:             5.104355716878
@    Electronic energy:          -105.113275612729

@    Final gradient norm:           0.000000000000

 
     Date and time (Linux)  : Sun Sep  8 20:42:30 2013
     Host name              : lpqlx131.ups-tlse.fr                    

 (Only coefficients >0.0100 are printed.)

 Molecular orbitals for symmetry species  1
 ------------------------------------------

    Orbital         1        2        3        4        5        6
   1 F   :1s    -0.9955  -0.2308  -0.0555   0.0000   0.0644   0.0183
   2 F   :1s    -0.0212   0.5025   0.1234  -0.0000  -0.0741  -0.1606
   3 F   :1s     0.0052   0.5082   0.2358  -0.0000  -0.7503   0.3606
   4 F   :2px   -0.0000  -0.0000  -0.0000  -0.6587   0.0000  -0.0000
   5 F   :2pz    0.0013  -0.0602   0.5496  -0.0000   0.2591   0.3919
   6 F   :2px    0.0000  -0.0000  -0.0000  -0.4859   0.0000  -0.0000
   7 F   :2pz   -0.0009  -0.0224   0.3522  -0.0000   0.4759  -0.1052
   8 F   :3d0    0.0000   0.0013  -0.0237   0.0000  -0.0259   0.2926
   9 F   :3d1+  -0.0000   0.0000   0.0000   0.0223  -0.0000   0.0000
  11 H   :1s    -0.0001   0.1311  -0.2709   0.0000   0.1124   0.9672
  12 H   :1s    -0.0013   0.0073  -0.1255   0.0000   1.3668  -0.9276
  13 H   :2px    0.0000   0.0000   0.0000  -0.0198  -0.0000   0.0000
  14 H   :2pz    0.0006   0.0312  -0.0288   0.0000   0.0206  -0.2828

 Molecular orbitals for symmetry species  2
 ------------------------------------------

    Orbital         1        2        3
   1 F   :2py    0.6587  -0.9416   0.1036
   2 F   :2py    0.4859   1.0109  -0.2903
   4 F   :3d1-  -0.0223  -0.0635  -0.6960
   5 H   :2py    0.0198   0.0764   0.4878



 >>>> Total CPU  time used in SIRIUS :      0.01 seconds
 >>>> Total wall time used in SIRIUS :      0.01 seconds

 
     Date and time (Linux)  : Sun Sep  8 20:42:30 2013
     Host name              : lpqlx131.ups-tlse.fr                    


                     .---------------------------------------.
                     | End of Wave Function Section (SIRIUS) |
                     `---------------------------------------'



                    .------------------------------------------.
                    | Starting in Coupled Cluster Section (CC) |
                    `------------------------------------------'

  

 *******************************************************************************
 *******************************************************************************
 *                                                                             *
 *                                                                             *
 *                    START OF COUPLED CLUSTER CALCULATION                     *
 *                                                                             *
 *                                                                             *
 *******************************************************************************
 *******************************************************************************



 CCR12 ANSATZ =   0

 CCR12 APPROX =   0

   

 *******************************************************************
 *                                                                 *
 *<<<<<<<<<<                                             >>>>>>>>>>*
 *<<<<<<<<<< OUTPUT FROM COUPLED CLUSTER ENERGY PROGRAM  >>>>>>>>>>*
 *<<<<<<<<<<                                             >>>>>>>>>>*
 *                                                                 *
 *******************************************************************


             The Direct Coupled Cluster Energy Program
             -----------------------------------------


          Number of t1 amplitudes                 :        44
          Number of t2 amplitudes                 :      1341
          Total number of amplitudes in ccsd      :      1385

 Iter.  1: Coupled cluster MP2   energy :    -100.1936625719336718
 Iter.  1: Coupled cluster CC2   energy :    -100.1935147855342763
 Iter.  2: Coupled cluster CC2   energy :    -100.1946034214974048
 Iter.  3: Coupled cluster CC2   energy :    -100.1947018929150488
 Iter.  4: Coupled cluster CC2   energy :    -100.1946900909764508
 Iter.  5: Coupled cluster CC2   energy :    -100.1946879016093845
 Iter.  6: Coupled cluster CC2   energy :    -100.1946878403541206
 Iter.  7: Coupled cluster CC2   energy :    -100.1946878679379012
 Iter.  8: Coupled cluster CC2   energy :    -100.1946878733055684

 CC2   energy converged to within   0.10D-07 is         -100.194687873306
 Final 2-norm of the CC vector function:  1.41336419D-06





             +-------------------------------------------------------+
             ! Final results from the Coupled Cluster energy program !
             +-------------------------------------------------------+



            Total SCF   energy:                  -100.0089198959

            Total MP2   energy:                  -100.1936625719

            Total CC2   energy:                  -100.1946878733




                   +--------------------------------------------+
                   ! Calculating singlet intermediates for CCLR !
                   +--------------------------------------------+



            E-intermediates calculated 
            Fock-intermediate calculated 


   

 *******************************************************************
 *                                                                 *
 *<<<<<<<<<<<<< OUTPUT FROM COUPLED CLUSTER RESPONSE  >>>>>>>>>>>>>*
 *                                                                 *
 *******************************************************************



                         +-------------------------------+
                         ! Coupled Cluster model is: CC2 !
                         +-------------------------------+

 RPA: call cceq_str
 RPA: exit cceq_str
  
   

 *******************************************************************
 *                                                                 *
 *<<<<<<<<<< OUTPUT FROM COUPLED CLUSTER LINEAR RESPONSE >>>>>>>>>>*
 *                                                                 *
 *<<<<<<<<<<     CALCULATION OF EXCITATION ENERGIES      >>>>>>>>>>*
 *                                                                 *
 *******************************************************************



                            +--------------------------+
                            !  CC2 Excitation Energies !
                            +--------------------------+


 --------------------------
 Symmetry class Nr.:     1
 Multiplicity      :     1
 --------------------------

 Length of Excitation vectors in this class is:      1385
 No Excitation Energies calculated in this symmetry class

 --------------------------
 Symmetry class Nr.:     1
 Multiplicity      :     3
 --------------------------

 Length of Excitation vectors in this class is:      2726
 No Excitation Energies calculated in this symmetry class


 *******************************************************************************

 --------------------------
 Symmetry class Nr.:     2
 Multiplicity      :     1
 --------------------------

 Length of Excitation vectors in this class is:      1170
 Converging for  4 roots.
 Start vector guessed from diagonal
 ... selected element no. 17
 Start vector guessed from diagonal
 ... selected element no. 18
 Start vector guessed from diagonal
 ... selected element no.761
 Start vector guessed from diagonal
 ... selected element no.751


 SYMMETRY CLASS NR.    2
 MULTIPLICITY          1


 CC2        right excitation energies:
 ====================================
 (conversion factor used: 1 au = 27.2113957 eV)

 Excitation no.       Hartree               eV 
 --------------       -------               --
         1            0.3966823207       10.7942750389
         2            1.0909836425       29.6871750639
         3            1.5015832122       40.8601577117
         4            1.5183286977       41.3158255492


 Total excited state energies for states of symmetry/spin    2    1
 Excitation no.       Energy (Hartree) 
 ------------------------------------- 
@@    2    1           -99.798005552565854
@@    2    2           -99.103704230767718
@@    2    3           -98.693104661058101
@@    2    4           -98.676359175638311


 Analysis of the Coupled Cluster Excitation Vector Number :  1
 -------------------------------------------------------------

          Excitation Energy :                            10.7943 eV


          CC_PRAM:Overall Contribution of the Different Components
          --------------------------------------------------------



          Single Excitation Contribution :              96.7342 %

          Double Excitation Contribution :               3.2658 %

          ||T1||/||T2||                  :               5.4425

          Norm of Total Amplitude Vector :               1.0000


 +=============================================================================+
 | symmetry|  orbital index  |   Excitation Numbers             |   Amplitude  |
 |  Index  |   a   b   i   j |      NAI      NBJ |     NAIBJ    |              |
 +=============================================================================+
 | 1   2   |   1       1     |       17          |              |    0.977079  |
 +-----------------------------------------------------------------------------+
 | 2 1 1 1 |   1   8   4   3 |       13       28 |          715 |   -0.041926  |
 | 2 1 1 1 |   1   9   3   3 |        9       29 |          737 |    0.063962  |
 | 1 1 2 1 |   7   8   1   3 |       23       28 |          725 |    0.098276  |
 | 1 1 2 1 |   8   8   1   3 |       24       28 |          726 |    0.059679  |
 | 1 1 2 1 |  10   8   1   3 |       26       28 |          728 |   -0.039739  |
 | 1 1 2 1 |   1   9   1   3 |       17       29 |          745 |   -0.072785  |
 +=============================================================================+


          Norm of Printed Amplitude Vector :             0.9903

          Printed all single excitations greater than 0.196707

          Printed all double excitations greater than 0.036143


 Analysis of the Coupled Cluster Excitation Vector Number :  2
 -------------------------------------------------------------

          Excitation Energy :                            29.6872 eV


          CC_PRAM:Overall Contribution of the Different Components
          --------------------------------------------------------



          Single Excitation Contribution :              96.1368 %

          Double Excitation Contribution :               3.8632 %

          ||T1||/||T2||                  :               4.9885

          Norm of Total Amplitude Vector :               1.0000


 +=============================================================================+
 | symmetry|  orbital index  |   Excitation Numbers             |   Amplitude  |
 |  Index  |   a   b   i   j |      NAI      NBJ |     NAIBJ    |              |
 +=============================================================================+
 | 1   2   |   2       1     |       18          |              |    0.974048  |
 +-----------------------------------------------------------------------------+
 | 2 1 1 1 |   2  10   2   3 |        6       30 |          760 |   -0.045166  |
 | 2 1 1 1 |   3  10   4   3 |       15       30 |          769 |    0.083543  |
 | 2 1 1 1 |   4  10   4   3 |       16       30 |          770 |    0.090345  |
 | 2 1 1 1 |   1   1   1   4 |        1       31 |          781 |    0.053404  |
 | 2 1 1 1 |   1   1   3   4 |        9       31 |          789 |   -0.063192  |
 | 1 1 2 1 |   7   8   1   3 |       23       28 |          725 |   -0.043047  |
 +=============================================================================+


          Norm of Printed Amplitude Vector :             0.9872

          Printed all single excitations greater than 0.196099

          Printed all double excitations greater than 0.039310


 Analysis of the Coupled Cluster Excitation Vector Number :  3
 -------------------------------------------------------------

          Excitation Energy :                            40.8602 eV


          CC_PRAM:Overall Contribution of the Different Components
          --------------------------------------------------------



          Single Excitation Contribution :              99.2106 %

          Double Excitation Contribution :               0.7894 %

          ||T1||/||T2||                  :              11.2109

          Norm of Total Amplitude Vector :               1.0000


 +=============================================================================+
 | symmetry|  orbital index  |   Excitation Numbers             |   Amplitude  |
 |  Index  |   a   b   i   j |      NAI      NBJ |     NAIBJ    |              |
 +=============================================================================+
 | 1   2   |   3       1     |       19          |              |   -0.704273  |
 | 2   1   |   1       4     |       13          |              |   -0.704249  |
 +-----------------------------------------------------------------------------+
 | 2 1 1 1 |   1   9   2   1 |        5        9 |          213 |   -0.019331  |
 | 2 1 1 1 |   3   9   3   1 |       11        9 |          219 |    0.019331  |
 | 2 1 1 1 |   1   5   2   3 |        5       25 |          629 |    0.019331  |
 | 2 1 1 1 |   2   6   1   3 |        2       26 |          652 |    0.017838  |
 | 2 1 1 1 |   1   8   2   4 |        5       38 |          967 |   -0.017839  |
 | 2 1 1 1 |   4   9   4   4 |       16       39 |         1004 |    0.017839  |
 | 1 1 2 1 |   9   7   1   4 |       25       37 |          961 |    0.017839  |
 | 1 1 2 1 |   3   8   1   4 |       19       38 |          981 |    0.019331  |
 +=============================================================================+


          Norm of Printed Amplitude Vector :             0.9974

          Printed all single excitations greater than 0.199209

          Printed all double excitations greater than 0.017769


 Analysis of the Coupled Cluster Excitation Vector Number :  4
 -------------------------------------------------------------

          Excitation Energy :                            41.3158 eV


          CC_PRAM:Overall Contribution of the Different Components
          --------------------------------------------------------



          Single Excitation Contribution :              99.1346 %

          Double Excitation Contribution :               0.8654 %

          ||T1||/||T2||                  :              10.7033

          Norm of Total Amplitude Vector :               1.0000


 +=============================================================================+
 | symmetry|  orbital index  |   Excitation Numbers             |   Amplitude  |
 |  Index  |   a   b   i   j |      NAI      NBJ |     NAIBJ    |              |
 +=============================================================================+
 | 1   2   |   3       1     |       19          |              |    0.703866  |
 | 2   1   |   1       4     |       13          |              |   -0.703895  |
 +-----------------------------------------------------------------------------+
 | 2 1 1 1 |   1   9   2   1 |        5        9 |          213 |   -0.019347  |
 | 2 1 1 1 |   3   2   4   3 |       15       22 |          561 |   -0.020549  |
 | 2 1 1 1 |   3   9   2   3 |        7       29 |          735 |   -0.022880  |
 | 2 1 1 1 |   1   3   1   4 |        1       33 |          833 |   -0.020549  |
 | 1 1 2 1 |   3   8   1   4 |       19       38 |          981 |   -0.019346  |
 +=============================================================================+


          Norm of Printed Amplitude Vector :             0.9965

          Printed all single excitations greater than 0.199133

          Printed all double excitations greater than 0.018605


 *******************************************************************************

 --------------------------
 Symmetry class Nr.:     2
 Multiplicity      :     3
 --------------------------

 Length of Excitation vectors in this class is:      2314
 No Excitation Energies calculated in this symmetry class
   

 *******************************************************************
 *                                                                 *
 *<<<<<<<<<< OUTPUT FROM COUPLED CLUSTER LINEAR RESPONSE >>>>>>>>>>*
 *                                                                 *
 *<<<<<<<<<<     CALCULATION OF EXCITATION ENERGIES      >>>>>>>>>>*
 *                                                                 *
 *******************************************************************



                            +--------------------------+
                            !  CC2 Excitation Energies !
                            +--------------------------+


 --------------------------
 Symmetry class Nr.:     1
 Multiplicity      :     1
 --------------------------

 Length of Excitation vectors in this class is:      1385
 No Excitation Energies calculated in this symmetry class

 --------------------------
 Symmetry class Nr.:     1
 Multiplicity      :     3
 --------------------------

 Length of Excitation vectors in this class is:      2726
 No Excitation Energies calculated in this symmetry class


 *******************************************************************************

 --------------------------
 Symmetry class Nr.:     2
 Multiplicity      :     1
 --------------------------

 Length of Excitation vectors in this class is:      1170
 Converging for  4 roots.
Try to use right eigenvector as start for a left eigenvector.
 Vector nr.  1 of symmetry  2 found on file - RESTART SUCCESS
 Start vector is a  CC2       RE vector
Try to use right eigenvector as start for a left eigenvector.
 Vector nr.  2 of symmetry  2 found on file - RESTART SUCCESS
 Start vector is a  CC2       RE vector
Try to use right eigenvector as start for a left eigenvector.
 Vector nr.  3 of symmetry  2 found on file - RESTART SUCCESS
 Start vector is a  CC2       RE vector
Try to use right eigenvector as start for a left eigenvector.
 Vector nr.  4 of symmetry  2 found on file - RESTART SUCCESS
 Start vector is a  CC2       RE vector


 SYMMETRY CLASS NR.    2
 MULTIPLICITY          1


 CC2        left excitation energies:
 ====================================
 (conversion factor used: 1 au = 27.2113957 eV)

 Excitation no.       Hartree               eV 
 --------------       -------               --
         1            0.3966823209       10.7942750424
         2            1.0909836425       29.6871750638
         3            1.5015832122       40.8601577115
         4            1.5183286977       41.3158255500


 Total excited state energies for states of symmetry/spin    2    1
 Excitation no.       Energy (Hartree) 
 ------------------------------------- 
@@    2    1           -99.798005552438951
@@    2    2           -99.103704230772010
@@    2    3           -98.693104661063458
@@    2    4           -98.676359175609235


 Analysis of the Coupled Cluster Excitation Vector Number :  1
 -------------------------------------------------------------

          Excitation Energy :                            10.7943 eV


          CC_PRAM:Overall Contribution of the Different Components
          --------------------------------------------------------



          Single Excitation Contribution :              92.2288 %

          Double Excitation Contribution :               7.7712 %

          ||T1||/||T2||                  :               3.4450

          Norm of Total Amplitude Vector :               1.0000


 +=============================================================================+
 | symmetry|  orbital index  |   Excitation Numbers             |   Amplitude  |
 |  Index  |   a   b   i   j |      NAI      NBJ |     NAIBJ    |              |
 +=============================================================================+
 | 1   2   |   1       1     |       17          |              |    0.954588  |
 +-----------------------------------------------------------------------------+
 | 2 1 1 1 |   1   9   3   3 |        9       29 |          737 |    0.125314  |
 | 2 1 1 1 |   3  10   4   3 |       15       30 |          769 |   -0.058726  |
 | 1 1 2 1 |   2   8   1   3 |       18       28 |          720 |    0.057495  |
 | 1 1 2 1 |   7   8   1   3 |       23       28 |          725 |    0.094783  |
 | 1 1 2 1 |   8   8   1   3 |       24       28 |          726 |    0.118493  |
 | 1 1 2 1 |  10   8   1   3 |       26       28 |          728 |   -0.077575  |
 | 1 1 2 1 |   1   9   1   3 |       17       29 |          745 |   -0.072987  |
 | 1 1 2 1 |   1   2   1   4 |       17       32 |          823 |   -0.057348  |
 +=============================================================================+


          Norm of Printed Amplitude Vector :             0.9856

          Printed all single excitations greater than 0.192072

          Printed all double excitations greater than 0.055754


 Analysis of the Coupled Cluster Excitation Vector Number :  2
 -------------------------------------------------------------

          Excitation Energy :                            29.6872 eV


          CC_PRAM:Overall Contribution of the Different Components
          --------------------------------------------------------



          Single Excitation Contribution :              90.9866 %

          Double Excitation Contribution :               9.0134 %

          ||T1||/||T2||                  :               3.1772

          Norm of Total Amplitude Vector :               1.0000


 +=============================================================================+
 | symmetry|  orbital index  |   Excitation Numbers             |   Amplitude  |
 |  Index  |   a   b   i   j |      NAI      NBJ |     NAIBJ    |              |
 +=============================================================================+
 | 1   2   |   2       1     |       18          |              |    0.947419  |
 +-----------------------------------------------------------------------------+
 | 2 1 1 1 |   1   9   3   3 |        9       29 |          737 |   -0.061098  |
 | 2 1 1 1 |   3  10   4   3 |       15       30 |          769 |    0.155918  |
 | 2 1 1 1 |   4  10   4   3 |       16       30 |          770 |    0.088357  |
 | 2 1 1 1 |   1   1   1   4 |        1       31 |          781 |    0.102748  |
 | 2 1 1 1 |   1   1   3   4 |        9       31 |          789 |   -0.063322  |
 | 1 1 2 1 |   8   8   1   3 |       24       28 |          726 |   -0.068308  |
 +=============================================================================+


          Norm of Printed Amplitude Vector :             0.9761

          Printed all single excitations greater than 0.190774

          Printed all double excitations greater than 0.060045


 Analysis of the Coupled Cluster Excitation Vector Number :  3
 -------------------------------------------------------------

          Excitation Energy :                            40.8602 eV


          CC_PRAM:Overall Contribution of the Different Components
          --------------------------------------------------------



          Single Excitation Contribution :              98.4320 %

          Double Excitation Contribution :               1.5680 %

          ||T1||/||T2||                  :               7.9232

          Norm of Total Amplitude Vector :               1.0000


 +=============================================================================+
 | symmetry|  orbital index  |   Excitation Numbers             |   Amplitude  |
 |  Index  |   a   b   i   j |      NAI      NBJ |     NAIBJ    |              |
 +=============================================================================+
 | 1   2   |   3       1     |       19          |              |   -0.701507  |
 | 2   1   |   1       4     |       13          |              |   -0.701483  |
 +-----------------------------------------------------------------------------+
 | 2 1 1 1 |   1   9   2   1 |        5        9 |          213 |   -0.026873  |
 | 2 1 1 1 |   3   9   3   1 |       11        9 |          219 |    0.026873  |
 | 2 1 1 1 |   3   2   1   3 |        3       22 |          549 |   -0.025453  |
 | 2 1 1 1 |   1   5   2   3 |        5       25 |          629 |    0.026873  |
 | 2 1 1 1 |   3   2   2   4 |        7       32 |          813 |   -0.025454  |
 | 1 1 2 1 |   3   8   1   4 |       19       38 |          981 |    0.026873  |
 +=============================================================================+


          Norm of Printed Amplitude Vector :             0.9942

          Printed all single excitations greater than 0.198426

          Printed all double excitations greater than 0.025044


 Analysis of the Coupled Cluster Excitation Vector Number :  4
 -------------------------------------------------------------

          Excitation Energy :                            41.3158 eV


          CC_PRAM:Overall Contribution of the Different Components
          --------------------------------------------------------



          Single Excitation Contribution :              98.2370 %

          Double Excitation Contribution :               1.7630 %

          ||T1||/||T2||                  :               7.4647

          Norm of Total Amplitude Vector :               1.0000


 +=============================================================================+
 | symmetry|  orbital index  |   Excitation Numbers             |   Amplitude  |
 |  Index  |   a   b   i   j |      NAI      NBJ |     NAIBJ    |              |
 +=============================================================================+
 | 1   2   |   3       1     |       19          |              |    0.700678  |
 | 2   1   |   1       4     |       13          |              |   -0.700707  |
 +-----------------------------------------------------------------------------+
 | 2 1 1 1 |   1   9   2   1 |        5        9 |          213 |   -0.026849  |
 | 1 1 2 1 |   3   8   1   4 |       19       38 |          981 |   -0.026848  |
 +=============================================================================+


          Norm of Printed Amplitude Vector :             0.9917

          Printed all single excitations greater than 0.198229

          Printed all double excitations greater than 0.026556



+======================================================================+
| contributions of excitation levels to right eigenvectors as computed |
| from the (RE|RE) self overlap                                        |
+----------------------------------------------------------------------+
| sym | multi | state |    E / eV  | % singles | % doubles | % triples |
+======================================================================+
|    2|   1   |   1   |   10.79428 |  96.7342  |   3.2658  |   0.0000  |
|    2|   1   |   2   |   29.68718 |  96.1368  |   3.8632  |   0.0000  |
|    2|   1   |   3   |   40.86016 |  99.2106  |   0.7894  |   0.0000  |
|    2|   1   |   4   |   41.31583 |  99.1346  |   0.8654  |   0.0000  |
+======================================================================+





+======================================================================+
| contributions of excitation levels to excited states as computed     |
| from the (LE|RE) overlap                                             |
+----------------------------------------------------------------------+
| sym | multi | state |    E / eV  | % singles | % doubles | % triples |
+======================================================================+
|    2|   1   |   1   |   10.79428 |  95.5798  |   4.4202  |   0.0000  |
|    2|   1   |   2   |   29.68718 |  94.8034  |   5.1966  |   0.0000  |
|    2|   1   |   3   |   40.86016 |  99.0143  |   0.9857  |   0.0000  |
|    2|   1   |   4   |   41.31583 |  98.9076  |   1.0924  |   0.0000  |
+======================================================================+




 *******************************************************************************

 --------------------------
 Symmetry class Nr.:     2
 Multiplicity      :     3
 --------------------------

 Length of Excitation vectors in this class is:      2314
 No Excitation Energies calculated in this symmetry class
     

   *******************************************************************
   *                                                                 *
   *<<<<<<<<   OUTPUT FROM PROPERTY AND SYMMETRY ANALYSIS   >>>>>>>>>*
   *                                                                 *
   *******************************************************************



                         +-------------------------------+
                         ! REQUESTED PROPERTY OPERATORS: !
                         +-------------------------------+

             Index   Oper. Label  Symmetry  Transp.  PDBS  Atom
             --------------------------------------------------
                1     HAM0            1        1      T      0
                2     XDIPLEN         1        1      F      0
                3     ZDIPLEN         1        1      F      0
                4     YDIPLEN         2        1      F      0
             --------------------------------------------------




                         +-------------------------------+
                         ! REQUESTED EXPECTATION VALUES: !
                         +-------------------------------+

                       Index   Oper. Label  Symmetry
                       -----------------------------
                       -----------------------------




                       +------------------------------------+
                       ! REQUESTED EFFECTIVE FOCK MATRICES: !
                       +------------------------------------+

                       Index   Oper. Label  Symmetry
                       -----------------------------
                       -----------------------------




                        +----------------------------------+
                        ! REQUESTED FIRST ORDER M-VECTORS: !
                        +----------------------------------+

               Index   State Symmetry  Frequency
               --------------------------------------------------
                  1             1    2     3.966823D-01
                  2             2    2     1.090984D+00
                  3             3    2     1.501583D+00
                  4             4    2     1.518329D+00
               --------------------------------------------------


      

    *******************************************************************
    *          SOLVING COUPLED CLUSTER RESPONSE EQUATIONS             *
    *******************************************************************



 
 +======================================================================+
 !                     RHS & ETA VECTORS TO COMPUTE:                    !
 +======================================================================+
 | TYPE | # VEC. |  NEEDED FOR:                                         |
 +----------------------------------------------------------------------+
 +======================================================================+



 +======================================================================+
 !                       LINEAR EQUATIONS TO SOLVE:                     !
 +======================================================================+
 | TYPE | # VEC. |  EQUATION:                                           |
 +----------------------------------------------------------------------+
 |  M1  |    4   |  first-order ground - excited state multipliers      |
 +======================================================================+



 +======================================================================+
 !                F MATRIX TRANSFORMATIONS TO COMPUTE:                  !
 +======================================================================+
 | TYPE | # VEC. |  TRANSFORMED:                                        |
 +----------------------------------------------------------------------+
 |  FR  |    4   |  right eigenvectors (RE)                             |
 +======================================================================+



 RPA: call cceq_str
 RPA: exit cceq_str

 Solution of CC response equations completed.


 *******************************************************************
 *                                                                 *
 *<<<<<<<<  OUTPUT FROM COUPLED CLUSTER LINEAR RESPONSE   >>>>>>>>>*
 *                                                                 *
 *<<<<<<<<      CALCULATION OF SECOND ORDER RESIDUES      >>>>>>>>>*
 *                                                                 *
 *******************************************************************



                  +---------------------------------------------+
                  ! CC_SOPR: Calculation of CC2        Residues !
                  +---------------------------------------------+



 CC2   Right transition moments in atomic units:
 -----------------------------------------------

  1       0.396682  <YDIPLEN |f> =       0.31960290
  2       1.090984  <YDIPLEN |f> =      -0.38744481
  3       1.501583  <YDIPLEN |f> =      -0.00006105
  4       1.518329  <YDIPLEN |f> =      -0.00081547


 CC2   Left  transition moments in atomic units:
 -----------------------------------------------

  1       0.396682  <f|YDIPLEN > =       0.16301845
  2       1.090984  <f|YDIPLEN > =      -0.19607140
  3       1.501583  <f|YDIPLEN > =      -0.00003836
  4       1.518329  <f|YDIPLEN > =      -0.00041388


 CC2   linear response residue property in atomic units:
 -------------------------------------------------------

 RES{<<YDIPLEN ,YDIPLEN >>( 0.396682)} =     0.05210117 (   0.22825680)
 RES{<<YDIPLEN ,YDIPLEN >>( 1.090984)} =     0.07596684 (   0.27562083)
 RES{<<YDIPLEN ,YDIPLEN >>( 1.501583)} =     0.00000000 (   0.00004839)
 RES{<<YDIPLEN ,YDIPLEN >>( 1.518329)} =     0.00000034 (   0.00058096)


 CC2   Transition strength matrix for state nr.  1 of symmetry 2
 CC2   excitation energy: 0.39668232

 Gauge: length

               Column   1     Column   2     Column   3
       2       0.00000000     0.05210117     0.00000000
    ==== End of matrix output ====

 Principal values of diagonalized transition strength matrix:

             a.u.               
 1       0.00000000
 2       0.05210117
 3       0.00000000

 Principal axis of diagonalized transition strength matrix:


               Column   1     Column   2     Column   3
       1       1.00000000     0.00000000     0.00000000
       2       0.00000000     1.00000000     0.00000000
       3       0.00000000     0.00000000     1.00000000
    ==== End of matrix output ====


 CC2    oscillator strength matrix for state nr.  1 of symmetry 2
 CC2   excitation energy: 0.39668232


               Column   1     Column   2     Column   3
       2       0.00000000     0.01377841     0.00000000
    ==== End of matrix output ====

 Principal values of diagonalized oscillator strength matrix:

             a.u.               
 1       0.00000000
 2       0.01377841
 3       0.00000000

 Principal axis of diagonalized oscillator strength matrix:


               Column   1     Column   2     Column   3
       1       1.00000000     0.00000000     0.00000000
       2       0.00000000     1.00000000     0.00000000
       3       0.00000000     0.00000000     1.00000000
    ==== End of matrix output ====


 CC2   Transition strength matrix for state nr.  2 of symmetry 2
 CC2   excitation energy: 1.09098364

 Gauge: length

               Column   1     Column   2     Column   3
       2       0.00000000     0.07596684     0.00000000
    ==== End of matrix output ====

 Principal values of diagonalized transition strength matrix:

             a.u.               
 1       0.00000000
 2       0.07596684
 3       0.00000000

 Principal axis of diagonalized transition strength matrix:


               Column   1     Column   2     Column   3
       1       1.00000000     0.00000000     0.00000000
       2       0.00000000     1.00000000     0.00000000
       3       0.00000000     0.00000000     1.00000000
    ==== End of matrix output ====


 CC2    oscillator strength matrix for state nr.  2 of symmetry 2
 CC2   excitation energy: 1.09098364


               Column   1     Column   2     Column   3
       2       0.00000000     0.05525239     0.00000000
    ==== End of matrix output ====

 Principal values of diagonalized oscillator strength matrix:

             a.u.               
 1       0.00000000
 2       0.05525239
 3       0.00000000

 Principal axis of diagonalized oscillator strength matrix:


               Column   1     Column   2     Column   3
       1       1.00000000     0.00000000     0.00000000
       2       0.00000000     1.00000000     0.00000000
       3       0.00000000     0.00000000     1.00000000
    ==== End of matrix output ====


 CC2   Transition strength matrix for state nr.  3 of symmetry 2
 CC2   excitation energy: 1.50158321

 Gauge: length

               Column   1     Column   2     Column   3
       2     0.000000D+00   2.341850D-09   0.000000D+00
    ==== End of matrix output ====

 Principal values of diagonalized transition strength matrix:

             a.u.               
 1       0.00000000
 2       0.00000000
 3       0.00000000

 Principal axis of diagonalized transition strength matrix:


               Column   1     Column   2     Column   3
       1       1.00000000     0.00000000     0.00000000
       2       0.00000000     1.00000000     0.00000000
       3       0.00000000     0.00000000     1.00000000
    ==== End of matrix output ====


 CC2    oscillator strength matrix for state nr.  3 of symmetry 2
 CC2   excitation energy: 1.50158321


               Column   1     Column   2     Column   3
       2     0.000000D+00   2.344322D-09   0.000000D+00
    ==== End of matrix output ====

 Principal values of diagonalized oscillator strength matrix:

             a.u.               
 1       0.00000000
 2       0.00000000
 3       0.00000000

 Principal axis of diagonalized oscillator strength matrix:


               Column   1     Column   2     Column   3
       1       1.00000000     0.00000000     0.00000000
       2       0.00000000     1.00000000     0.00000000
       3       0.00000000     0.00000000     1.00000000
    ==== End of matrix output ====


 CC2   Transition strength matrix for state nr.  4 of symmetry 2
 CC2   excitation energy: 1.51832870

 Gauge: length

               Column   1     Column   2     Column   3
       2     0.000000D+00   3.375089D-07   0.000000D+00
    ==== End of matrix output ====

 Principal values of diagonalized transition strength matrix:

             a.u.               
 1       0.00000000
 2       0.00000034
 3       0.00000000

 Principal axis of diagonalized transition strength matrix:


               Column   1     Column   2     Column   3
       1       1.00000000     0.00000000     0.00000000
       2       0.00000000     1.00000000     0.00000000
       3       0.00000000     0.00000000     1.00000000
    ==== End of matrix output ====


 CC2    oscillator strength matrix for state nr.  4 of symmetry 2
 CC2   excitation energy: 1.51832870


               Column   1     Column   2     Column   3
       2     0.000000D+00   3.416329D-07   0.000000D+00
    ==== End of matrix output ====

 Principal values of diagonalized oscillator strength matrix:

             a.u.               
 1       0.00000000
 2       0.00000034
 3       0.00000000

 Principal axis of diagonalized oscillator strength matrix:


               Column   1     Column   2     Column   3
       1       1.00000000     0.00000000     0.00000000
       2       0.00000000     1.00000000     0.00000000
       3       0.00000000     0.00000000     1.00000000
    ==== End of matrix output ====

 >>> Total time for      4 linear response residues:       0.00 seconds.
  

 *******************************************************************************
 *******************************************************************************
 *                                                                             *
 *                                                                             *
 *                   SUMMARY OF COUPLED CLUSTER CALCULATION                    *
 *                                                                             *
 *                                                                             *
 *******************************************************************************
 *******************************************************************************

                                                                                
                                                                                
            Total SCF   energy:                  -100.0089198959                
            Total MP2   energy:                  -100.1936625719                
            Total CC2   energy:                  -100.1946878733                
                                                                                
                                                                                
 +=============================================================================+
 |  sym. | Exci.  |        CC2        Excitation energies            | ||T1||  |
 |(spin, |        +------------------------------------------------------------+
 | spat) |        |     Hartree    |       eV.      |     cm-1       |    %    |
 +=============================================================================+
 | ^1A"  |    1   |     0.3966823  |      10.79428  |     87061.705  |  96.73  |
 | ^1A"  |    2   |     1.0909836  |      29.68718  |    239443.231  |  96.14  |
 | ^1A"  |    3   |     1.5015832  |      40.86016  |    329559.419  |  99.21  |
 | ^1A"  |    4   |     1.5183287  |      41.31583  |    333234.628  |  99.13  |
 +=============================================================================+
                                                                                
                                                                                
     Total energies in Hartree:                                                 
             1 ^1A"       -99.7980055526                                        
             2 ^1A"       -99.1037042308                                        
             3 ^1A"       -98.6931046611                                        
             4 ^1A"       -98.6763591756                                        
                                                                                
                                                                                
 +=============================================================================+
 |  sym. | Exci.  |        CC2        Length   Gauge Oscillator Strength       |
 |(spin, |        +------------------------------------------------------------+
 | spat) |        | Dipole Strength(a.u.) | Oscillator strength  | Direction   |
 +=============================================================================+
 | ^1A"  |    1   |        0.0521012      |      0.0137784       |    Y        |
 | ^1A"  |    2   |        0.0759668      |      0.0552524       |    Y        |
 | ^1A"  |    3   |        0.0000000      |      0.0000000       |    -        |
 | ^1A"  |    4   |        0.0000003      |      0.0000003       |    Y        |
 +=============================================================================+

  1 a.u. =        27.21138 eV.  
  1 a.u. =    219474.62934 cm-1.
  

 *******************************************************************************
 *******************************************************************************
 *                                                                             *
 *                                                                             *
 *                      END OF COUPLED CLUSTER CALCULATION                     *
 *                                                                             *
 *                                                                             *
 *******************************************************************************
 *******************************************************************************


 >>>> CPU and wall time for CC :       0.631       0.834

 
     Date and time (Linux)  : Sun Sep  8 20:42:31 2013
     Host name              : lpqlx131.ups-tlse.fr                    


                      .-------------------------------------.
                      | End of Coupled Cluster Section (CC) |
                      `-------------------------------------'

 >>>> Total CPU  time used in DALTON:   0.66 seconds
 >>>> Total wall time used in DALTON:   0.86 seconds

 
     Date and time (Linux)  : Sun Sep  8 20:42:31 2013
     Host name              : lpqlx131.ups-tlse.fr                    
