

     ************************************************************************
     *************** Dalton - An Electronic Structure Program ***************
     ************************************************************************

    This is output from DALTON (Release Dalton2013 patch 0)
   ----------------------------------------------------------------------------
    NOTE:
     
    Dalton is an experimental code for the evaluation of molecular
    properties using (MC)SCF, DFT, CI, and CC wave functions.
    The authors accept no responsibility for the performance of
    the code or for the correctness of the results.
     
    The code (in whole or part) is provided under a licence and
    is not to be reproduced for further distribution without
    the written permission of the authors or their representatives.
     
    See the home page "http://daltonprogram.org" for further information.
     
    If results obtained with this code are published,
    the appropriate citations would be both of:
     
       K. Aidas, C. Angeli, K. L. Bak, V. Bakken, R. Bast,
       L. Boman, O. Christiansen, R. Cimiraglia, S. Coriani,
       P. Dahle, E. K. Dalskov, U. Ekstroem, T. Enevoldsen,
       J. J. Eriksen, P. Ettenhuber, B. Fernandez, L. Ferrighi,
       H. Fliegl, L. Frediani, K. Hald, A. Halkier, C. Haettig,
       H. Heiberg, T. Helgaker, A. C. Hennum, H. Hettema,
       E. Hjertenaes, S. Hoest, I.-M. Hoeyvik, M. F. Iozzi,
       B. Jansik, H. J. Aa. Jensen, D. Jonsson, P. Joergensen,
       J. Kauczor, S. Kirpekar, T. Kjaergaard, W. Klopper,
       S. Knecht, R. Kobayashi, H. Koch, J. Kongsted, A. Krapp,
       K. Kristensen, A. Ligabue, O. B. Lutnaes, J. I. Melo,
       K. V. Mikkelsen, R. H. Myhre, C. Neiss, C. B. Nielsen,
       P. Norman, J. Olsen, J. M. H. Olsen, A. Osted,
       M. J. Packer, F. Pawlowski, T. B. Pedersen, P. F. Provasi,
       S. Reine, Z. Rinkevicius, T. A. Ruden, K. Ruud, V. Rybkin,
       P. Salek, C. C. M. Samson, A. Sanchez de Meras, T. Saue,
       S. P. A. Sauer, B. Schimmelpfennig, K. Sneskov,
       A. H. Steindal, K. O. Sylvester-Hvid, P. R. Taylor,
       A. M. Teale, E. I. Tellgren, D. P. Tew, A. J. Thorvaldsen,
       L. Thoegersen, O. Vahtras, M. A. Watson, D. J. D. Wilson,
       M. Ziolkowski and H. Agren.
       The Dalton quantum chemistry program system.
       WIREs Comput. Mol. Sci. 2013. doi: 10.1002/wcms.1172
    
    and
    
       Dalton, a Molecular Electronic Structure Program,
       Release DALTON2013.0 (2013), see http://daltonprogram.org
   ----------------------------------------------------------------------------

    Authors in alphabetical order (major contribution(s) in parenthesis):

  Kestutis Aidas,           Vilnius University,           Lithuania   (QM/MM)
  Celestino Angeli,         University of Ferrara,        Italy       (NEVPT2)
  Keld L. Bak,              UNI-C,                        Denmark     (AOSOPPA, non-adiabatic coupling, magnetic properties)
  Vebjoern Bakken,          University of Oslo,           Norway      (DALTON; geometry optimizer, symmetry detection)
  Radovan Bast,             KTH Stockholm                 Sweden      (DALTON installation and execution frameworks)
  Linus Boman,              NTNU,                         Norway      (Cholesky decomposition and subsystems)
  Ove Christiansen,         Aarhus University,            Denmark     (CC module)
  Renzo Cimiraglia,         University of Ferrara,        Italy       (NEVPT2)
  Sonia Coriani,            University of Trieste,        Italy       (CC module, MCD in RESPONS)
  Paal Dahle,               University of Oslo,           Norway      (Parallelization)
  Erik K. Dalskov,          UNI-C,                        Denmark     (SOPPA)
  Thomas Enevoldsen,        Univ. of Southern Denmark,    Denmark     (SOPPA)
  Janus J. Eriksen,         Aarhus University,            Denmark     (PE-MP2/SOPPA, TDA)
  Berta Fernandez,          U. of Santiago de Compostela, Spain       (doublet spin, ESR in RESPONS)
  Lara Ferrighi,            Aarhus University,            Denmark     (PCM Cubic response)
  Heike Fliegl,             University of Oslo,           Norway      (CCSD(R12))
  Luca Frediani,            UiT The Arctic U. of Norway,  Norway      (PCM)
  Bin Gao,                  UiT The Arctic U. of Norway,  Norway      (Gen1Int library)
  Christof Haettig,         Ruhr-University Bochum,       Germany     (CC module)
  Kasper Hald,              Aarhus University,            Denmark     (CC module)
  Asger Halkier,            Aarhus University,            Denmark     (CC module)
  Hanne Heiberg,            University of Oslo,           Norway      (geometry analysis, selected one-electron integrals)
  Trygve Helgaker,          University of Oslo,           Norway      (DALTON; ABACUS, ERI, DFT modules, London, and much more)
  Alf Christian Hennum,     University of Oslo,           Norway      (Parity violation)
  Hinne Hettema,            University of Auckland,       New Zealand (quadratic response in RESPONS; SIRIUS supersymmetry)
  Eirik Hjertenaes,         NTNU,                         Norway      (Cholesky decomposition)
  Maria Francesca Iozzi,    University of Oslo,           Norway      (RPA)
  Brano Jansik              Technical Univ. of Ostrava    Czech Rep.  (DFT cubic response)
  Hans Joergen Aa. Jensen,  Univ. of Southern Denmark,    Denmark     (DALTON; SIRIUS, RESPONS, ABACUS modules, London, and much more)
  Dan Jonsson,              UiT The Arctic U. of Norway,  Norway      (cubic response in RESPONS module)
  Poul Joergensen,          Aarhus University,            Denmark     (RESPONS, ABACUS, and CC modules)
  Joanna Kauczor,           Linkoeping University,        Sweden      (Complex polarization propagator (CPP) module)
  Sheela Kirpekar,          Univ. of Southern Denmark,    Denmark     (Mass-velocity & Darwin integrals)
  Wim Klopper,              KIT Karlsruhe,                Germany     (R12 code in CC, SIRIUS, and ABACUS modules)
  Stefan Knecht,            ETH Zurich,                   Switzerland (Parallel CI and MCSCF)
  Rika Kobayashi,           Australian National Univ.,    Australia   (DIIS in CC, London in MCSCF)
  Henrik Koch,              NTNU,                         Norway      (CC module, Cholesky decomposition)
  Jacob Kongsted,           Univ. of Southern Denmark,    Denmark     (Polarizable embedding, QM/MM)
  Andrea Ligabue,           University of Modena,         Italy       (CTOCD, AOSOPPA)
  Ola B. Lutnaes,           University of Oslo,           Norway      (DFT Hessian)
  Juan I. Melo,             University of Buenos Aires,   Argentina   (LRESC, Relativistic Effects on NMR Shieldings)
  Kurt V. Mikkelsen,        University of Copenhagen,     Denmark     (MC-SCRF and QM/MM)
  Rolf H. Myhre,            NTNU,                         Norway      (Cholesky, subsystems and ECC2)
  Christian Neiss,          Univ. Erlangen-Nuernberg,     Germany     (CCSD(R12))
  Christian B. Nielsen,     University of Copenhagen,     Denmark     (QM/MM)
  Patrick Norman,           Linkoeping University,        Sweden      (Cubic response and complex response in RESPONS)
  Jeppe Olsen,              Aarhus University,            Denmark     (SIRIUS CI/density modules)
  Jogvan Magnus H. Olsen,   Univ. of Southern Denmark,    Denmark     (Polarizable embedding, PE library, QM/MM)
  Anders Osted,             Copenhagen University,        Denmark     (QM/MM)
  Martin J. Packer,         University of Sheffield,      UK          (SOPPA)
  Filip Pawlowski,          Kazimierz Wielki University   Poland      (CC3)
  Thomas B. Pedersen,       University of Oslo,           Norway      (Cholesky decomposition)
  Patricio F. Provasi,      University of Northeastern,   Argentina   (Analysis of coupling constants in localized orbitals)
  Zilvinas Rinkevicius,     KTH Stockholm,                Sweden      (open-shell DFT, ESR)
  Elias Rudberg,            KTH Stockholm,                Sweden      (DFT grid and basis info)
  Torgeir A. Ruden,         University of Oslo,           Norway      (Numerical derivatives in ABACUS)
  Kenneth Ruud,             UiT The Arctic U. of Norway,  Norway      (DALTON; ABACUS magnetic properties and  much more)
  Pawel Salek,              KTH Stockholm,                Sweden      (DALTON; DFT code)
  Claire C. M. Samson       University of Karlsruhe       Germany     (Boys localization, r12 integrals in ERI)
  Alfredo Sanchez de Meras, University of Valencia,       Spain       (CC module, Cholesky decomposition)
  Trond Saue,               Paul Sabatier University,     France      (direct Fock matrix construction)
  Stephan P. A. Sauer,      University of Copenhagen,     Denmark     (SOPPA(CCSD), SOPPA prop., AOSOPPA, vibrational g-factors)
  Bernd Schimmelpfennig,    Forschungszentrum Karlsruhe,  Germany     (AMFI module)
  Kristian Sneskov,         Aarhus University,            Denmark     (QM/MM, PE-CC)
  Arnfinn H. Steindal,      UiT The Arctic U. of Norway,  Norway      (parallel QM/MM)
  K. O. Sylvester-Hvid,     University of Copenhagen,     Denmark     (MC-SCRF)
  Peter R. Taylor,          VLSCI/Univ. of Melbourne,     Australia   (Symmetry handling ABACUS, integral transformation)
  Andrew M. Teale,          University of Nottingham,     England     (DFT-AC, DFT-D)
  David P. Tew,             University of Bristol,        England     (CCSD(R12))
  Olav Vahtras,             KTH Stockholm,                Sweden      (triplet response, spin-orbit, ESR, TDDFT, open-shell DFT)
  David J. Wilson,          La Trobe University,          Australia   (DFT Hessian and DFT magnetizabilities)
  Hans Agren,               KTH Stockholm,                Sweden      (SIRIUS module, RESPONS, MC-SCRF solvation model)
 --------------------------------------------------------------------------------

     Date and time (Linux)  : Sun Sep  8 20:42:26 2013
     Host name              : lpqlx131.ups-tlse.fr                    

 * Work memory size             :    64000000 =  488.28 megabytes.

 * Directories for basis set searches:
   1) /home/bast/DALTON-2013.0-Source/build/test_cc_rsp_twophot2
   2) /home/bast/DALTON-2013.0-Source/build/basis


Compilation information
-----------------------

 Who compiled             | bast
 Host                     | lpqlx131.ups-tlse.fr
 System                   | Linux-3.8.5-201.fc18.x86_64
 CMake generator          | Unix Makefiles
 Processor                | x86_64
 64-bit integers          | OFF
 MPI                      | OFF
 Fortran compiler         | /usr/bin/gfortran
 Fortran compiler version | GNU Fortran (GCC) 4.7.2 20121109 (Red Hat 4.7.2-8)
 C compiler               | /usr/bin/gcc
 C compiler version       | gcc (GCC) 4.7.2 20121109 (Red Hat 4.7.2-8)
 C++ compiler             | /usr/bin/g++
 C++ compiler version     | g++ (GCC) 4.7.2 20121109 (Red Hat 4.7.2-8)
 Static linking           | OFF
 Last Git revision        | f34203295a86316e27f9e7b44f9b6769c4a046c0
 Configuration time       | 2013-09-08 20:31:27.952056


   Content of the .dal input file
 ----------------------------------

**DALTON INPUT                                    
.RUN WAVE FUNCTIONS                               
**INTEGRAL                                        
.DIPLEN                                           
**WAVE FUNCTIONS                                  
.CC                                               
*SCF INPUT                                        
.THRESH                                           
 1.0d-12                                          
*CC INPUT                                         
.CCS                                              
.CC2                                              
.CCSD                                             
.NSYM                                             
 4                                                
.THRENR                                           
 1.0d-9                                           
.THRLEQ                                           
 1.0d-9                                           
*CCEXCI                                           
.NCCEXCI                                          
 0 0 0 1                                          
.THREXC                                           
 1.0d-8                                           
*CCTPA                                            
.SELSTA                                           
 4 1 0.0                                          
.OPERATOR                                         
YDIPLEN XDIPLEN                                   
XDIPLEN YDIPLEN                                   
**END OF DALTON INPUT                             


   Content of the .mol file
 ----------------------------

BASIS                                                                          
6-31G**                                                                        
Hydrogen flourid                                                               
small test basis                                                               
    2    2  Y  X      1.00D-15                                                 
        9.0   1                                                                
F     0.0000000000000000  0.0000000000000000 1.76320000000000000               
        1.0   1                                                                
H     0.0000000000000000  0.0000000000000000 0.00000000000000000               


       *******************************************************************
       *********** Output from DALTON general input processing ***********
       *******************************************************************

 --------------------------------------------------------------------------------
   Overall default print level:    0
   Print level for DALTON.STAT:    1

    HERMIT 1- and 2-electron integral sections will be executed
    "Old" integral transformation used (limited to max 255 basis functions)
    Wave function sections will be executed (SIRIUS module)
 --------------------------------------------------------------------------------


   ****************************************************************************
   *************** Output of molecule and basis set information ***************
   ****************************************************************************


    The two title cards from your ".mol" input:
    ------------------------------------------------------------------------
 1: Hydrogen flourid                                                        
 2: small test basis                                                        
    ------------------------------------------------------------------------

  Atomic type no.    1
  --------------------
  Nuclear charge:   9.00000
  Number of symmetry independent centers:    1
  Number of basis sets to read;    2
  Basis set file used for this atomic type with Z =   9 :
     "/home/bast/DALTON-2013.0-Source/build/basis/6-31G**"

  Info about the basis set file: your basis has no documentation.
  Basis set: 6-31G**                                                                         

  Atomic type no.    2
  --------------------
  Nuclear charge:   1.00000
  Number of symmetry independent centers:    1
  Number of basis sets to read;    2
  Basis set file used for this atomic type with Z =   1 :
     "/home/bast/DALTON-2013.0-Source/build/basis/6-31G**"

  Info about the basis set file: your basis has no documentation.
  Basis set: 6-31G**                                                                         


                         SYMGRP: Point group information
                         -------------------------------

Point group: C2v

   * The point group was generated by:

      Reflection in the xz-plane
      Reflection in the yz-plane

   * Group multiplication table

        |  E   C2z  Oxz  Oyz
   -----+--------------------
     E  |  E   C2z  Oxz  Oyz
    C2z | C2z   E   Oyz  Oxz
    Oxz | Oxz  Oyz   E   C2z
    Oyz | Oyz  Oxz  C2z   E 

   * Character table

        |  E   C2z  Oxz  Oyz
   -----+--------------------
    A1  |   1    1    1    1
    B2  |   1   -1   -1    1
    B1  |   1   -1    1   -1
    A2  |   1    1   -1   -1

   * Direct product table

        | A1   B2   B1   A2 
   -----+--------------------
    A1  | A1   B2   B1   A2 
    B2  | B2   A1   A2   B1 
    B1  | B1   A2   A1   B2 
    A2  | A2   B1   B2   A1 


                                 Isotopic Masses
                                 ---------------

                           F          18.998403
                           H           1.007825

                       Total mass:    20.006228 amu
                       Natural abundance:  99.985 %

 Center-of-mass coordinates (a.u.):    0.000000    0.000000    1.674378


  Atoms and basis sets
  --------------------

  Number of atom types :    2
  Total number of atoms:    2

  Basis set used is "6-31G**" from the basis set library.

  label    atoms   charge   prim   cont     basis
  ----------------------------------------------------------------------
  F           1    9.0000    27    14      [10s4p1d|3s2p1d]                                   
  H           1    1.0000     7     5      [4s1p|2s1p]                                        
  ----------------------------------------------------------------------
  total:      2   10.0000    34    19
  ----------------------------------------------------------------------
  Spherical harmonic basis used.

  Threshold for neglecting AO integrals:  1.00D-15


  Cartesian Coordinates (a.u.)
  ----------------------------

  Total number of coordinates:    6
  F       :     1  x   0.0000000000    2  y   0.0000000000    3  z   1.7632000000
  H       :     4  x   0.0000000000    5  y   0.0000000000    6  z   0.0000000000


  Symmetry Coordinates
  --------------------

  Number of coordinates in each symmetry:     2    2    2    0

  Symmetry  A1  ( 1)

    1   F     z    3
    2   H     z    6

  Symmetry  B2  ( 2)

    3   F     y    2
    4   H     y    5

  Symmetry  B1  ( 3)

    5   F     x    1
    6   H     x    4


   Interatomic separations (in Angstrom):
   --------------------------------------

            F           H     
            ------      ------
 F     :    0.000000
 H     :    0.933045    0.000000


  Max    interatomic separation is    0.9330 Angstrom (    1.7632 Bohr)
  between atoms    2 and    1, "H     " and "F     ".

  Min HX interatomic separation is    0.9330 Angstrom (    1.7632 Bohr)


  Bond distances (Angstrom):
  --------------------------

                  atom 1     atom 2       distance
                  ------     ------       --------
  bond distance:  H          F            0.933045




 Principal moments of inertia (u*A**2) and principal axes
 --------------------------------------------------------

   IA       0.000000          0.000000    0.000000    1.000000
   IB       0.833187          0.000000    1.000000    0.000000
   IC       0.833187          1.000000    0.000000    0.000000


 Rotational constants
 --------------------

 The molecule is linear.

               B =       606561.40 MHz     (   20.232710 cm-1)


@  Nuclear repulsion energy :    5.104355716878 Hartree


  Symmetry Orbitals
  -----------------

  Number of orbitals in each symmetry:          10    4    4    1


  Symmetry  A1 ( 1)

    1     F        1s         1
    2     F        1s         2
    3     F        1s         3
    4     F        2pz        6
    5     F        2pz        9
    6     F        3d0       12
    7     F        3d2+      14
    8     H        1s        15
    9     H        1s        16
   10     H        2pz       19


  Symmetry  B2 ( 2)

   11     F        2py        5
   12     F        2py        8
   13     F        3d1-      11
   14     H        2py       18


  Symmetry  B1 ( 3)

   15     F        2px        4
   16     F        2px        7
   17     F        3d1+      13
   18     H        2px       17


  Symmetry  A2 ( 4)

   19     F        3d2-      10

  Symmetries of electric field:  B1 (3)  B2 (2)  A1 (1)

  Symmetries of magnetic field:  B2 (2)  B1 (3)  A2 (4)


                     .---------------------------------------.
                     | Starting in Integral Section (HERMIT) |
                     `---------------------------------------'



    *************************************************************************
    ****************** Output from HERMIT input processing ******************
    *************************************************************************


 Default print level:        1

 * Nuclear model: Point charge

 Calculation of one- and two-electron Hamiltonian integrals.

 The following one-electron property integrals are calculated as requested:
          - overlap integrals
          - dipole length integrals

 Center of mass  (bohr):      0.000000000000      0.000000000000      1.674377807231
 Operator center (bohr):      0.000000000000      0.000000000000      0.000000000000
 Gauge origin    (bohr):      0.000000000000      0.000000000000      0.000000000000
 Dipole origin   (bohr):      0.000000000000      0.000000000000      0.000000000000


     ************************************************************************
     ************************** Output from HERINT **************************
     ************************************************************************


 Threshold for neglecting two-electron integrals:  1.00D-15
 Number of two-electron integrals written:        4125 ( 22.7% )
 Megabytes written:                              0.048

 >>>> Total CPU  time used in HERMIT:   0.01 seconds
 >>>> Total wall time used in HERMIT:   0.01 seconds


                        .----------------------------------.
                        | End of Integral Section (HERMIT) |
                        `----------------------------------'



                   .--------------------------------------------.
                   | Starting in Wave Function Section (SIRIUS) |
                   `--------------------------------------------'

 NCCEXCI for singlet:           0           0           0           1

 *** Output from Huckel module :

     Using EWMO model:          T
     Using EHT  model:          F
     Number of Huckel orbitals each symmetry:    4    1    1    0

 EWMO - Energy Weighted Maximum Overlap - is a Huckel type method,
        which normally is better than Extended Huckel Theory.
 Reference: Linderberg and Ohrn, Propagators in Quantum Chemistry (Wiley, 1973)

 Huckel EWMO eigenvalues for symmetry :  1
          -26.384238      -1.721955      -0.830116      -0.248892

 Huckel EWMO eigenvalues for symmetry :  2
           -0.730000

 Huckel EWMO eigenvalues for symmetry :  3
           -0.730000

 **********************************************************************
 *SIRIUS* a direct, restricted step, second order MCSCF program       *
 **********************************************************************

 
     Date and time (Linux)  : Sun Sep  8 20:42:26 2013
     Host name              : lpqlx131.ups-tlse.fr                    

 Title lines from ".mol" input file:
     Hydrogen flourid                                                        
     small test basis                                                        

 Print level on unit LUPRI =   2 is   0
 Print level on unit LUW4  =   2 is   5

@    (Integral direct) CC calculation.

@    This is a combination run starting with
@              a restricted, closed shell Hartree-Fock calculation


 Initial molecular orbitals are obtained according to
 ".MOSTART EWMO  " input option

     Wave function specification
     ============================

     For the specification of the Coupled Cluster: see later.

@    For the wave function of type :      >>> CC <<<
@    Number of closed shell electrons          10
@    Number of electrons in active shells       0
@    Total charge of the molecule               0

@    Spin multiplicity and 2 M_S                1         0
     Total number of symmetries                 4
@    Reference state symmetry                   1

     Orbital specifications
     ======================
     Abelian symmetry species          All |    1    2    3    4
                                       --- |  ---  ---  ---  ---
     Total number of orbitals           19 |   10    4    4    1
     Number of basis functions          19 |   10    4    4    1

      ** Automatic occupation of RHF orbitals **

      -- Initial occupation of symmetries is determined from extended Huckel guess.           
      -- Initial occupation of symmetries is :
@    Occupied SCF orbitals               5 |    3    1    1    0

     Maximum number of Fock   iterations      0
     Maximum number of DIIS   iterations     60
     Maximum number of QC-SCF iterations     60
     Threshold for SCF convergence     1.00D-12


 Changes of defaults for CC:
 ---------------------------

 -Excitation energies calculated
 -Two-photon absorption strengths will be calculated
  


 >>>>> DIIS optimization of Hartree-Fock <<<<<

 C1-DIIS algorithm; max error vectors =   10

 Automatic occupation of symmetries with  10 electrons.

 Iter     Total energy    Error norm  Delta(E)    SCF occupation
 -----------------------------------------------------------------------------
     (Precalculated two-electron integrals are transformed to P-supermatrix elements.
      Threshold for discarding integrals :  1.00D-15 )
@  1  -99.9159496472       1.29D+00  -9.99D+01     3   1   1   0
      Virial theorem: -V/T =      1.997399
@      MULPOP F      -0.44; H       0.44; 
 -----------------------------------------------------------------------------
@  2  -100.006061881       2.26D-01  -9.01D-02     3   1   1   0
      Virial theorem: -V/T =      2.002657
@      MULPOP F      -0.38; H       0.38; 
 -----------------------------------------------------------------------------
@  3  -100.008563846       8.51D-02  -2.50D-03     3   1   1   0
      Virial theorem: -V/T =      1.999075
@      MULPOP F      -0.41; H       0.41; 
 -----------------------------------------------------------------------------
@  4  -100.008886254       2.15D-02  -3.22D-04     3   1   1   0
      Virial theorem: -V/T =      2.000623
@      MULPOP F      -0.41; H       0.41; 
 -----------------------------------------------------------------------------
@  5  -100.008918307       3.56D-03  -3.21D-05     3   1   1   0
      Virial theorem: -V/T =      2.000296
@      MULPOP F      -0.42; H       0.42; 
 -----------------------------------------------------------------------------
@  6  -100.008919840       7.37D-04  -1.53D-06     3   1   1   0
      Virial theorem: -V/T =      2.000320
@      MULPOP F      -0.42; H       0.42; 
 -----------------------------------------------------------------------------
@  7  -100.008919896       5.25D-05  -5.51D-08     3   1   1   0
      Virial theorem: -V/T =      2.000327
@      MULPOP F      -0.42; H       0.42; 
 -----------------------------------------------------------------------------
@  8  -100.008919896       4.66D-06  -2.57D-10     3   1   1   0
      Virial theorem: -V/T =      2.000326
@      MULPOP F      -0.42; H       0.42; 
 -----------------------------------------------------------------------------
@  9  -100.008919896       4.39D-07  -1.05D-12     3   1   1   0
      Virial theorem: -V/T =      2.000327
@      MULPOP F      -0.42; H       0.42; 
 -----------------------------------------------------------------------------
@ 10  -100.008919896       2.49D-08  -9.95D-14     3   1   1   0
      Virial theorem: -V/T =      2.000327
@      MULPOP F      -0.42; H       0.42; 
 -----------------------------------------------------------------------------
@ 11  -100.008919896       2.56D-09  -1.42D-14     3   1   1   0
      Virial theorem: -V/T =      2.000327
@      MULPOP F      -0.42; H       0.42; 
 -----------------------------------------------------------------------------
@ 12  -100.008919896       6.66D-11   5.68D-14     3   1   1   0
      Virial theorem: -V/T =      2.000327
@      MULPOP F      -0.42; H       0.42; 
 -----------------------------------------------------------------------------
@ 13  -100.008919896       8.93D-12   1.42D-14     3   1   1   0
      Virial theorem: -V/T =      2.000327
@      MULPOP F      -0.42; H       0.42; 
 -----------------------------------------------------------------------------
@ 14  -100.008919896       3.46D-13  -2.84D-14     3   1   1   0

@ *** DIIS converged in  14 iterations !
@     Converged SCF energy, gradient:   -100.008919895850    3.46D-13
    - total time used in SIRFCK :              0.00 seconds


 *** SCF orbital energy analysis ***

 Only the five lowest virtual orbital energies printed in each symmetry.

 Number of electrons :   10
 Orbital occupations :    3    1    1    0

 Sym       Hartree-Fock orbital energies

  1    -26.27306629    -1.57292658    -0.73710501     0.21639320     1.01969778
         1.53899963     1.93101552     2.15801858

  2     -0.62549523     1.48848713     1.89379537     3.02038759

  3     -0.62549523     1.48848713     1.89379537     3.02038759

  4      2.15801858

    E(LUMO) :     0.21639320 au (symmetry 1)
  - E(HOMO) :    -0.62549523 au (symmetry 2)
  ------------------------------------------
    gap     :     0.84188843 au

 >>> Writing SIRIFC interface file <<<

 >>>> CPU and wall time for SCF :       0.007       0.006


                       .-----------------------------------.
                       | >>> Final results from SIRIUS <<< |
                       `-----------------------------------'


@    Spin multiplicity:           1
@    Spatial symmetry:            1
@    Total charge of molecule:    0

@    Final HF energy:            -100.008919895850                 
@    Nuclear repulsion:             5.104355716878
@    Electronic energy:          -105.113275612729

@    Final gradient norm:           0.000000000000

 
     Date and time (Linux)  : Sun Sep  8 20:42:26 2013
     Host name              : lpqlx131.ups-tlse.fr                    

 (Only coefficients >0.0100 are printed.)

 Molecular orbitals for symmetry species  1
 ------------------------------------------

    Orbital         1        2        3        4        5
   1 F   :1s    -0.9955  -0.2308   0.0555   0.0644   0.0183
   2 F   :1s    -0.0212   0.5025  -0.1234  -0.0741  -0.1606
   3 F   :1s     0.0052   0.5082  -0.2358  -0.7503   0.3606
   4 F   :2pz    0.0013  -0.0602  -0.5496   0.2591   0.3919
   5 F   :2pz   -0.0009  -0.0224  -0.3522   0.4759  -0.1052
   6 F   :3d0    0.0000   0.0013   0.0237  -0.0259   0.2926
   8 H   :1s    -0.0001   0.1311   0.2709   0.1124   0.9672
   9 H   :1s    -0.0013   0.0073   0.1255   1.3668  -0.9276
  10 H   :2pz    0.0006   0.0312   0.0288   0.0206  -0.2828

 Molecular orbitals for symmetry species  2
 ------------------------------------------

    Orbital         1        2        3
   1 F   :2py    0.6587  -0.9416   0.1036
   2 F   :2py    0.4859   1.0109  -0.2903
   3 F   :3d1-  -0.0223  -0.0635  -0.6960
   4 H   :2py    0.0198   0.0764   0.4878

 Molecular orbitals for symmetry species  3
 ------------------------------------------

    Orbital         1        2        3
   1 F   :2px    0.6587  -0.9416   0.1036
   2 F   :2px    0.4859   1.0109  -0.2903
   3 F   :3d1+  -0.0223  -0.0635  -0.6960
   4 H   :2px    0.0198   0.0764   0.4878

 Molecular orbitals for symmetry species  4
 ------------------------------------------

    Orbital         1
   1 F   :3d2-   1.0000



 >>>> Total CPU  time used in SIRIUS :      0.01 seconds
 >>>> Total wall time used in SIRIUS :      0.01 seconds

 
     Date and time (Linux)  : Sun Sep  8 20:42:26 2013
     Host name              : lpqlx131.ups-tlse.fr                    


                     .---------------------------------------.
                     | End of Wave Function Section (SIRIUS) |
                     `---------------------------------------'



                    .------------------------------------------.
                    | Starting in Coupled Cluster Section (CC) |
                    `------------------------------------------'

  

 *******************************************************************************
 *******************************************************************************
 *                                                                             *
 *                                                                             *
 *                    START OF COUPLED CLUSTER CALCULATION                     *
 *                                                                             *
 *                                                                             *
 *******************************************************************************
 *******************************************************************************



 CCR12 ANSATZ =   0

 CCR12 APPROX =   0

   

 *******************************************************************
 *                                                                 *
 *<<<<<<<<<<                                             >>>>>>>>>>*
 *<<<<<<<<<< OUTPUT FROM COUPLED CLUSTER ENERGY PROGRAM  >>>>>>>>>>*
 *<<<<<<<<<<                                             >>>>>>>>>>*
 *                                                                 *
 *******************************************************************


             The Direct Coupled Cluster Energy Program
             -----------------------------------------


          Number of t1 amplitudes                 :        27
          Number of t2 amplitudes                 :       729
          Total number of amplitudes in ccsd      :       756



          CCS CALC. - NO WAVEFUNCTION OPTIMIZATION
   

 *******************************************************************
 *                                                                 *
 *<<<<<<<<<<<<< OUTPUT FROM COUPLED CLUSTER RESPONSE  >>>>>>>>>>>>>*
 *                                                                 *
 *******************************************************************



                         +-------------------------------+
                         ! Coupled Cluster model is: CCS !
                         +-------------------------------+

  
   

 *******************************************************************
 *                                                                 *
 *<<<<<<<<<< OUTPUT FROM COUPLED CLUSTER LINEAR RESPONSE >>>>>>>>>>*
 *                                                                 *
 *<<<<<<<<<<     CALCULATION OF EXCITATION ENERGIES      >>>>>>>>>>*
 *                                                                 *
 *******************************************************************



                            +--------------------------+
                            !  CCS Excitation Energies !
                            +--------------------------+


 --------------------------
 Symmetry class Nr.:     1
 Multiplicity      :     1
 --------------------------

 Length of Excitation vectors in this class is:        27
 No Excitation Energies calculated in this symmetry class

 --------------------------
 Symmetry class Nr.:     1
 Multiplicity      :     3
 --------------------------

 Length of Excitation vectors in this class is:        27
 No Excitation Energies calculated in this symmetry class


 *******************************************************************************

 --------------------------
 Symmetry class Nr.:     2
 Multiplicity      :     1
 --------------------------

 Length of Excitation vectors in this class is:        17
 No Excitation Energies calculated in this symmetry class


 *******************************************************************************

 --------------------------
 Symmetry class Nr.:     2
 Multiplicity      :     3
 --------------------------

 Length of Excitation vectors in this class is:        17
 No Excitation Energies calculated in this symmetry class


 *******************************************************************************

 --------------------------
 Symmetry class Nr.:     3
 Multiplicity      :     1
 --------------------------

 Length of Excitation vectors in this class is:        17
 No Excitation Energies calculated in this symmetry class


 *******************************************************************************

 --------------------------
 Symmetry class Nr.:     3
 Multiplicity      :     3
 --------------------------

 Length of Excitation vectors in this class is:        17
 No Excitation Energies calculated in this symmetry class


 *******************************************************************************

 --------------------------
 Symmetry class Nr.:     4
 Multiplicity      :     1
 --------------------------

 Length of Excitation vectors in this class is:         9
 Converging for  1 roots.
 Start vector guessed from diagonal
 ... selected element no.  4


 SYMMETRY CLASS NR.    4
 MULTIPLICITY          1


 CCS        right excitation energies:
 ====================================
 (conversion factor used: 1 au = 27.2113957 eV)

 Excitation no.       Hartree               eV 
 --------------       -------               --
         1            1.4551440731       39.5964844540


 Total excited state energies for states of symmetry/spin    4    1
 Excitation no.       Energy (Hartree) 
 ------------------------------------- 
@@    4    1           -98.553775822748662


 Analysis of the Coupled Cluster Excitation Vector Number :  1
 -------------------------------------------------------------

          Excitation Energy :                            39.5965 eV

          Norm of Total Amplitude Vector :               1.0000


 +=============================================================================+
 | symmetry|  orbital index  |   Excitation Numbers             |   Amplitude  |
 |  Index  |   a   b   i   j |      NAI      NBJ |     NAIBJ    |              |
 +=============================================================================+
 | 2   3   |   1       1     |        7          |              |   -0.707079  |
 | 3   2   |   1       1     |        4          |              |    0.707079  |
 +=============================================================================+


          Norm of Printed Amplitude Vector :             1.0000

          Printed all single excitations greater than 0.200000


 *******************************************************************************

 --------------------------
 Symmetry class Nr.:     4
 Multiplicity      :     3
 --------------------------

 Length of Excitation vectors in this class is:         9
 No Excitation Energies calculated in this symmetry class
   

 *******************************************************************
 *                                                                 *
 *<<<<<<<<<< OUTPUT FROM COUPLED CLUSTER LINEAR RESPONSE >>>>>>>>>>*
 *                                                                 *
 *<<<<<<<<<<     CALCULATION OF EXCITATION ENERGIES      >>>>>>>>>>*
 *                                                                 *
 *******************************************************************



                            +--------------------------+
                            !  CCS Excitation Energies !
                            +--------------------------+


 --------------------------
 Symmetry class Nr.:     1
 Multiplicity      :     1
 --------------------------

 Length of Excitation vectors in this class is:        27
 No Excitation Energies calculated in this symmetry class

 --------------------------
 Symmetry class Nr.:     1
 Multiplicity      :     3
 --------------------------

 Length of Excitation vectors in this class is:        27
 No Excitation Energies calculated in this symmetry class


 *******************************************************************************

 --------------------------
 Symmetry class Nr.:     2
 Multiplicity      :     1
 --------------------------

 Length of Excitation vectors in this class is:        17
 No Excitation Energies calculated in this symmetry class


 *******************************************************************************

 --------------------------
 Symmetry class Nr.:     2
 Multiplicity      :     3
 --------------------------

 Length of Excitation vectors in this class is:        17
 No Excitation Energies calculated in this symmetry class


 *******************************************************************************

 --------------------------
 Symmetry class Nr.:     3
 Multiplicity      :     1
 --------------------------

 Length of Excitation vectors in this class is:        17
 No Excitation Energies calculated in this symmetry class


 *******************************************************************************

 --------------------------
 Symmetry class Nr.:     3
 Multiplicity      :     3
 --------------------------

 Length of Excitation vectors in this class is:        17
 No Excitation Energies calculated in this symmetry class


 *******************************************************************************

 --------------------------
 Symmetry class Nr.:     4
 Multiplicity      :     1
 --------------------------

 Length of Excitation vectors in this class is:         9
 Converging for  1 roots.
Try to use right eigenvector as start for a left eigenvector.
 Vector nr.  1 of symmetry  4 found on file - RESTART SUCCESS
 Start vector is a  CCS       RE vector


 SYMMETRY CLASS NR.    4
 MULTIPLICITY          1


 CCS        left excitation energies:
 ====================================
 (conversion factor used: 1 au = 27.2113957 eV)

 Excitation no.       Hartree               eV 
 --------------       -------               --
         1            1.4551440731       39.5964844540


 Total excited state energies for states of symmetry/spin    4    1
 Excitation no.       Energy (Hartree) 
 ------------------------------------- 
@@    4    1           -98.553775822748662


 Analysis of the Coupled Cluster Excitation Vector Number :  1
 -------------------------------------------------------------

          Excitation Energy :                            39.5965 eV

          Norm of Total Amplitude Vector :               1.0000


 +=============================================================================+
 | symmetry|  orbital index  |   Excitation Numbers             |   Amplitude  |
 |  Index  |   a   b   i   j |      NAI      NBJ |     NAIBJ    |              |
 +=============================================================================+
 | 2   3   |   1       1     |        7          |              |   -0.707079  |
 | 3   2   |   1       1     |        4          |              |    0.707079  |
 +=============================================================================+


          Norm of Printed Amplitude Vector :             1.0000

          Printed all single excitations greater than 0.200000



+======================================================================+
| contributions of excitation levels to right eigenvectors as computed |
| from the (RE|RE) self overlap                                        |
+----------------------------------------------------------------------+
| sym | multi | state |    E / eV  | % singles | % doubles | % triples |
+======================================================================+
|    4|   1   |   1   |   39.59648 | 100.0000  |   0.0000  |   0.0000  |
+======================================================================+





+======================================================================+
| contributions of excitation levels to excited states as computed     |
| from the (LE|RE) overlap                                             |
+----------------------------------------------------------------------+
| sym | multi | state |    E / eV  | % singles | % doubles | % triples |
+======================================================================+
|    4|   1   |   1   |   39.59648 | 100.0000  |   0.0000  |   0.0000  |
+======================================================================+




 *******************************************************************************

 --------------------------
 Symmetry class Nr.:     4
 Multiplicity      :     3
 --------------------------

 Length of Excitation vectors in this class is:         9
 No Excitation Energies calculated in this symmetry class
     

   *******************************************************************
   *                                                                 *
   *<<<<<<<<   OUTPUT FROM PROPERTY AND SYMMETRY ANALYSIS   >>>>>>>>>*
   *                                                                 *
   *******************************************************************



                         +-------------------------------+
                         ! REQUESTED PROPERTY OPERATORS: !
                         +-------------------------------+

             Index   Oper. Label  Symmetry  Transp.  PDBS  Atom
             --------------------------------------------------
                1     HAM0            1        1      T      0
                2     YDIPLEN         2        1      F      0
                3     XDIPLEN         3        1      F      0
             --------------------------------------------------




                         +-------------------------------+
                         ! REQUESTED EXPECTATION VALUES: !
                         +-------------------------------+

                       Index   Oper. Label  Symmetry
                       -----------------------------
                       -----------------------------




                       +------------------------------------+
                       ! REQUESTED EFFECTIVE FOCK MATRICES: !
                       +------------------------------------+

                       Index   Oper. Label  Symmetry
                       -----------------------------
                       -----------------------------




                       +-----------------------------------+
                       ! REQUESTED FIRST ORDER XI VECTORS: !
                       +-----------------------------------+

             Index   Oper. Label  relaxed  Sym.     Frequency
             --------------------------------------------------
                1      YDIPLEN        F     2      0.000000D+00
                2      XDIPLEN        F     3      0.000000D+00
             --------------------------------------------------




                        +----------------------------------+
                        ! REQUESTED FIRST ORDER T VECTORS: !
                        +----------------------------------+

             Index   Oper. Label  relaxed  Sym.     Frequency
             --------------------------------------------------
                1      YDIPLEN        F     2     -1.455144D+00
                2      YDIPLEN        F     2     -0.000000D+00
                3      YDIPLEN        F     2      1.455144D+00
                4      XDIPLEN        F     3     -1.455144D+00
                5      XDIPLEN        F     3     -0.000000D+00
                6      XDIPLEN        F     3      1.455144D+00
             --------------------------------------------------




                       +------------------------------------+
                       ! REQUESTED FIRST ORDER ETA VECTORS: !
                       +------------------------------------+

             Index   Oper. Label  relaxed  Sym.     Frequency
             --------------------------------------------------
                1      YDIPLEN        F     2      0.000000D+00
                2      XDIPLEN        F     3      0.000000D+00
             --------------------------------------------------




                      +-------------------------------------+
                      ! REQUESTED FIRST ORDER ZETA VECTORS: !
                      +-------------------------------------+

             Index   Oper. Label  relaxed  Sym.     Frequency
             --------------------------------------------------
                1      YDIPLEN        F     2     -1.455144D+00
                2      YDIPLEN        F     2     -0.000000D+00
                3      XDIPLEN        F     3     -1.455144D+00
                4      XDIPLEN        F     3     -0.000000D+00
             --------------------------------------------------




                        +----------------------------------+
                        ! REQUESTED FIRST ORDER M-VECTORS: !
                        +----------------------------------+

               Index   State Symmetry  Frequency
               --------------------------------------------------
                  1             1    4     1.455144D+00
               --------------------------------------------------


      

    *******************************************************************
    *          SOLVING COUPLED CLUSTER RESPONSE EQUATIONS             *
    *******************************************************************



 
 +======================================================================+
 !                     RHS & ETA VECTORS TO COMPUTE:                    !
 +======================================================================+
 | TYPE | # VEC. |  NEEDED FOR:                                         |
 +----------------------------------------------------------------------+
 |  O1  |    2   |  first-order amplitude equations                     |
 |  X1  |    2   |  first-order multipliers equations                   |
 +======================================================================+



 +======================================================================+
 !                       LINEAR EQUATIONS TO SOLVE:                     !
 +======================================================================+
 | TYPE | # VEC. |  EQUATION:                                           |
 +----------------------------------------------------------------------+
 |  R1  |    6   |  first-order amplitude response                      |
 |  L1  |    4   |  first-order multiplier response                     |
 |  M1  |    1   |  first-order ground - excited state multipliers      |
 +======================================================================+



 +======================================================================+
 !                F MATRIX TRANSFORMATIONS TO COMPUTE:                  !
 +======================================================================+
 | TYPE | # VEC. |  TRANSFORMED:                                        |
 +----------------------------------------------------------------------+
 |  F1  |    6   |  first-order amplitude response (R1) vector          |
 |  FR  |    1   |  right eigenvectors (RE)                             |
 +======================================================================+




 -------------------------------------------------------------------
 |          OUTPUT FROM AMPLITUDE RHS VECTOR SECTION               |
 -------------------------------------------------------------------



   For the requested  2 1th.-order amplitude rhs vectors "O1 ".
         -   0 D matrix transformations 
         -   0 C matrix transformations 
         -   0 B matrix transformations 
         -   0 C{O} matrix transformations 
         -   0 B{O} matrix transformations 
         -   0 A{O} matrix transformations 
         -   2Xi{O} vector calculations    
   will be performed.


 RPA: call cceq_str
 RPA: exit cceq_str
 RPA: call cceq_str
 RPA: exit cceq_str
 RPA: call cceq_str
 RPA: exit cceq_str
 RPA: call cceq_str
 RPA: exit cceq_str
 RPA: call cceq_str
 RPA: exit cceq_str

 Solution of CC response equations completed.


 ******************************************************************
 *                                                                *
 *<<<<<<    OUTPUT FROM COUPLED CLUSTER LINEAR RESPONSE    >>>>>>>*
 *                                                                *
 *<<<<<<  CALCULATION OF TWO-PHOTON AABSORPTION STRENGHTS  >>>>>>>*
 *                                                                *
 ******************************************************************



   For the requested  2 two-photon transition moments
         -   2 generalized F matrix transf. M1 x B x R1
         -   2 generalized Eta vector calc. M1 x A{O}
         -   2 generalized F matrix transf. LE x B x R1
         -   2 generalized Eta vector calc. LE x A{O}
         -   2 G matrix transformations     G  x R1 x R1
         -   2 F{O} matrix transformations  F{O} x RE
         -   4 generalized F matrix transf. L1 x B x RE
         -   4 generalized Eta vector calc. L1 x A{O}
         -   0 M1 x O2 dot products
         -   0 LE x O2 dot products
         -   0 RE x X2 dot products
   will be performed.


 +--------------------------------------------------+
 | total time for   2 G transforms.:      0.00 secs.|
 +==================================================+



>>> Time used for    2 G matrix transformations:           0.00 seconds.

>>> Time used for    2 F{O} matrix transformations:        0.00 seconds.

>>> Time used for    8 F matrix transformations:        0.00 seconds.

>>> Time used for    8 Eta{O} vector calculation:        0.00 seconds.

>>> Total time for   4 quadratic response func.:        0.01 seconds.


           +------------------------------------------------------------+
           !      FINAL CCS RESULTS FOR TWO-PHOTON ABSORPTION STRENGTHS !
           +------------------------------------------------------------+



   transition         :   X ^1A1   <--    1^1A2 
   excitation energy  :   1.4551440731 a.u.    39.596 e.V.    319367. cm^-1
   photon energy for A:   0.0000000000 a.u.     0.000 e.V.         0. cm^-1
   photon energy for B:   1.4551440731 a.u.    39.596 e.V.    319367. cm^-1

   +-------------------+----------------+----------------+----------------+
   |    A        B     | M_0f( -0.0000) | M_f0(  0.0000) | S^0f(  0.0000) |
   +-------------------+----------------+----------------+----------------+
   | YDIPLEN  XDIPLEN  |     0.36465377 |     0.14365987 |     0.05238611 |
   | XDIPLEN  YDIPLEN  |    -0.36465377 |    -0.14365987 |     0.05238611 |
   +-------------------+----------------+----------------+----------------+
 
       Rotationally averaged two-photon transition strengths
                       and rate constants
 
       +-------------------+----------------+----------------+
       |   Polarization    |    DELTA_TP    |   K (0 -> f)   |
       +-------------------+----------------+----------------+
       |  linear (para)    |   0.00000000   |  0.000000E+00  |
       +-------------------+----------------+----------------+
       |  linear (perp)    |   0.00000000   |  0.000000E+00  |
       +-------------------+----------------+----------------+
       |    circular       |   0.00000000   |  0.000000E+00  |
       +-------------------+----------------+----------------+


 CCR12 ANSATZ =   0

 CCR12 APPROX =   0

   

 *******************************************************************
 *                                                                 *
 *<<<<<<<<<<                                             >>>>>>>>>>*
 *<<<<<<<<<< OUTPUT FROM COUPLED CLUSTER ENERGY PROGRAM  >>>>>>>>>>*
 *<<<<<<<<<<                                             >>>>>>>>>>*
 *                                                                 *
 *******************************************************************


             The Direct Coupled Cluster Energy Program
             -----------------------------------------


          Number of t1 amplitudes                 :        27
          Number of t2 amplitudes                 :       729
          Total number of amplitudes in ccsd      :       756

 Iter.  1: Coupled cluster MP2   energy :    -100.1936625719336860
 Iter.  1: Coupled cluster CC2   energy :    -100.1935148231938513
 Iter.  2: Coupled cluster CC2   energy :    -100.1946025749516451
 Iter.  3: Coupled cluster CC2   energy :    -100.1947009890525067
 Iter.  4: Coupled cluster CC2   energy :    -100.1946891284123069
 Iter.  5: Coupled cluster CC2   energy :    -100.1946869351769749
 Iter.  6: Coupled cluster CC2   energy :    -100.1946868715974261
 Iter.  7: Coupled cluster CC2   energy :    -100.1946868924434852
 Iter.  8: Coupled cluster CC2   energy :    -100.1946868962236579
 Iter.  9: Coupled cluster CC2   energy :    -100.1946868964918025

 CC2   energy converged to within   0.10D-08 is         -100.194686896492
 Final 2-norm of the CC vector function:  4.62876675D-08





             +-------------------------------------------------------+
             ! Final results from the Coupled Cluster energy program !
             +-------------------------------------------------------+



            Total SCF   energy:                  -100.0089198959

            Total MP2   energy:                  -100.1936625719

            Total CC2   energy:                  -100.1946868965




                   +--------------------------------------------+
                   ! Calculating singlet intermediates for CCLR !
                   +--------------------------------------------+



            E-intermediates calculated 
            Fock-intermediate calculated 


   

 *******************************************************************
 *                                                                 *
 *<<<<<<<<<<<<< OUTPUT FROM COUPLED CLUSTER RESPONSE  >>>>>>>>>>>>>*
 *                                                                 *
 *******************************************************************



                         +-------------------------------+
                         ! Coupled Cluster model is: CC2 !
                         +-------------------------------+

 RPA: call cceq_str
 RPA: exit cceq_str
  
   

 *******************************************************************
 *                                                                 *
 *<<<<<<<<<< OUTPUT FROM COUPLED CLUSTER LINEAR RESPONSE >>>>>>>>>>*
 *                                                                 *
 *<<<<<<<<<<     CALCULATION OF EXCITATION ENERGIES      >>>>>>>>>>*
 *                                                                 *
 *******************************************************************



                            +--------------------------+
                            !  CC2 Excitation Energies !
                            +--------------------------+


 --------------------------
 Symmetry class Nr.:     1
 Multiplicity      :     1
 --------------------------

 Length of Excitation vectors in this class is:       756
 No Excitation Energies calculated in this symmetry class

 --------------------------
 Symmetry class Nr.:     1
 Multiplicity      :     3
 --------------------------

 Length of Excitation vectors in this class is:      1485
 No Excitation Energies calculated in this symmetry class


 *******************************************************************************

 --------------------------
 Symmetry class Nr.:     2
 Multiplicity      :     1
 --------------------------

 Length of Excitation vectors in this class is:       629
 No Excitation Energies calculated in this symmetry class


 *******************************************************************************

 --------------------------
 Symmetry class Nr.:     2
 Multiplicity      :     3
 --------------------------

 Length of Excitation vectors in this class is:      1241
 No Excitation Energies calculated in this symmetry class


 *******************************************************************************

 --------------------------
 Symmetry class Nr.:     3
 Multiplicity      :     1
 --------------------------

 Length of Excitation vectors in this class is:       629
 No Excitation Energies calculated in this symmetry class


 *******************************************************************************

 --------------------------
 Symmetry class Nr.:     3
 Multiplicity      :     3
 --------------------------

 Length of Excitation vectors in this class is:      1241
 No Excitation Energies calculated in this symmetry class


 *******************************************************************************

 --------------------------
 Symmetry class Nr.:     4
 Multiplicity      :     1
 --------------------------

 Length of Excitation vectors in this class is:       541
 Converging for  1 roots.
 Start vector guessed from diagonal
 ... selected element no.189


 SYMMETRY CLASS NR.    4
 MULTIPLICITY          1


 CC2        right excitation energies:
 ====================================
 (conversion factor used: 1 au = 27.2113957 eV)

 Excitation no.       Hartree               eV 
 --------------       -------               --
         1            1.5183292174       41.3158396926


 Total excited state energies for states of symmetry/spin    4    1
 Excitation no.       Energy (Hartree) 
 ------------------------------------- 
@@    4    1           -98.676357679066797


 Analysis of the Coupled Cluster Excitation Vector Number :  1
 -------------------------------------------------------------

          Excitation Energy :                            41.3158 eV


          CC_PRAM:Overall Contribution of the Different Components
          --------------------------------------------------------



          Single Excitation Contribution :              99.1347 %

          Double Excitation Contribution :               0.8653 %

          ||T1||/||T2||                  :              10.7034

          Norm of Total Amplitude Vector :               1.0000


 +=============================================================================+
 | symmetry|  orbital index  |   Excitation Numbers             |   Amplitude  |
 |  Index  |   a   b   i   j |      NAI      NBJ |     NAIBJ    |              |
 +=============================================================================+
 | 2   3   |   1       1     |        7          |              |   -0.703882  |
 | 3   2   |   1       1     |        4          |              |   -0.703882  |
 +-----------------------------------------------------------------------------+
 | 1 2 3 1 |   4   1   1   2 |       14        4 |           65 |    0.019347  |
 | 3 1 1 2 |   1   6   2   1 |        4       15 |          242 |   -0.019347  |
 | 4 1 2 2 |   1   2   1   1 |       10       11 |          180 |   -0.022880  |
 | 3 1 2 1 |   1   5   1   2 |        4       12 |          392 |    0.020549  |
 | 2 1 3 1 |   1   7   1   3 |        7       21 |          476 |    0.020549  |
 +=============================================================================+


          Norm of Printed Amplitude Vector :             0.9965

          Printed all single excitations greater than 0.199133

          Printed all double excitations greater than 0.018605


 *******************************************************************************

 --------------------------
 Symmetry class Nr.:     4
 Multiplicity      :     3
 --------------------------

 Length of Excitation vectors in this class is:      1073
 No Excitation Energies calculated in this symmetry class
   

 *******************************************************************
 *                                                                 *
 *<<<<<<<<<< OUTPUT FROM COUPLED CLUSTER LINEAR RESPONSE >>>>>>>>>>*
 *                                                                 *
 *<<<<<<<<<<     CALCULATION OF EXCITATION ENERGIES      >>>>>>>>>>*
 *                                                                 *
 *******************************************************************



                            +--------------------------+
                            !  CC2 Excitation Energies !
                            +--------------------------+


 --------------------------
 Symmetry class Nr.:     1
 Multiplicity      :     1
 --------------------------

 Length of Excitation vectors in this class is:       756
 No Excitation Energies calculated in this symmetry class

 --------------------------
 Symmetry class Nr.:     1
 Multiplicity      :     3
 --------------------------

 Length of Excitation vectors in this class is:      1485
 No Excitation Energies calculated in this symmetry class


 *******************************************************************************

 --------------------------
 Symmetry class Nr.:     2
 Multiplicity      :     1
 --------------------------

 Length of Excitation vectors in this class is:       629
 No Excitation Energies calculated in this symmetry class


 *******************************************************************************

 --------------------------
 Symmetry class Nr.:     2
 Multiplicity      :     3
 --------------------------

 Length of Excitation vectors in this class is:      1241
 No Excitation Energies calculated in this symmetry class


 *******************************************************************************

 --------------------------
 Symmetry class Nr.:     3
 Multiplicity      :     1
 --------------------------

 Length of Excitation vectors in this class is:       629
 No Excitation Energies calculated in this symmetry class


 *******************************************************************************

 --------------------------
 Symmetry class Nr.:     3
 Multiplicity      :     3
 --------------------------

 Length of Excitation vectors in this class is:      1241
 No Excitation Energies calculated in this symmetry class


 *******************************************************************************

 --------------------------
 Symmetry class Nr.:     4
 Multiplicity      :     1
 --------------------------

 Length of Excitation vectors in this class is:       541
 Converging for  1 roots.
Try to use right eigenvector as start for a left eigenvector.
 Vector nr.  1 of symmetry  4 found on file - RESTART SUCCESS
 Start vector is a  CC2       RE vector


 SYMMETRY CLASS NR.    4
 MULTIPLICITY          1


 CC2        left excitation energies:
 ====================================
 (conversion factor used: 1 au = 27.2113957 eV)

 Excitation no.       Hartree               eV 
 --------------       -------               --
         1            1.5183292174       41.3158396924


 Total excited state energies for states of symmetry/spin    4    1
 Excitation no.       Energy (Hartree) 
 ------------------------------------- 
@@    4    1           -98.676357679073192


 Analysis of the Coupled Cluster Excitation Vector Number :  1
 -------------------------------------------------------------

          Excitation Energy :                            41.3158 eV


          CC_PRAM:Overall Contribution of the Different Components
          --------------------------------------------------------



          Single Excitation Contribution :              98.2370 %

          Double Excitation Contribution :               1.7630 %

          ||T1||/||T2||                  :               7.4648

          Norm of Total Amplitude Vector :               1.0000


 +=============================================================================+
 | symmetry|  orbital index  |   Excitation Numbers             |   Amplitude  |
 |  Index  |   a   b   i   j |      NAI      NBJ |     NAIBJ    |              |
 +=============================================================================+
 | 2   3   |   1       1     |        7          |              |   -0.700695  |
 | 3   2   |   1       1     |        4          |              |   -0.700695  |
 +-----------------------------------------------------------------------------+
 | 1 2 3 1 |   4   1   1   2 |       14        4 |           65 |    0.026849  |
 | 3 1 1 2 |   1   6   2   1 |        4       15 |          242 |   -0.026849  |
 +=============================================================================+


          Norm of Printed Amplitude Vector :             0.9917

          Printed all single excitations greater than 0.198229

          Printed all double excitations greater than 0.026555



+======================================================================+
| contributions of excitation levels to right eigenvectors as computed |
| from the (RE|RE) self overlap                                        |
+----------------------------------------------------------------------+
| sym | multi | state |    E / eV  | % singles | % doubles | % triples |
+======================================================================+
|    4|   1   |   1   |   41.31584 |  99.1347  |   0.8653  |   0.0000  |
+======================================================================+





+======================================================================+
| contributions of excitation levels to excited states as computed     |
| from the (LE|RE) overlap                                             |
+----------------------------------------------------------------------+
| sym | multi | state |    E / eV  | % singles | % doubles | % triples |
+======================================================================+
|    4|   1   |   1   |   41.31584 |  98.9076  |   1.0924  |   0.0000  |
+======================================================================+




 *******************************************************************************

 --------------------------
 Symmetry class Nr.:     4
 Multiplicity      :     3
 --------------------------

 Length of Excitation vectors in this class is:      1073
 No Excitation Energies calculated in this symmetry class
     

   *******************************************************************
   *                                                                 *
   *<<<<<<<<   OUTPUT FROM PROPERTY AND SYMMETRY ANALYSIS   >>>>>>>>>*
   *                                                                 *
   *******************************************************************



                         +-------------------------------+
                         ! REQUESTED PROPERTY OPERATORS: !
                         +-------------------------------+

             Index   Oper. Label  Symmetry  Transp.  PDBS  Atom
             --------------------------------------------------
                1     HAM0            1        1      T      0
                2     YDIPLEN         2        1      F      0
                3     XDIPLEN         3        1      F      0
             --------------------------------------------------




                         +-------------------------------+
                         ! REQUESTED EXPECTATION VALUES: !
                         +-------------------------------+

                       Index   Oper. Label  Symmetry
                       -----------------------------
                       -----------------------------




                       +------------------------------------+
                       ! REQUESTED EFFECTIVE FOCK MATRICES: !
                       +------------------------------------+

                       Index   Oper. Label  Symmetry
                       -----------------------------
                       -----------------------------




                       +-----------------------------------+
                       ! REQUESTED FIRST ORDER XI VECTORS: !
                       +-----------------------------------+

             Index   Oper. Label  relaxed  Sym.     Frequency
             --------------------------------------------------
                1      YDIPLEN        F     2      0.000000D+00
                2      XDIPLEN        F     3      0.000000D+00
             --------------------------------------------------




                        +----------------------------------+
                        ! REQUESTED FIRST ORDER T VECTORS: !
                        +----------------------------------+

             Index   Oper. Label  relaxed  Sym.     Frequency
             --------------------------------------------------
                1      YDIPLEN        F     2     -1.518329D+00
                2      YDIPLEN        F     2     -0.000000D+00
                3      YDIPLEN        F     2      1.518329D+00
                4      XDIPLEN        F     3     -1.518329D+00
                5      XDIPLEN        F     3     -0.000000D+00
                6      XDIPLEN        F     3      1.518329D+00
             --------------------------------------------------




                       +------------------------------------+
                       ! REQUESTED FIRST ORDER ETA VECTORS: !
                       +------------------------------------+

             Index   Oper. Label  relaxed  Sym.     Frequency
             --------------------------------------------------
                1      YDIPLEN        F     2      0.000000D+00
                2      XDIPLEN        F     3      0.000000D+00
             --------------------------------------------------




                      +-------------------------------------+
                      ! REQUESTED FIRST ORDER ZETA VECTORS: !
                      +-------------------------------------+

             Index   Oper. Label  relaxed  Sym.     Frequency
             --------------------------------------------------
                1      YDIPLEN        F     2     -1.518329D+00
                2      YDIPLEN        F     2     -0.000000D+00
                3      XDIPLEN        F     3     -1.518329D+00
                4      XDIPLEN        F     3     -0.000000D+00
             --------------------------------------------------




                        +----------------------------------+
                        ! REQUESTED FIRST ORDER M-VECTORS: !
                        +----------------------------------+

               Index   State Symmetry  Frequency
               --------------------------------------------------
                  1             1    4     1.518329D+00
               --------------------------------------------------


      

    *******************************************************************
    *          SOLVING COUPLED CLUSTER RESPONSE EQUATIONS             *
    *******************************************************************



 
 +======================================================================+
 !                     RHS & ETA VECTORS TO COMPUTE:                    !
 +======================================================================+
 | TYPE | # VEC. |  NEEDED FOR:                                         |
 +----------------------------------------------------------------------+
 |  O1  |    2   |  first-order amplitude equations                     |
 |  X1  |    2   |  first-order multipliers equations                   |
 +======================================================================+



 +======================================================================+
 !                       LINEAR EQUATIONS TO SOLVE:                     !
 +======================================================================+
 | TYPE | # VEC. |  EQUATION:                                           |
 +----------------------------------------------------------------------+
 |  R1  |    6   |  first-order amplitude response                      |
 |  L1  |    4   |  first-order multiplier response                     |
 |  M1  |    1   |  first-order ground - excited state multipliers      |
 +======================================================================+



 +======================================================================+
 !                F MATRIX TRANSFORMATIONS TO COMPUTE:                  !
 +======================================================================+
 | TYPE | # VEC. |  TRANSFORMED:                                        |
 +----------------------------------------------------------------------+
 |  F1  |    6   |  first-order amplitude response (R1) vector          |
 |  FR  |    1   |  right eigenvectors (RE)                             |
 +======================================================================+




 -------------------------------------------------------------------
 |          OUTPUT FROM AMPLITUDE RHS VECTOR SECTION               |
 -------------------------------------------------------------------



   For the requested  2 1th.-order amplitude rhs vectors "O1 ".
         -   0 D matrix transformations 
         -   0 C matrix transformations 
         -   0 B matrix transformations 
         -   0 C{O} matrix transformations 
         -   0 B{O} matrix transformations 
         -   0 A{O} matrix transformations 
         -   2Xi{O} vector calculations    
   will be performed.


 RPA: call cceq_str
 RPA: exit cceq_str
 RPA: call cceq_str
 RPA: exit cceq_str
 RPA: call cceq_str
 RPA: exit cceq_str
 RPA: call cceq_str
 RPA: exit cceq_str
 RPA: call cceq_str
 RPA: exit cceq_str

 Solution of CC response equations completed.


 ******************************************************************
 *                                                                *
 *<<<<<<    OUTPUT FROM COUPLED CLUSTER LINEAR RESPONSE    >>>>>>>*
 *                                                                *
 *<<<<<<  CALCULATION OF TWO-PHOTON AABSORPTION STRENGHTS  >>>>>>>*
 *                                                                *
 ******************************************************************



   For the requested  2 two-photon transition moments
         -   2 generalized F matrix transf. M1 x B x R1
         -   2 generalized Eta vector calc. M1 x A{O}
         -   2 generalized F matrix transf. LE x B x R1
         -   2 generalized Eta vector calc. LE x A{O}
         -   2 G matrix transformations     G  x R1 x R1
         -   2 F{O} matrix transformations  F{O} x RE
         -   4 generalized F matrix transf. L1 x B x RE
         -   4 generalized Eta vector calc. L1 x A{O}
         -   0 M1 x O2 dot products
         -   0 LE x O2 dot products
         -   0 RE x X2 dot products
   will be performed.


 +--------------------------------------------------+
 | total time for   2 G transforms.:      0.00 secs.|
 +==================================================+



>>> Time used for    2 G matrix transformations:           0.00 seconds.

>>> Time used for    2 F{O} matrix transformations:        0.00 seconds.

>>> Time used for    8 F matrix transformations:        0.01 seconds.

>>> Time used for    8 Eta{O} vector calculation:        0.01 seconds.

>>> Total time for   4 quadratic response func.:        0.02 seconds.


           +------------------------------------------------------------+
           !      FINAL CC2 RESULTS FOR TWO-PHOTON ABSORPTION STRENGTHS !
           +------------------------------------------------------------+



   transition         :   X ^1A1   <--    1^1A2 
   excitation energy  :   1.5183292174 a.u.    41.316 e.V.    333235. cm^-1
   photon energy for A:   0.0000000000 a.u.     0.000 e.V.         0. cm^-1
   photon energy for B:   1.5183292174 a.u.    41.316 e.V.    333235. cm^-1

   +-------------------+----------------+----------------+----------------+
   |    A        B     | M_0f( -0.0000) | M_f0(  0.0000) | S^0f(  0.0000) |
   +-------------------+----------------+----------------+----------------+
   | YDIPLEN  XDIPLEN  |     0.81547921 |     0.41404860 |     0.33764802 |
[...]
     

   *******************************************************************
   *                                                                 *
   *<<<<<<<<   OUTPUT FROM PROPERTY AND SYMMETRY ANALYSIS   >>>>>>>>>*
   *                                                                 *
   *******************************************************************



                         +-------------------------------+
                         ! REQUESTED PROPERTY OPERATORS: !
                         +-------------------------------+

             Index   Oper. Label  Symmetry  Transp.  PDBS  Atom
             --------------------------------------------------
                1     HAM0            1        1      T      0
                2     YDIPLEN         2        1      F      0
                3     XDIPLEN         3        1      F      0
             --------------------------------------------------




                         +-------------------------------+
                         ! REQUESTED EXPECTATION VALUES: !
                         +-------------------------------+

                       Index   Oper. Label  Symmetry
                       -----------------------------
                       -----------------------------




                       +------------------------------------+
                       ! REQUESTED EFFECTIVE FOCK MATRICES: !
                       +------------------------------------+

                       Index   Oper. Label  Symmetry
                       -----------------------------
                       -----------------------------




                       +-----------------------------------+
                       ! REQUESTED FIRST ORDER XI VECTORS: !
                       +-----------------------------------+

             Index   Oper. Label  relaxed  Sym.     Frequency
             --------------------------------------------------
                1      YDIPLEN        F     2      0.000000D+00
                2      XDIPLEN        F     3      0.000000D+00
             --------------------------------------------------




                        +----------------------------------+
                        ! REQUESTED FIRST ORDER T VECTORS: !
                        +----------------------------------+

             Index   Oper. Label  relaxed  Sym.     Frequency
             --------------------------------------------------
                1      YDIPLEN        F     2     -1.328216D+00
                2      YDIPLEN        F     2     -0.000000D+00
                3      YDIPLEN        F     2      1.328216D+00
                4      XDIPLEN        F     3     -1.328216D+00
                5      XDIPLEN        F     3     -0.000000D+00
                6      XDIPLEN        F     3      1.328216D+00
             --------------------------------------------------




                       +------------------------------------+
                       ! REQUESTED FIRST ORDER ETA VECTORS: !
                       +------------------------------------+

             Index   Oper. Label  relaxed  Sym.     Frequency
             --------------------------------------------------
                1      YDIPLEN        F     2      0.000000D+00
                2      XDIPLEN        F     3      0.000000D+00
             --------------------------------------------------




                      +-------------------------------------+
                      ! REQUESTED FIRST ORDER ZETA VECTORS: !
                      +-------------------------------------+

             Index   Oper. Label  relaxed  Sym.     Frequency
             --------------------------------------------------
                1      YDIPLEN        F     2     -1.328216D+00
                2      YDIPLEN        F     2     -0.000000D+00
                3      XDIPLEN        F     3     -1.328216D+00
                4      XDIPLEN        F     3     -0.000000D+00
             --------------------------------------------------




                        +----------------------------------+
                        ! REQUESTED FIRST ORDER M-VECTORS: !
                        +----------------------------------+

               Index   State Symmetry  Frequency
               --------------------------------------------------
                  1             1    4     1.328216D+00
               --------------------------------------------------


      

    *******************************************************************
    *          SOLVING COUPLED CLUSTER RESPONSE EQUATIONS             *
    *******************************************************************



 
 +======================================================================+
 !                     RHS & ETA VECTORS TO COMPUTE:                    !
 +======================================================================+
 | TYPE | # VEC. |  NEEDED FOR:                                         |
 +----------------------------------------------------------------------+
 |  O1  |    2   |  first-order amplitude equations                     |
 |  X1  |    2   |  first-order multipliers equations                   |
 +======================================================================+



 +======================================================================+
 !                       LINEAR EQUATIONS TO SOLVE:                     !
 +======================================================================+
 | TYPE | # VEC. |  EQUATION:                                           |
 +----------------------------------------------------------------------+
 |  R1  |    6   |  first-order amplitude response                      |
 |  L1  |    4   |  first-order multiplier response                     |
 |  M1  |    1   |  first-order ground - excited state multipliers      |
 +======================================================================+



 +======================================================================+
 !                F MATRIX TRANSFORMATIONS TO COMPUTE:                  !
 +======================================================================+
 | TYPE | # VEC. |  TRANSFORMED:                                        |
 +----------------------------------------------------------------------+
 |  F1  |    6   |  first-order amplitude response (R1) vector          |
 |  FR  |    1   |  right eigenvectors (RE)                             |
 +======================================================================+




 -------------------------------------------------------------------
 |          OUTPUT FROM AMPLITUDE RHS VECTOR SECTION               |
 -------------------------------------------------------------------



   For the requested  2 1th.-order amplitude rhs vectors "O1 ".
         -   0 D matrix transformations 
         -   0 C matrix transformations 
         -   0 B matrix transformations 
         -   0 C{O} matrix transformations 
         -   0 B{O} matrix transformations 
         -   0 A{O} matrix transformations 
         -   2Xi{O} vector calculations    
   will be performed.


 RPA: call cceq_str
 vector for wrong frequencies on file CCR1_2___1
FILE  :CCR1_2___1
IDXLST:    1
ISYLST:    2
ISYFIL:    2
LABLST:  YDIPLEN 
LABFIL:  YDIPLEN 
FRQLST: -1.328216
FRQFIL: -1.518329
INDLST:    0
INDFIL:    0
LORXLST:    F
LORXFIL:    F
  IOPTSV=33... read vector nevertheless...
 Vector nr.  1 of symmetry  2 found on file - RESTART SUCCESS
 Start vector is a CC2       R1  vector
 Vector nr.  2 of symmetry  2 found on file - RESTART SUCCESS
 Start vector is a CC2       R1  vector
 vector for wrong frequencies on file CCR1_2___3
FILE  :CCR1_2___3
IDXLST:    3
ISYLST:    2
ISYFIL:    2
LABLST:  YDIPLEN 
LABFIL:  YDIPLEN 
FRQLST:  1.328216
FRQFIL:  1.518329
INDLST:    0
INDFIL:    0
LORXLST:    F
LORXFIL:    F
  IOPTSV=33... read vector nevertheless...
 Vector nr.  3 of symmetry  2 found on file - RESTART SUCCESS
 Start vector is a CC2       R1  vector
 RPA: exit cceq_str
 RPA: call cceq_str
 vector for wrong frequencies on file CCR1_3___1
FILE  :CCR1_3___1
IDXLST:    4
ISYLST:    3
ISYFIL:    3
LABLST:  XDIPLEN 
LABFIL:  XDIPLEN 
FRQLST: -1.328216
FRQFIL: -1.518329
INDLST:    0
INDFIL:    0
LORXLST:    F
LORXFIL:    F
  IOPTSV=33... read vector nevertheless...
 Vector nr.  4 of symmetry  3 found on file - RESTART SUCCESS
 Start vector is a CC2       R1  vector
 Vector nr.  5 of symmetry  3 found on file - RESTART SUCCESS
 Start vector is a CC2       R1  vector
 vector for wrong frequencies on file CCR1_3___3
FILE  :CCR1_3___3
IDXLST:    6
ISYLST:    3
ISYFIL:    3
LABLST:  XDIPLEN 
LABFIL:  XDIPLEN 
FRQLST:  1.328216
FRQFIL:  1.518329
INDLST:    0
INDFIL:    0
LORXLST:    F
LORXFIL:    F
  IOPTSV=33... read vector nevertheless...
 Vector nr.  6 of symmetry  3 found on file - RESTART SUCCESS
 Start vector is a CC2       R1  vector
 RPA: exit cceq_str
 RPA: call cceq_str
 vector for wrong frequencies on file CCL1_2___1
FILE  :CCL1_2___1
IDXLST:    1
ISYLST:    2
ISYFIL:    2
LABLST:  YDIPLEN 
LABFIL:  YDIPLEN 
FRQLST: -1.328216
FRQFIL: -1.518329
INDLST:    0
INDFIL:    0
LORXLST:    F
LORXFIL:    F
  IOPTSV=33... read vector nevertheless...
 Vector nr.  1 of symmetry  2 found on file - RESTART SUCCESS
 Start vector is a CC2       L1  vector
 Vector nr.  2 of symmetry  2 found on file - RESTART SUCCESS
 Start vector is a CC2       L1  vector
 RPA: exit cceq_str
 RPA: call cceq_str
 vector for wrong frequencies on file CCL1_3___1
FILE  :CCL1_3___1
IDXLST:    3
ISYLST:    3
ISYFIL:    3
LABLST:  XDIPLEN 
LABFIL:  XDIPLEN 
FRQLST: -1.328216
FRQFIL: -1.518329
INDLST:    0
INDFIL:    0
LORXLST:    F
LORXFIL:    F
  IOPTSV=33... read vector nevertheless...
 Vector nr.  3 of symmetry  3 found on file - RESTART SUCCESS
 Start vector is a CC2       L1  vector
 Vector nr.  4 of symmetry  3 found on file - RESTART SUCCESS
 Start vector is a CC2       L1  vector
 RPA: exit cceq_str
 RPA: call cceq_str
 vector for wrong frequencies on file CCM1_4___1
FILE  :CCM1_4___1
IDXLST:    1
ISYLST:    4
ISYFIL:    4
LABLST:          
LABFIL:          
FRQLST:  1.328216
FRQFIL:  1.518329
INDLST:    1
INDFIL:    1
LORXLST:    F
LORXFIL:    F
  IOPTSV=33... read vector nevertheless...
 Vector nr.  1 of symmetry  4 found on file - RESTART SUCCESS
 Start vector is a CC2       M1  vector
 RPA: exit cceq_str

 Solution of CC response equations completed.


 ******************************************************************
 *                                                                *
 *<<<<<<    OUTPUT FROM COUPLED CLUSTER LINEAR RESPONSE    >>>>>>>*
 *                                                                *
 *<<<<<<  CALCULATION OF TWO-PHOTON AABSORPTION STRENGHTS  >>>>>>>*
 *                                                                *
 ******************************************************************



   For the requested  2 two-photon transition moments
         -   2 generalized F matrix transf. M1 x B x R1
         -   2 generalized Eta vector calc. M1 x A{O}
         -   2 generalized F matrix transf. LE x B x R1
         -   2 generalized Eta vector calc. LE x A{O}
         -   2 G matrix transformations     G  x R1 x R1
         -   2 F{O} matrix transformations  F{O} x RE
         -   4 generalized F matrix transf. L1 x B x RE
         -   4 generalized Eta vector calc. L1 x A{O}
         -   0 M1 x O2 dot products
         -   0 LE x O2 dot products
         -   0 RE x X2 dot products
   will be performed.


 +--------------------------------------------------+
 | total time for   2 G transforms.:      0.00 secs.|
 +==================================================+



>>> Time used for    2 G matrix transformations:           0.00 seconds.

>>> Time used for    2 F{O} matrix transformations:        0.00 seconds.

>>> Time used for    8 F matrix transformations:        0.04 seconds.

>>> Time used for    8 Eta{O} vector calculation:        0.01 seconds.

>>> Total time for   4 quadratic response func.:        0.05 seconds.


          +-------------------------------------------------------------+
          !      FINAL CCSD RESULTS FOR TWO-PHOTON ABSORPTION STRENGTHS !
          +-------------------------------------------------------------+



   transition         :   X ^1A1   <--    1^1A2 
   excitation energy  :   1.3282160006 a.u.    36.143 e.V.    291510. cm^-1
   photon energy for A:   0.0000000000 a.u.     0.000 e.V.         0. cm^-1
   photon energy for B:   1.3282160006 a.u.    36.143 e.V.    291510. cm^-1

   +-------------------+----------------+----------------+----------------+
   |    A        B     | M_0f( -0.0000) | M_f0(  0.0000) | S^0f(  0.0000) |
   +-------------------+----------------+----------------+----------------+
   | YDIPLEN  XDIPLEN  |    -0.16802896 |    -0.04758692 |     0.00799598 |
   | XDIPLEN  YDIPLEN  |    -0.16802896 |    -0.04758692 |     0.00799598 |
   +-------------------+----------------+----------------+----------------+
 
       Rotationally averaged two-photon transition strengths
                       and rate constants
 
       +-------------------+----------------+----------------+
       |   Polarization    |    DELTA_TP    |   K (0 -> f)   |
       +-------------------+----------------+----------------+
       |  linear (para)    |   0.00000000   |  0.000000E+00  |
       +-------------------+----------------+----------------+
       |  linear (perp)    |   0.00000000   |  0.000000E+00  |
       +-------------------+----------------+----------------+
       |    circular       |   0.00000000   |  0.000000E+00  |
       +-------------------+----------------+----------------+
  

 *******************************************************************************
 *******************************************************************************
 *                                                                             *
 *                                                                             *
 *                   SUMMARY OF COUPLED CLUSTER CALCULATION                    *
 *                                                                             *
 *                                                                             *
 *******************************************************************************
 *******************************************************************************

                                                                                
            Total SCF   energy:                  -100.0089198959                
                                                                                
                                                                                
 +=============================================================================+
 |  sym. | Exci.  |        CCS        Excitation energies            | ||T1||  |
 |(spin, |        +------------------------------------------------------------+
 | spat) |        |     Hartree    |       eV.      |     cm-1       |    %    |
 +=============================================================================+
 | ^1A2  |    1   |     1.4551441  |      39.59648  |    319367.206  | 100.00  |
 +=============================================================================+
                                                                                
                                                                                
     Total energies in Hartree:                                                 
             1 ^1A2       -98.5537758227                                        
                                                                                
                                                                                
            Total SCF   energy:                  -100.0089198959                
            Total MP2   energy:                  -100.1936625719                
            Total CC2   energy:                  -100.1946868965                
                                                                                
                                                                                
 +=============================================================================+
 |  sym. | Exci.  |        CC2        Excitation energies            | ||T1||  |
 |(spin, |        +------------------------------------------------------------+
 | spat) |        |     Hartree    |       eV.      |     cm-1       |    %    |
 +=============================================================================+
 | ^1A2  |    1   |     1.5183292  |      41.31584  |    333234.742  |  99.13  |
 +=============================================================================+
                                                                                
                                                                                
     Total energies in Hartree:                                                 
             1 ^1A2       -98.6763576791                                        
                                                                                
                                                                                
            Total SCF   energy:                  -100.0089198959                
            Total RSTAR energy:                  -100.1946868965                
            Total CCSD  energy:                  -100.1977909070                
                                                                                
                                                                                
 +=============================================================================+
 |  sym. | Exci.  |        CCSD       Excitation energies            | ||T1||  |
 |(spin, |        +------------------------------------------------------------+
 | spat) |        |     Hartree    |       eV.      |     cm-1       |    %    |
 +=============================================================================+
 | ^1A2  |    1   |     1.3282160  |      36.14260  |    291509.714  |   0.35  |
 +=============================================================================+
                                                                                
                                                                                
     Total energies in Hartree:                                                 
             1 ^1A2       -98.8695749064                                        

  1 a.u. =        27.21138 eV.  
  1 a.u. =    219474.62934 cm-1.
  

 *******************************************************************************
 *******************************************************************************
 *                                                                             *
 *                                                                             *
 *                      END OF COUPLED CLUSTER CALCULATION                     *
 *                                                                             *
 *                                                                             *
 *******************************************************************************
 *******************************************************************************


 >>>> CPU and wall time for CC :       1.695       3.296

 
     Date and time (Linux)  : Sun Sep  8 20:42:29 2013
     Host name              : lpqlx131.ups-tlse.fr                    


                      .-------------------------------------.
                      | End of Coupled Cluster Section (CC) |
                      `-------------------------------------'

 >>>> Total CPU  time used in DALTON:   1.72 seconds
 >>>> Total wall time used in DALTON:   3.32 seconds

 
     Date and time (Linux)  : Sun Sep  8 20:42:29 2013
     Host name              : lpqlx131.ups-tlse.fr                    
